Control file title. For DL_FIELD 4.10
49950
    1MOL     C1    1   1.065   3.976   0.935 -0.0747 -0.0855  0.9915
    1MOL     C2    2   0.997   3.996   0.794  0.3625  0.2777  1.4202
    1MOL     C3    3   0.995   4.142   0.755  0.4062 -0.4779 -0.1432
    1MOL     O4    4   1.096   4.206   0.737 -0.5482 -0.2768  0.1482
    1MOL     C5    5   0.859   4.201   0.741  0.4421  0.3296  0.5207
    1MOL     H6    6   1.083   3.871   0.956  0.5654 -0.0658  0.5703
    1MOL     H7    7   1.000   4.012   1.014 -0.9076  0.4641  0.0774
    1MOL     H8    8   0.892   3.970   0.785  0.0315  2.2351 -0.6934
    1MOL     H9    9   0.832   4.200   0.636 -0.5979 -0.2380  0.7840
    1MOL    H10   10   0.788   4.153   0.809 -1.0523  0.6983 -0.7387
    1MOL    H11   11   0.852   4.304   0.775 -0.1164 -0.1444  1.8974
    1MOL    H12   12   1.158   4.032   0.933 -0.0716 -0.0762  1.3600
    1MOL    C13   13   1.085   3.918   0.684  0.1055 -0.1776  0.0466
    1MOL    C14   14   0.994   3.855   0.584  0.5144 -0.7282  0.0031
    1MOL    C15   15   0.916   3.740   0.646 -0.6949 -0.3970  0.3701
    1MOL    O16   16   0.803   3.709   0.613  0.4574 -0.0292 -0.2537
    1MOL    C17   17   0.993   3.647   0.746 -0.6092 -0.4640  0.1575
    1MOL    H18   18   1.140   3.992   0.626  0.7173  1.9801  3.2563
    1MOL    H19   19   1.159   3.856   0.734 -0.3340 -0.6124  0.1555
    1MOL    H20   20   0.922   3.925   0.543 -2.1493 -3.2712  0.2298
    1MOL    H21   21   1.039   3.699   0.830  0.0555  0.6240 -0.8710
    1MOL    H22   22   0.920   3.570   0.772 -2.1952  0.2516 -2.0165
    1MOL    H23   23   1.079   3.603   0.697  1.3591  2.6555  0.6974
    1MOL    C24   24   1.093   3.808   0.475  0.4398 -0.3595  0.5688
    1MOL    C25   25   1.034   3.712   0.369 -0.3604 -0.3601  0.5852
    1MOL    C26   26   0.911   3.764   0.298  0.1418  0.2311  0.1813
    1MOL    O27   27   0.886   3.886   0.294  0.3898  0.1751 -0.2709
    1MOL    C28   28   0.834   3.660   0.222 -0.1631 -0.4288  0.0174
    1MOL    H29   29   1.127   3.897   0.423  0.6379  0.0360  1.3708
    1MOL    H30   30   1.172   3.745   0.518  0.1385 -0.0971  1.5222
    1MOL    H31   31   0.987   3.637   0.432 -2.1879  1.2904  1.2482
    1MOL    H32   32   0.734   3.691   0.192 -0.0630 -1.3915 -1.3749
    1MOL    H33   33   0.886   3.621   0.135  0.5333 -0.9013  0.6339
    1MOL    H34   34   0.812   3.573   0.285 -3.0608 -1.8002 -2.7102
    1MOL    C35   35   1.134   3.641   0.275  0.3431 -0.3602  0.4585
    1MOL    C36   36   1.193   3.711   0.152  0.1765  0.1372  0.3901
    1MOL    C37   37   1.315   3.802   0.187  0.0708  0.0974  0.4892
    1MOL    O38   38   1.424   3.757   0.219  0.4021  0.4671  0.2405
    1MOL    C39   39   1.297   3.950   0.151 -0.1507 -0.5575  0.4526
    1MOL    H40   40   1.074   3.555   0.245 -0.6272  0.2958  0.4898
    1MOL    H41   41   1.215   3.587   0.324  1.2840  2.0769  1.6897
    1MOL    H42   42   1.119   3.786   0.124 -1.1515 -0.8488  1.1913
    1MOL    H43   43   1.200   3.999   0.150  1.1097  1.9973  0.2773
    1MOL    H44   44   1.329   3.962   0.048 -0.2814  0.1682  0.4914
    1MOL    H45   45   1.364   4.014   0.209 -0.2029 -0.0722 -0.0186
    1MOL    C46   46   1.214   3.625   0.024 -0.1795  0.7136  0.2523
    1MOL    C47   47   1.329   3.521   0.023  0.1780 -0.5123 -0.0234
    1MOL    C48   48   1.319   3.412   0.131  0.5885 -0.8883 -0.5250
    1MOL    O49   49   1.245   3.316   0.120  0.6490  0.1609 -0.2205
    1MOL    C50   50   1.417   3.435   0.243  0.3246 -0.5338  0.6463
    1MOL    H51   51   1.226   3.697   7.801  0.3365  1.0085  0.5941
    1MOL    H52   52   1.126   3.566   7.855 -1.0423  2.6458 -1.3079
    1MOL    H53   53   1.417   3.578   0.054 -0.3600  2.0406 -3.0107
    1MOL    H54   54   1.372   3.418   0.341  1.0088  0.6491  1.1775
    1MOL    H55   55   1.499   3.364   0.233 -0.4057 -1.4314  0.8902
    1MOL    H56   56   1.462   3.533   0.259  0.2393 -0.2367 -0.8715
    1MOL    C57   57   1.361   3.476   7.741 -0.4288  0.0903 -0.0519
    1MOL    C58   58   1.420   3.586   7.643  0.3619  0.4717 -0.1580
    1MOL    C59   59   1.578   3.566   7.624 -0.5528 -0.2661 -0.0940
    1MOL    O60   60   1.632   3.459   7.625  0.3129  0.1996 -0.1895
    1MOL    C61   61   1.662   3.686   7.579  0.1760  0.2741  0.1921
    1MOL    H62   62   1.267   3.436   7.702 -1.2604  1.5062  0.4696
    1MOL    H63   63   1.433   3.395   7.747 -0.8433 -0.3183 -0.5918
    1MOL    H64   64   1.403   3.681   7.692 -1.4854 -0.9418  2.0227
    1MOL    H65   65   1.600   3.743   7.511 -0.1446 -2.2723 -1.7153
    1MOL    H66   66   1.682   3.740   7.672  1.0597 -0.3484  0.3714
    1MOL    H67   67   1.755   3.662   7.528  0.3291 -1.5862  1.3116
    1MOL    C68   68   1.343   3.576   7.508 -0.0176 -0.0427  0.0024
    1MOL    C69   69   1.341   3.706   7.421  0.0051 -0.6027 -0.7777
    1MOL    C70   70   1.263   3.827   7.485  0.1101 -0.1515  0.2626
    1MOL    O71   71   1.137   3.817   7.482 -0.1646 -0.2095  0.3359
    1MOL    C72   72   1.340   3.939   7.550  0.6475 -0.6250 -0.3328
    1MOL    H73   73   1.359   3.487   7.447 -0.2113 -0.4995  0.6141
    1MOL    H74   74   1.237   3.561   7.529  0.0926 -0.4364  0.2591
    1MOL    H75   75   1.443   3.742   7.408 -0.0821 -0.6388 -1.5907
    1MOL    H76   76   1.444   3.908   7.542 -0.0839 -3.1785 -0.4602
    1MOL    H77   77   1.307   4.034   7.510  1.7219  0.2847  0.9145
    1MOL    H78   78   1.301   3.937   7.652  3.3870  0.6805  0.7648
    1MOL    C79   79   1.282   3.683   7.279  0.4670 -0.2263  0.2175
    1MOL    C80   80   1.364   3.593   7.191 -0.5184  0.1518  0.3220
    1MOL    C81   81   1.507   3.644   7.185 -0.3435 -0.3887 -0.6087
    1MOL    O82   82   1.541   3.764   7.179  0.0362  0.1351  0.8879
    1MOL    C83   83   1.614   3.537   7.206  0.4906  0.6301  0.0581
    1MOL    H84   84   1.253   3.776   7.231  1.1039  0.3184  0.8753
    1MOL    H85   85   1.189   3.626   7.274  1.8239 -2.4537 -0.5555
    1MOL    H86   86   1.372   3.493   7.234 -0.6769  0.1591  0.3709
    1MOL    H87   87   1.573   3.440   7.233 -0.6890  0.3510 -2.5003
    1MOL    H88   88   1.666   3.569   7.296  0.6602 -3.0297  1.3153
    1MOL    H89   89   1.690   3.531   7.128  1.1585  0.6219  0.7082
    1MOL    C90   90   1.303   3.572   7.049  0.1012 -0.3402  0.5172
    1MOL    C91   91   1.331   3.432   6.977  0.0558  0.2192  0.0761
    1MOL    C92   92   1.243   3.316   7.035  0.3834 -0.3795  0.5091
    1MOL    O93   93   1.120   3.307   7.030  0.2617  0.9876  0.8483
    1MOL    C94   94   1.311   3.195   7.097 -1.2978 -0.0375  0.1957
    1MOL    H95   95   1.195   3.583   7.062 -0.2514 -0.6893 -1.8689
    1MOL    H96   96   1.321   3.657   6.983 -3.5149 -0.4427 -0.7344
    1MOL    H97   97   1.435   3.403   6.994 -0.1742 -0.6233  0.0779
    1MOL    H98   98   1.342   3.216   7.199  0.6255  1.7612 -0.7182
    1MOL    H99   99   1.244   3.110   7.087 -0.6401 -0.5449  0.0668
    1MOL   H100  100   1.402   3.192   7.037 -0.6209  2.6472  1.0015
    1MOL   C101  101   1.315   3.446   6.824  0.4919 -0.3906  0.0796
    1MOL   C102  102   1.370   3.331   6.729  0.2891  0.0521  0.6043
    1MOL   C103  103   1.262   3.224   6.700 -0.0474  0.6371 -0.2559
    1MOL   O104  104   1.268   3.113   6.757  0.0401 -0.0144 -0.3080
    1MOL   C105  105   1.139   3.257   6.616  0.8363  0.6475  0.2702
    1MOL   H106  106   1.212   3.471   6.796  0.0311 -1.5584  0.6947
    1MOL   H107  107   1.375   3.528   6.784  1.7920 -0.2041  2.3558
    1MOL   H108  108   1.377   3.367   6.626 -0.4517 -0.9076  0.1994
    1MOL   H109  109   1.063   3.313   6.670  1.9342  1.1152  1.3532
    1MOL   H110  110   1.161   3.331   6.539 -2.5949  1.1506 -0.2815
    1MOL   H111  111   1.105   3.165   6.570 -0.5481  0.9333  0.7075
    1MOL   C112  112   1.511   3.275   6.757  0.4561 -0.2707  0.3585
    1MOL   C113  113   1.588   3.192   6.646 -0.1377  0.0199 -0.0134
    1MOL   C114  114   1.567   3.241   6.500  0.3860 -0.3591  0.2437
    1MOL   O115  115   1.518   3.168   6.412  0.5657  0.0952  0.2550
    1MOL   C116  116   1.609   3.387   6.461  0.1099  0.0208  0.2788
    1MOL   H117  117   1.520   3.219   6.850 -1.4814 -1.9375 -0.4140
    1MOL   H118  118   1.578   3.357   6.781 -0.2313  0.3510  0.1832
    1MOL   H119  119   1.694   3.205   6.667  0.4958 -0.8318 -2.4426
    1MOL   H120  120   1.551   3.469   6.502  0.8733  0.3081  0.7917
    1MOL   H121  121   1.702   3.422   6.506 -0.1799 -3.7540  4.1603
    1MOL   H122  122   1.623   3.402   6.354 -1.8046 -1.8275 -0.2688
    1MOL   C123  123   1.561   3.036   6.656  0.2751  0.3387 -0.2111
    1MOL   C124  124   1.588   2.969   6.798 -0.1073 -0.3992  0.2021
    1MOL   C125  125   1.723   3.006   6.864  0.2708 -0.5278 -0.2249
    1MOL   O126  126   1.830   3.006   6.801 -0.0601 -0.1882  0.0719
    1MOL   C127  127   1.723   3.043   7.006 -0.1408  0.6150  0.3010
    1MOL   H128  128   1.632   2.980   6.596 -0.3229 -1.7404  0.9776
    1MOL   H129  129   1.459   3.016   6.623  0.3636  2.1306 -1.6711
    1MOL   H130  130   1.510   2.992   6.870  0.8260  1.1119  0.7521
    1MOL   H131  131   1.685   3.144   7.021  1.6694  0.9741  2.7670
    1MOL   H132  132   1.824   3.039   7.047  0.9228 -4.0387 -2.5021
    1MOL   H133  133   1.653   2.982   7.064 -2.7122  1.8709 -1.3629
    1MOL   C134  134   1.587   2.813   6.780 -0.2374 -0.0341  0.0652
    1MOL   C135  135   1.568   2.721   6.903  0.5770 -0.3095  0.3886
    1MOL   C136  136   1.426   2.721   6.954  0.3937 -0.6151  0.4478
    1MOL   O137  137   1.350   2.637   6.915  0.2293 -0.9840 -0.1213
    1MOL   C138  138   1.379   2.831   7.046  1.3649 -0.0302 -0.1199
    1MOL   H139  139   1.674   2.795   6.718 -0.8024 -0.3279 -0.6476
    1MOL   H140  140   1.510   2.793   6.706  0.9619 -1.2016 -0.8791
    1MOL   H141  141   1.631   2.763   6.982 -0.8484  2.6604  0.0049
    1MOL   H142  142   1.463   2.898   7.064  0.7272  0.3629  1.5045
    1MOL   H143  143   1.348   2.779   7.137 -1.7726 -0.1290 -1.1758
    1MOL   H144  144   1.291   2.879   7.001  0.1003 -2.7778 -0.6495
    1MOL   C145  145   1.627   2.584   6.873 -0.1141 -0.5267  0.7403
    1MOL   C146  146   1.639   2.475   6.985  0.9324  0.4943 -0.4056
    1MOL   C147  147   1.632   2.341   6.919  0.1570  0.6793 -0.4139
    1MOL   O148  148   1.711   2.311   6.831 -0.1438  0.1008  0.8629
    1MOL   C149  149   1.531   2.244   6.960  0.5717 -0.3516 -0.3169
    1MOL   H150  150   1.728   2.603   6.835 -0.7335 -1.5462 -1.4738
    1MOL   H151  151   1.579   2.546   6.784  0.5564 -0.9411  0.5486
    1MOL   H152  152   1.545   2.484   7.041  0.4135 -2.3277 -0.7374
    1MOL   H153  153   1.571   2.147   6.991  0.8047  0.2893  1.4722
    1MOL   H154  154   1.481   2.284   7.049 -1.1240 -2.7634 -0.1306
    1MOL   H155  155   1.460   2.221   6.881 -0.3819  0.2028  0.3644
    1MOL   C156  156   1.766   2.487   7.079  0.0643  0.6987  0.1692
    1MOL   C157  157   1.748   2.414   7.212 -0.7394  0.2181  0.7686
    1MOL   C158  158   1.686   2.500   7.321 -0.2814  0.0299  0.4915
    1MOL   O159  159   1.752   2.517   7.425  0.4704  0.5416  0.5946
    1MOL   C160  160   1.561   2.577   7.285 -0.8480 -0.3483 -0.1741
    1MOL   H161  161   1.861   2.460   7.034  0.1386 -0.1563  0.8182
    1MOL   H162  162   1.781   2.594   7.094 -0.0193  0.7395 -0.0463
    1MOL   H163  163   1.685   2.331   7.179 -0.6486 -0.3665  2.0324
    1MOL   H164  164   1.591   2.644   7.205  4.2999 -2.0600  0.1535
    1MOL   H165  165   1.537   2.657   7.356  3.5746 -0.6587  1.7785
    1MOL   H166  166   1.481   2.507   7.261 -0.9358 -0.8031  1.3685
    1MOL   C167  167   1.889   2.363   7.253 -0.0427  0.1731  0.3319
    1MOL   C168  168   1.904   2.268   7.373  0.2555 -0.0245  0.2886
    1MOL   C169  169   2.029   2.284   7.442 -0.0637 -0.2311  0.0963
    1MOL   O170  170   2.123   2.214   7.397 -0.3502  0.5291 -0.1157
    1MOL   C171  171   2.050   2.386   7.552  0.4140  0.0782 -0.2737
    1MOL   H172  172   1.945   2.319   7.171  0.4913 -1.3533  1.4956
    1MOL   H173  173   1.949   2.450   7.279 -1.9424  1.4104  0.6918
    1MOL   H174  174   1.830   2.306   7.443 -1.2551  1.6380 -2.1183
    1MOL   H175  175   1.999   2.357   7.644  1.0986  3.3449  1.2133
    1MOL   H176  176   2.019   2.480   7.507 -2.0500 -0.4955  0.1307
    1MOL   H177  177   2.155   2.380   7.579  0.6108 -2.2883 -1.4465
    1MOL   C178  178   1.866   2.126   7.331 -0.3382  0.5649  0.8809
    1MOL   C179  179   1.847   2.008   7.438  0.1967  0.1687 -0.7400
    1MOL   C180  180   1.818   1.878   7.362 -0.0781  0.0238  0.1865
    1MOL   O181  181   1.743   1.878   7.266 -0.4332 -0.3348  0.2117
    1MOL   C182  182   1.880   1.750   7.414 -0.2512  0.2305 -1.3454
    1MOL   H183  183   1.778   2.131   7.267  0.0952 -1.3663  0.0892
    1MOL   H184  184   1.948   2.090   7.268 -1.1833 -0.8761  0.5741
    1MOL   H185  185   1.944   1.993   7.485  0.1746 -1.7282 -1.2661
    1MOL   H186  186   1.973   1.732   7.360  0.4198 -0.2727 -0.0493
    1MOL   H187  187   1.811   1.665   7.409 -0.5419  0.4539 -1.1846
    1MOL   H188  188   1.905   1.763   7.519  0.2066  2.4285 -1.7157
    1MOL   C189  189   1.739   2.037   7.543  0.4516  0.5142 -0.3129
    1MOL   C190  190   1.723   1.937   7.657  0.1263  0.2554  0.3368
    1MOL   C191  191   1.849   1.932   7.744  0.2515 -0.5743 -0.6547
    1MOL   O192  192   1.931   2.021   7.745 -0.1069 -0.1033 -0.6873
    1MOL   C193  193   1.872   1.814   7.826 -0.0688 -0.5598 -0.4305
    1MOL   H194  194   1.764   2.134   7.585  2.5544 -0.6562  1.2376
    1MOL   H195  195   1.644   2.061   7.496 -0.4085  1.9993  2.0990
    1MOL   H196  196   1.724   1.838   7.611 -2.5106 -0.4317  1.6745
    1MOL   H197  197   1.840   1.823   0.072  1.2495 -1.3705  0.0640
    1MOL   H198  198   1.816   1.730   7.784  0.3400 -1.7782  1.3829
    1MOL   H199  199   1.980   1.801   7.825  0.0170  0.2367 -1.0146
    1MOL   C200  200   1.588   1.938   7.733 -0.1271 -0.6005 -0.2321
    1MOL   C201  201   1.539   2.070   7.794  0.2998  0.2767  0.0086
    1MOL   C202  202   1.607   2.096   0.072 -0.8349  0.1711  0.1616
    1MOL   O203  203   1.631   2.011   0.148  0.1202 -0.0572 -0.0168
    1MOL   C204  204   1.605   2.240   0.130  0.1381 -0.6457 -0.6727
    1MOL   H205  205   1.516   1.915   7.654  0.0846 -2.3752  0.0635
    1MOL   H206  206   1.578   1.855   7.803 -0.1944 -0.1741  0.2612
    1MOL   H207  207   1.565   2.153   7.728 -3.7459  0.6446 -1.3004
    1MOL   H208  208   1.706   2.278   0.146  0.4831 -2.2652  1.0948
    1MOL   H209  209   1.556   2.313   0.065  0.7260 -0.2055 -0.6315
    1MOL   H210  210   1.541   2.239   0.218  0.5348 -0.5822 -0.3793
    1MOL   C211  211   1.390   2.066   7.810  0.2127 -0.8726 -0.5326
    1MOL   C212  212   1.334   1.948   0.035 -0.3998  0.0034  0.4291
    1MOL   C213  213   1.208   1.985   0.117 -0.9629  0.9701  0.4684
    1MOL   O214  214   1.127   2.065   0.075 -0.1157 -0.2752  0.1867
    1MOL   C215  215   1.183   1.905   0.234  0.6125  0.4626 -0.2683
    1MOL   H216  216   1.361   2.161   7.856  0.2940 -1.3422  0.5200
    1MOL   H217  217   1.342   2.067   7.712 -2.3800  1.1231  0.6941
    1MOL   H218  218   1.407   1.892   0.092  1.1470 -1.4389 -2.8584
    1MOL   H219  219   1.077   1.920   0.254  0.2342  2.2572 -3.3185
    1MOL   H220  220   1.223   1.804   0.221  0.3250  0.0606  1.7559
    1MOL   H221  221   1.230   1.952   0.320  1.0614 -0.0852 -0.2148
    1MOL   H222  222   1.305   1.867   7.825  0.3756  0.6532 -0.7011
    2MOL     C1  223   0.364   3.291   2.659 -0.8328  0.1646 -0.3049
    2MOL     C2  224   0.277   3.326   2.784 -0.1019  0.1130 -0.0802
    2MOL     C3  225   0.202   3.192   2.825 -0.3845  0.3366  0.5456
    2MOL     O4  226   0.260   3.093   2.844  0.2442 -0.3702 -0.0970
    2MOL     C5  227   0.052   3.199   2.837  0.0870  0.2644 -0.4520
    2MOL     H6  228   0.440   3.217   2.682 -1.9843 -0.5363  1.3694
    2MOL     H7  229   0.404   3.379   2.609  1.6736 -0.6990  0.1466
    2MOL     H8  230   0.199   3.396   2.752 -1.2532 -1.1589 -0.0675
    2MOL     H9  231   0.033   3.252   2.930 -1.5893 -1.6721  0.3555
    2MOL    H10  232   7.853   3.254   2.762 -0.8177 -0.9320 -0.6591
    2MOL    H11  233   0.010   3.098   2.840 -1.9284  1.1141  1.7085
    2MOL    H12  234   0.301   3.240   2.586 -1.7395  0.9963 -0.1210
    2MOL    C13  235   0.359   3.390   2.901 -0.3798  0.1309  0.6953
    2MOL    C14  236   0.373   3.545   2.880  0.2000  0.0885  0.1180
    2MOL    C15  237   0.487   3.589   2.784  0.0991  0.1286  0.1313
    2MOL    O16  238   0.454   3.636   2.677 -0.0565 -0.3161  0.1200
    2MOL    C17  239   0.631   3.578   2.818 -1.1051 -0.5110  0.7498
    2MOL    H18  240   0.294   3.372   2.987 -1.0655  1.3208  0.4357
    2MOL    H19  241   0.454   3.337   2.910  0.0684  0.8587  0.2629
    2MOL    H20  242   0.282   3.588   2.837 -0.2063 -0.1621  0.7286
    2MOL    H21  243   0.632   3.490   2.883 -0.3153 -1.1054 -0.0556
    2MOL    H22  244   0.679   3.546   2.726 -1.6609  2.0129 -0.4725
    2MOL    H23  245   0.673   3.669   2.863 -0.4414  0.2781 -1.3986
    2MOL    C24  246   0.406   3.610   3.017  0.1092  0.2284  0.6977
    2MOL    C25  247   0.390   3.763   3.031  0.1883  0.4639 -0.9456
    2MOL    C26  248   0.256   3.814   2.986 -0.6732 -0.3621  0.4957
    2MOL    O27  249   0.239   3.871   2.879 -0.4159  0.5728 -0.0087
    2MOL    C28  250   0.138   3.775   3.071  0.5109 -0.0538 -0.3286
    2MOL    H29  251   0.342   3.580   3.101 -0.6137 -0.5232 -0.1173
    2MOL    H30  252   0.501   3.564   3.045  1.3439  2.1097 -0.3227
    2MOL    H31  253   0.445   3.812   2.951  0.9944  1.1643  0.0305
    2MOL    H32  254   0.125   3.837   3.160  0.0252  1.2707 -1.3041
    2MOL    H33  255   0.046   3.801   3.017  0.0763  3.0474  1.7769
    2MOL    H34  256   0.144   3.674   3.111 -2.9454 -0.0722  0.3492
    2MOL    C35  257   0.449   3.817   3.159  0.1541 -0.0196 -0.4686
    2MOL    C36  258   0.388   3.755   3.287  0.2418  0.1198  0.7391
    2MOL    C37  259   0.491   3.663   3.356 -0.2644  0.8015  0.6110
    2MOL    O38  260   0.468   3.542   3.379  0.1344 -0.5977 -0.2431
    2MOL    C39  261   0.624   3.722   3.404  0.2247 -0.7283  0.4712
    2MOL    H40  262   0.430   3.924   3.153  0.8030  0.0577 -1.2402
    2MOL    H41  263   0.558   3.815   3.150  0.3523 -0.8746  1.6640
    2MOL    H42  264   0.296   3.700   3.271  0.9973 -0.6110 -1.3751
    2MOL    H43  265   0.705   3.662   3.362  0.4995  0.2164 -0.4007
    2MOL    H44  266   0.626   3.744   3.510  0.5663  2.4547 -0.1290
    2MOL    H45  267   0.619   3.823   3.362  2.0297 -1.6084 -1.9951
    2MOL    C46  268   0.345   3.855   3.401 -0.3966  0.2006  0.0564
    2MOL    C47  269   0.272   3.784   3.519  0.3538 -0.4715  0.4545
    2MOL    C48  270   0.237   3.879   3.636  0.6433 -0.1018  0.6369
    2MOL    O49  271   0.130   3.939   3.639 -0.5466  0.2713  0.5959
    2MOL    C50  272   0.345   3.908   3.729 -0.1666  0.1635 -0.4328
    2MOL    H51  273   0.266   3.921   3.365 -2.1918 -2.6691 -1.5070
    2MOL    H52  274   0.429   3.921   3.421 -1.5533  1.6202  0.3414
    2MOL    H53  275   0.345   3.714   3.560  1.5486  1.5520  1.8827
    2MOL    H54  276   0.322   3.883   3.833  2.3838  0.3794  0.2193
    2MOL    H55  277   0.426   3.842   3.699 -0.3653 -0.3688  0.1743
    2MOL    H56  278   0.390   4.007   3.726  3.6428 -1.3715  1.6527
    2MOL    C57  279   0.139   3.703   3.474 -0.0130  0.2882  0.7272
    2MOL    C58  280   0.133   3.549   3.465 -0.1532  0.1249  0.2945
    2MOL    C59  281   0.167   3.479   3.598  0.6811  0.2082  0.2917
    2MOL    O60  282   0.088   3.484   3.696 -0.5083  0.2519 -0.3015
    2MOL    C61  283   0.296   3.396   3.604  0.0383 -0.2860  0.1327
    2MOL    H62  284   0.109   3.740   3.376 -1.0419 -0.6063  0.7077
    2MOL    H63  285   0.060   3.720   3.546  1.4156 -1.8107  2.8506
    2MOL    H64  286   0.204   3.525   3.386 -0.8328 -4.2878  0.8888
    2MOL    H65  287   0.321   3.376   3.500 -0.0168  0.7948 -0.0972
    2MOL    H66  288   0.375   3.443   3.662 -1.7278  0.5514  1.9225
    2MOL    H67  289   0.273   3.298   3.647  1.9907 -1.3472 -1.2156
    2MOL    C68  290   7.842   3.494   3.428 -0.0463  0.3117  0.9217
    2MOL    C69  291   7.843   3.348   3.365 -0.4288  0.1903 -0.4292
    2MOL    C70  292   0.086   3.342   3.252  0.2022  0.0116 -0.1025
    2MOL    O71  293   0.085   3.426   3.161  0.2208 -0.3547  0.2119
    2MOL    C72  294   0.204   3.240   3.259  0.1586 -0.2212  0.0834
    2MOL    H73  295   7.765   3.493   3.505  1.8921  0.0835  2.9029
    2MOL    H74  296   7.809   3.563   3.351  1.6020 -0.7826 -0.8160
    2MOL    H75  297   0.014   3.279   3.445 -1.8719  0.3199  0.2088
    2MOL    H76  298   0.208   3.172   3.175 -1.2140  0.3414 -0.4527
    2MOL    H77  299   0.301   3.290   3.262  1.4320 -2.6348  0.1669
    2MOL    H78  300   0.209   3.191   3.356 -0.8596 -0.9568 -0.2356
    2MOL    C79  301   7.704   3.323   3.310 -0.6741  1.0283  0.0139
    2MOL    C80  302   7.670   3.169   3.292  0.5172  0.3496  0.4153
    2MOL    C81  303   7.533   3.159   3.216  0.3627 -0.5338 -0.6845
    2MOL    O82  304   7.442   3.251   3.213 -0.2467  0.1707 -0.3751
    2MOL    C83  305   7.505   3.014   3.171 -0.3315  0.5471 -0.6636
    2MOL    H84  306   7.699   3.373   3.213 -2.5847 -1.3464 -1.1735
    2MOL    H85  307   7.624   3.368   3.369 -1.6123 -0.7057  0.1093
    2MOL    H86  308   7.755   3.131   3.234  0.8840 -1.5001  2.1283
    2MOL    H87  309   7.582   2.975   3.104 -2.7157 -1.7890 -2.1442
    2MOL    H88  310   7.409   3.017   3.118 -0.7358 -1.3679 -0.0835
    2MOL    H89  311   7.480   2.952   3.257 -0.3467  0.7879 -0.4963
    2MOL    C90  312   7.657   3.087   3.430 -0.0083  0.5194 -0.1917
    2MOL    C91  313   7.718   2.948   3.442  0.2428  0.1358 -0.3106
    2MOL    C92  314   0.007   2.946   3.427 -0.0856  0.3426  0.6660
    2MOL    O93  315   0.074   3.015   3.494 -0.1474  0.4578  0.0057
    2MOL    C94  316   0.071   2.846   3.333  0.7471 -0.3106 -0.3589
    2MOL    H95  317   7.692   3.144   3.516  1.6718 -0.2240 -0.3583
    2MOL    H96  318   7.551   3.074   3.452 -0.0077  0.5970 -0.1414
    2MOL    H97  319   7.675   2.886   3.364 -0.7821  0.2372  0.1518
    2MOL    H98  320   0.167   2.888   3.306  0.9074 -1.5243 -1.7654
    2MOL    H99  321   0.076   2.743   3.369 -1.0584 -0.3648 -0.1827
    2MOL   H100  322   0.015   2.847   3.239 -0.5319 -1.7098  0.3590
    2MOL   C101  323   7.669   2.875   3.568 -0.3734  0.7686 -0.0661
    2MOL   C102  324   7.711   2.724   3.596 -1.2122 -0.8988 -0.2426
    2MOL   C103  325   7.623   2.628   3.507 -0.1186 -0.7998  0.2199
    2MOL   O104  326   7.563   2.663   3.403 -0.9997 -0.0357 -0.0458
    2MOL   C105  327   7.619   2.479   3.544  0.1135  0.1584  0.6223
    2MOL   H106  328   7.728   2.936   3.636  0.5702  0.3474 -0.4932
    2MOL   H107  329   7.562   2.882   3.587 -0.5746  0.7082 -1.1472
    2MOL   H108  330   7.817   2.722   3.567 -0.6405  1.6240  1.4558
    2MOL   H109  331   7.553   2.481   3.631 -1.4713  1.0378 -0.5583
    2MOL   H110  332   7.557   2.420   3.476  1.5271 -1.8774  1.0475
    2MOL   H111  333   7.719   2.441   3.562  0.2791  0.9064  1.3284
    2MOL   C112  334   7.704   2.703   3.747  0.9240  0.3050  0.0739
    2MOL   C113  335   7.831   2.645   3.809  0.6478  0.8551  0.3433
    2MOL   C114  336   7.801   2.592   3.951 -0.1740 -0.7680 -0.0996
    2MOL   O115  337   7.792   2.673   4.046  0.3905  0.4154 -0.6833
    2MOL   C116  338   7.752   2.449   3.960  0.3652  0.6356 -0.2251
    2MOL   H117  339   7.620   2.635   3.761  1.3313 -0.3231 -0.5025
    2MOL   H118  340   7.693   2.800   3.796  1.5131  0.7829 -0.7243
    2MOL   H119  341   0.005   2.561   3.747 -1.7738  1.1985 -1.4335
    2MOL   H120  342   7.784   2.403   3.866  1.1584  1.0273 -0.1572
    2MOL   H121  343   7.799   2.395   4.042 -2.8357 -0.3920  0.9840
    2MOL   H122  344   7.646   2.446   3.981  0.2399 -1.0800 -1.0351
    2MOL   C123  345   0.089   2.750   3.807  0.4125 -0.2518 -0.4257
    2MOL   C124  346   0.234   2.696   3.796 -0.3258  0.2020 -0.5877
    2MOL   C125  347   0.273   2.605   3.920  0.1549 -0.2195 -1.0896
    2MOL   O126  348   0.301   2.486   3.908 -0.4157  0.6393 -0.2196
    2MOL   C127  349   0.281   2.675   4.052 -0.7268 -0.5142  0.5525
    2MOL   H128  350   0.069   2.823   3.886 -2.1641  0.5694 -1.7787
    2MOL   H129  351   0.079   2.821   3.725  0.7973 -0.9876 -1.1180
    2MOL   H130  352   0.243   2.636   3.705  0.8839 -2.3361  1.1183
    2MOL   H131  353   0.223   2.626   4.130  1.0263 -3.1670  0.2641
    2MOL   H132  354   0.250   2.779   4.047 -0.1863 -0.3564  0.5241
    2MOL   H133  355   0.388   2.678   4.070 -0.5322  3.5092 -0.8576
    2MOL   C134  356   0.337   2.807   3.785  0.3309  1.0527  0.5261
    2MOL   C135  357   0.390   2.839   3.646  0.5046 -0.2914  0.0908
    2MOL   C136  358   0.456   2.983   3.649  0.0731  0.1630 -0.1232
    2MOL   O137  359   0.510   3.027   3.750  0.0084  0.4920  0.0947
    2MOL   C138  360   0.445   3.069   3.525  0.4310 -0.5035 -0.8783
    2MOL   H139  361   0.429   2.780   3.837  0.6513  0.8249 -0.1432
    2MOL   H140  362   0.293   2.895   3.830 -0.2329  0.5418  0.9894
    2MOL   H141  363   0.306   2.840   3.577 -0.0661 -0.4070  0.7866
    2MOL   H142  364   0.511   3.037   3.444 -0.1970  0.2339 -1.7025
    2MOL   H143  365   0.469   3.170   3.557  1.5031 -0.9471 -0.2799
    2MOL   H144  366   0.345   3.062   3.481  0.1121 -0.6371 -0.1259
    2MOL   C145  367   0.500   2.737   3.610 -0.8087 -0.4038  0.4860
    2MOL   C146  368   0.539   2.735   3.459 -0.3829  0.2373 -0.1499
    2MOL   C147  369   0.658   2.647   3.438  0.2798  0.7316  0.5127
    2MOL   O148  370   0.644   2.535   3.384  0.0541  0.2130  0.3377
    2MOL   C149  371   0.790   2.693   3.498 -0.8155  0.4419 -0.5235
    2MOL   H150  372   0.459   2.636   3.623 -0.4309 -0.7652 -1.0072
    2MOL   H151  373   0.592   2.744   3.668  0.0475  0.2493 -0.9295
    2MOL   H152  374   0.554   2.839   3.432  0.9317  0.7063  2.3136
    2MOL   H153  375   0.826   2.629   3.578 -1.1369 -0.2150 -0.9021
    2MOL   H154  376   0.861   2.686   3.416  0.2587 -0.2562  0.4531
    2MOL   H155  377   0.789   2.795   3.539  0.0032  0.7930 -1.3520
    2MOL   C156  378   0.418   2.708   3.362 -0.6289 -0.1916 -0.2404
    2MOL   C157  379   0.439   2.741   3.206  0.3319  0.4903 -0.0148
    2MOL   C158  380   0.469   2.891   3.187 -0.1339 -0.3084 -0.1935
    2MOL   O159  381   0.401   2.978   3.242 -0.2034  0.6597  0.1686
    2MOL   C160  382   0.563   2.935   3.085 -0.0681 -0.2614  0.7058
    2MOL   H161  383   0.392   2.603   3.376 -1.1411 -0.1115 -0.5874
    2MOL   H162  384   0.337   2.773   3.393  1.1302  1.4048  1.1807
    2MOL   H163  385   0.532   2.694   3.175  1.8739  3.4916 -0.1572
    2MOL   H164  386   0.629   3.013   3.123 -0.6992  1.1226 -0.9884
    2MOL   H165  387   0.514   2.984   3.000 -0.5025  0.1424  1.1838
    2MOL   H166  388   0.629   2.853   3.055 -3.7194 -3.5096  1.0918
    2MOL   C167  389   0.320   2.701   3.107 -0.6428 -0.1913 -0.1539
    2MOL   C168  390   0.280   2.548   3.115 -0.5335  0.1093  0.1614
    2MOL   C169  391   0.401   2.450   3.103  0.2240 -0.2352 -0.0027
    2MOL   O170  392   0.503   2.473   3.040 -0.1769  0.3921  0.1134
    2MOL   C171  393   0.380   2.319   3.177  0.3537  0.0174 -0.1381
    2MOL   H172  394   0.236   2.765   3.133 -2.3448 -2.1043 -0.9044
    2MOL   H173  395   0.350   2.737   3.009  0.5397  0.6137  0.4792
    2MOL   H174  396   0.237   2.543   3.215 -0.2586  1.4945  0.3700
    2MOL   H175  397   0.397   2.240   3.103 -1.2081  1.9311 -2.6251
    2MOL   H176  398   0.282   2.310   3.223  0.6959 -0.9650  0.4173
    2MOL   H177  399   0.450   2.295   3.256 -0.7225 -0.7228  0.6055
    2MOL   C178  400   0.170   2.521   3.020  0.1500  0.1959 -0.1103
    2MOL   C179  401   0.025   2.522   3.082 -0.5433  0.1811 -0.3423
    2MOL   C180  402   0.022   2.393   3.173  0.8048 -0.1142  0.0592
    2MOL   O181  403   0.018   2.405   3.293 -0.2952  0.2957  0.6366
    2MOL   C182  404   0.015   2.253   3.111  0.0477  0.1027  0.0011
    2MOL   H183  405   0.176   2.591   2.937 -0.3415  2.2314  1.5152
    2MOL   H184  406   0.193   2.425   2.975 -1.0834 -0.5557  0.8276
    2MOL   H185  407   0.015   2.615   3.138 -1.4123  0.6455 -1.2374
    2MOL   H186  408   0.026   2.267   3.003 -1.0204 -1.8925 -0.3939
    2MOL   H187  409   7.782   2.192   3.117  0.1148  0.2432  3.0712
    2MOL   H188  410   0.104   2.196   3.137  1.4356  2.6899  1.1012
    2MOL   C189  411   7.779   2.512   2.967  0.7690  0.5369  0.0270
    2MOL   C190  412   7.696   2.640   2.942 -0.2988  0.7185 -0.5215
    2MOL   C191  413   7.783   2.771   2.926  0.0259  0.5750  0.2407
    2MOL   O192  414   7.801   2.847   3.018 -0.3615  0.2823  0.2058
    2MOL   C193  415   0.008   2.782   2.802  0.1288  0.4501 -0.2574
    2MOL   H194  416   7.833   2.489   2.875  0.5727  1.5575 -0.3546
    2MOL   H195  417   7.711   2.428   2.973  1.6219 -0.2984 -1.7638
    2MOL   H196  418   7.642   2.663   3.034 -0.1552 -1.3714  0.1218
    2MOL   H197  419   0.055   2.692   2.762 -0.6347  0.7232 -1.8056
    2MOL   H198  420   7.823   2.853   2.731 -0.1260  0.8896  0.3296
    2MOL   H199  421   0.102   2.833   2.824  0.3326 -0.3515  0.7703
    2MOL   C200  422   7.586   2.632   2.836 -0.6661  0.3536 -0.5445
    2MOL   C201  423   7.478   2.761   2.829  0.1563  0.5091  0.3574
    2MOL   C202  424   7.344   2.702   2.876 -0.7389 -0.4128 -0.2816
    2MOL   O203  425   7.252   2.685   2.802  0.2809  0.6395 -0.2779
    2MOL   C204  426   7.338   2.681   3.029  0.4657 -0.0979 -0.4093
    2MOL   H205  427   7.629   2.625   2.736  0.9282  0.4816  0.1331
    2MOL   H206  428   7.534   2.538   2.854 -1.2674  1.2274  2.4978
    2MOL   H207  429   7.513   2.836   2.900  1.2113  0.5819 -0.2403
    2MOL   H208  430   7.410   2.601   3.046  1.3216  0.4165 -1.5803
    2MOL   H209  431   7.350   2.771   3.089 -0.1017 -1.5824  2.0287
    2MOL   H210  432   7.238   2.646   3.057 -0.0738  1.3404 -0.4878
    2MOL   C211  433   7.459   2.824   2.689 -0.8349  0.2125 -0.2968
    2MOL   C212  434   7.359   2.938   2.672 -0.0620 -0.2939  0.2727
    2MOL   C213  435   7.384   3.051   2.770  0.0666  0.2299  0.0891
    2MOL   O214  436   7.301   3.083   2.850  0.1392 -0.4572 -0.2346
    2MOL   C215  437   7.513   3.131   2.749  0.4342 -0.1444 -0.4266
    2MOL   H216  438   7.556   2.854   2.649 -0.2917  0.2575  1.0301
    2MOL   H217  439   7.428   2.735   2.634 -0.6120 -1.1868  1.7641
    2MOL   H218  440   7.258   2.898   2.683 -0.0178 -0.5797 -0.3218
    2MOL   H219  441   7.596   3.101   2.814  1.0049 -0.9887 -1.5155
    2MOL   H220  442   7.550   3.123   2.647 -0.2496 -0.7573 -0.6288
    2MOL   H221  443   7.482   3.233   2.771  0.6391 -0.2699  0.4895
    2MOL   H222  444   7.363   2.976   2.570 -3.8907 -1.7337 -0.5191
    3MOL     C1  445   2.548   6.457   7.851  0.2608  0.0585  0.4422
    3MOL     C2  446   2.467   6.524   7.740 -0.3981 -0.2809 -0.2348
    3MOL     C3  447   2.535   6.481   7.599 -0.4033  0.1220 -1.0967
    3MOL     O4  448   2.482   6.396   7.526 -0.5156  0.5000 -0.5571
    3MOL     C5  449   2.674   6.529   7.556 -0.6417  0.0987 -0.0868
    3MOL     H6  450   2.540   6.507   0.090 -1.3299  1.4475 -0.3734
    3MOL     H7  451   2.656   6.452   7.842  0.1378 -3.7090  0.4723
    3MOL     H8  452   2.488   6.631   7.738 -2.2828  0.1678  1.8868
    3MOL     H9  453   2.696   6.496   7.454 -2.1716 -5.5944  1.2340
    3MOL    H10  454   2.680   6.638   7.550  0.3053  0.1597  1.6564
    3MOL    H11  455   2.751   6.498   7.626  0.5883 -1.2465 -1.9964
    3MOL    H12  456   2.509   6.356   0.002  0.1440 -0.0022 -0.7959
    3MOL    C13  457   2.319   6.500   7.763  0.4373  0.1661  0.3765
    3MOL    C14  458   2.215   6.579   7.680  0.2372  0.4702  0.0982
    3MOL    C15  459   2.093   6.612   7.767  0.3606 -0.4269  0.1912
    3MOL    O16  460   2.036   6.724   7.762 -0.1004  0.4125  0.3208
    3MOL    C17  461   2.025   6.498   7.847 -0.2946 -0.0882 -0.0697
    3MOL    H18  462   2.304   6.393   7.775  1.8802  0.0276  1.1846
    3MOL    H19  463   2.301   6.526   0.009 -4.4063 -0.0158 -0.3162
    3MOL    H20  464   2.250   6.677   7.649 -2.6827  1.2772 -0.7741
    3MOL    H21  465   2.004   6.423   7.771  1.8551 -0.8763  0.0764
    3MOL    H22  466   2.104   6.461   0.054 -2.4708 -2.1667  1.5158
    3MOL    H23  467   1.940   6.526   0.052 -0.3250 -0.3582  0.0115
    3MOL    C24  468   2.184   6.482   7.558 -0.0643  0.6820  0.3358
    3MOL    C25  469   2.080   6.545   7.461 -0.2213 -0.7757 -0.5667
    3MOL    C26  470   2.149   6.665   7.403 -0.5140 -0.1449  0.2431
    3MOL    O27  471   2.240   6.654   7.317  0.2101 -0.8433  0.0872
    3MOL    C28  472   2.101   6.807   7.432 -0.3708  0.0096  0.6892
    3MOL    H29  473   2.277   6.452   7.510 -0.4675  0.5721 -0.3841
    3MOL    H30  474   2.148   6.384   7.590 -1.7883  1.5963  1.2580
    3MOL    H31  475   1.993   6.578   7.517 -1.4076 -0.2310 -2.6723
    3MOL    H32  476   2.036   6.835   7.350 -1.0868  0.3374  1.3566
    3MOL    H33  477   2.048   6.816   7.527 -0.0087  1.0186  0.8058
    3MOL    H34  478   2.185   6.877   7.431  1.1628 -1.8267 -0.1644
    3MOL    C35  479   2.035   6.444   7.352  0.9290  0.2449 -0.9031
    3MOL    C36  480   1.917   6.493   7.259  0.1289  0.1896  0.3710
    3MOL    C37  481   1.967   6.586   7.140 -0.0272 -0.7186 -0.2281
    3MOL    O38  482   1.932   6.703   7.141  0.1444 -0.3061  0.0760
    3MOL    C39  483   2.064   6.540   7.034 -0.1042 -0.5809  0.3230
    3MOL    H40  484   2.002   6.354   7.404  3.0295  0.1472  0.3279
    3MOL    H41  485   2.109   6.412   7.280  0.4657 -1.2342 -0.7367
    3MOL    H42  486   1.854   6.563   7.313 -1.4196  0.9753 -2.3411
    3MOL    H43  487   2.048   6.435   7.009 -0.9529 -0.6328  1.0615
    3MOL    H44  488   2.168   6.540   7.067  0.2042  2.4349 -0.5251
    3MOL    H45  489   2.052   6.597   6.942 -1.4948 -0.1572  0.7661
    3MOL    C46  490   1.819   6.381   7.204  0.0274 -0.1404  0.4631
    3MOL    C47  491   1.685   6.433   7.134 -0.2332  0.6265 -0.0662
    3MOL    C48  492   1.639   6.340   7.016 -0.4427 -0.1659 -0.0879
    3MOL    O49  493   1.614   6.390   6.904  0.7714  0.7931 -0.9620
    3MOL    C50  494   1.622   6.191   7.033  0.2951  0.0576 -0.2574
    3MOL    H51  495   1.805   6.312   7.288  0.3248 -1.0651 -0.2419
    3MOL    H52  496   1.877   6.314   7.141  0.1896  0.1293  0.3242
    3MOL    H53  497   1.725   6.529   7.098  0.7231  1.4942  3.1241
    3MOL    H54  498   1.517   6.165   7.024 -0.2471  0.7872  3.0727
    3MOL    H55  499   1.694   6.139   6.971  0.5420  0.4989 -0.3450
    3MOL    H56  500   1.665   6.170   7.131 -1.7168 -1.1776  0.3905
    3MOL    C57  501   1.565   6.464   7.226  0.7666  0.7798 -0.8584
    3MOL    C58  502   1.439   6.541   7.167 -0.1341 -0.7835 -0.3848
    3MOL    C59  503   1.314   6.487   7.242  0.5570 -0.2535  0.3157
    3MOL    O60  504   1.309   6.481   7.363  0.3088  0.4711 -0.7647
    3MOL    C61  505   1.201   6.441   7.147 -0.4099  0.3644 -0.8513
    3MOL    H62  506   1.593   6.521   7.315  1.4197 -2.2035  0.8972
    3MOL    H63  507   1.531   6.377   7.282  1.7599  1.4968  0.9076
    3MOL    H64  508   1.426   6.503   7.066  0.5648 -0.1013 -0.7389
    3MOL    H65  509   1.241   6.421   7.047  1.4557 -0.5719  0.0734
    3MOL    H66  510   1.154   6.354   7.192  1.2524  0.8757  1.9560
    3MOL    H67  511   1.125   6.514   7.119  0.4536  1.0764 -1.3684
    3MOL    C68  512   1.442   6.699   7.154 -0.0752 -0.1728 -0.7867
    3MOL    C69  513   1.419   6.748   7.011 -0.0512  0.3123  0.2859
    3MOL    C70  514   1.538   6.726   6.914 -0.0064  0.0112 -0.0250
    3MOL    O71  515   1.648   6.767   6.949  0.1296 -0.0938 -0.0383
    3MOL    C72  516   1.513   6.653   6.785  0.4651  0.1125  0.8861
    3MOL    H73  517   1.357   6.732   7.214 -0.6345 -0.9311 -1.1656
    3MOL    H74  518   1.535   6.739   7.196 -1.0970  1.2723  0.1518
    3MOL    H75  519   1.334   6.696   6.969 -0.6818 -0.4566  2.4167
    3MOL    H76  520   1.505   6.727   6.705  0.1055 -0.6868  0.1801
    3MOL    H77  521   1.591   6.591   6.739 -1.6735 -0.0238 -2.7923
    3MOL    H78  522   1.426   6.591   6.802 -0.6017  1.2282 -0.3768
    3MOL    C79  523   1.387   6.903   7.016 -0.9529 -0.1161 -0.0079
    3MOL    C80  524   1.361   6.968   6.881  0.7620  0.9755 -0.2204
    3MOL    C81  525   1.398   7.116   6.879  0.4141 -0.4535 -0.2023
    3MOL    O82  526   1.336   7.200   6.947 -0.0442 -0.1939 -0.2406
    3MOL    C83  527   1.510   7.158   6.780  0.2721  0.1015  0.4712
    3MOL    H84  528   1.469   6.954   7.068 -2.9277  2.0386  1.0671
    3MOL    H85  529   1.300   6.906   7.081 -0.8358 -0.6432  0.1755
    3MOL    H86  530   1.431   6.921   6.812  0.0333 -0.6914  0.1310
    3MOL    H87  531   1.481   7.132   6.678 -1.1893 -1.5828  1.3052
    3MOL    H88  532   1.613   7.130   6.800  0.8485  2.8421  1.5997
    3MOL    H89  533   1.488   7.265   6.786 -1.6382 -0.2681  0.3949
    3MOL    C90  534   1.220   6.942   6.823 -0.5414  0.0419 -0.0307
    3MOL    C91  535   1.197   6.977   6.676 -0.1650  0.3925  0.5204
    3MOL    C92  536   1.287   6.888   6.582 -0.0882 -1.1009 -0.6988
    3MOL    O93  537   1.291   6.762   6.602  0.3952 -0.2334 -0.2597
    3MOL    C94  538   1.359   6.955   6.470  0.0530  0.0067 -0.0522
    3MOL    H95  539   1.179   6.843   6.845  0.6266 -0.4879 -0.2259
    3MOL    H96  540   1.147   7.004   6.874  1.7089  1.7267  1.2164
    3MOL    H97  541   1.227   7.080   6.656 -0.8350  0.7057  1.0848
    3MOL    H98  542   1.361   7.063   6.481 -0.5959 -0.1489  1.8537
    3MOL    H99  543   1.456   6.906   6.463  0.1391 -0.0853  1.6035
    3MOL   H100  544   1.299   6.927   6.383 -3.8510  0.1815  2.4547
    3MOL   C101  545   1.048   6.967   6.620 -0.3383 -0.0287  0.2642
    3MOL   C102  546   0.967   7.088   6.663 -0.2837  0.4197 -0.3001
    3MOL   C103  547   0.828   7.072   6.608 -0.0907  0.5854  0.8240
    3MOL   O104  548   0.811   7.008   6.502  0.4541 -0.3905 -1.0169
    3MOL   C105  549   0.716   7.153   6.661  0.0806 -0.6071 -0.2540
    3MOL   H106  550   1.054   6.960   6.512  0.5929  1.4618  0.2060
    3MOL   H107  551   0.994   6.883   6.663 -0.3500  0.3863  1.0755
    3MOL   H108  552   0.941   7.079   6.768 -4.1009 -1.2865 -1.3097
    3MOL   H109  553   0.746   7.208   6.751 -0.1113  0.1069 -0.6207
    3MOL   H110  554   0.681   7.229   6.591  0.1230  1.2995  1.7271
    3MOL   H111  555   0.636   7.091   6.701 -1.9836  1.5648 -0.9378
    3MOL   C112  556   1.024   7.228   6.633  0.3227 -0.3887 -0.1839
    3MOL   C113  557   1.080   7.248   6.490 -0.2574  0.0893  1.2756
    3MOL   C114  558   1.202   7.340   6.504  0.9372  1.0462 -0.1390
    3MOL   O115  559   1.311   7.301   6.462 -0.0078  0.4277  0.2164
    3MOL   C116  560   1.192   7.460   6.591  0.1597 -0.1281  0.0878
    3MOL   H117  561   1.099   7.245   6.710  0.5465 -0.7093 -0.3278
    3MOL   H118  562   0.950   7.304   6.655  0.9868  0.4660 -0.8828
    3MOL   H119  563   1.131   7.156   6.460 -0.6465  0.4085 -0.4505
    3MOL   H120  564   1.246   7.546   6.552 -1.1772  0.4174 -0.5753
    3MOL   H121  565   1.088   7.487   6.608  0.1154 -0.7482  0.8507
    3MOL   H122  566   1.240   7.448   6.688  0.4428 -1.9091 -0.2501
    3MOL   C123  567   0.977   7.303   6.385  0.4803 -0.1719 -0.1207
    3MOL   C124  568   0.988   7.272   6.237  0.0420 -0.2304 -0.1176
    3MOL   C125  569   0.961   7.118   6.216 -0.9520  0.0925  0.4749
    3MOL   O126  570   1.051   7.035   6.228 -0.2341  0.2572 -0.2700
    3MOL   C127  571   0.821   7.071   6.180  0.9332 -0.3049  0.3114
    3MOL   H128  572   0.991   7.411   6.381 -0.7812  0.1464  2.6681
    3MOL   H129  573   0.873   7.288   6.412  0.9297  0.0945  1.8297
    3MOL   H130  574   0.906   7.321   6.184 -0.5282  1.0043  1.8538
    3MOL   H131  575   0.758   7.143   6.231  0.7802  1.7891 -2.6899
    3MOL   H132  576   0.801   6.968   6.209  0.7382 -0.2975  0.2049
    3MOL   H133  577   0.792   7.076   6.075  0.4210  0.2548  0.4739
    3MOL   C134  578   1.118   7.324   6.164  0.0411 -0.1783 -0.4639
    3MOL   C135  579   1.106   7.332   6.012  0.4593  0.8855 -0.7517
    3MOL   C136  580   1.049   7.467   5.970  0.3460  1.1895 -0.0397
    3MOL   O137  581   1.054   7.569   6.038 -0.4963 -0.1695  0.1586
    3MOL   C138  582   0.959   7.467   5.842  0.3647 -0.0161 -0.3495
    3MOL   H139  583   1.202   7.269   6.204 -0.2568  0.3329  0.9106
    3MOL   H140  584   1.129   7.423   6.209 -0.5435 -0.5825  0.5978
    3MOL   H141  585   1.041   7.247   5.993  0.9501  0.2899  0.1968
    3MOL   H142  586   0.873   7.401   5.843  1.6082 -1.6700  0.4272
    3MOL   H143  587   1.025   7.443   5.759  2.0547 -0.4713  1.0827
    3MOL   H144  588   0.922   7.569   5.838  0.1507 -0.0529  0.4935
    3MOL   C145  589   1.250   7.314   5.956  1.0846 -0.4757 -0.2355
    3MOL   C146  590   1.278   7.294   5.805 -0.5610  0.4637  0.2759
    3MOL   C147  591   1.428   7.317   5.775  0.0963  0.4052  0.3894
    3MOL   O148  592   1.513   7.245   5.819  0.4419  0.0578 -0.3113
    3MOL   C149  593   1.465   7.441   5.696 -0.0543 -0.4908  0.7335
    3MOL   H150  594   1.294   7.224   5.999  0.4273  0.3144  2.1346
    3MOL   H151  595   1.302   7.401   5.996 -0.4664  0.0838  0.5827
    3MOL   H152  596   1.219   7.362   5.743 -0.2010 -0.9720 -1.7237
    3MOL   H153  597   1.568   7.474   5.711 -0.2260  0.4976 -0.2004
    3MOL   H154  598   1.461   7.419   5.589  0.8424  1.9639  0.1649
    3MOL   H155  599   1.409   7.531   5.722  0.5775  0.4107 -0.9213
    3MOL   C156  600   1.235   7.155   5.759  0.5344 -0.7819  0.6495
    3MOL   C157  601   1.221   7.139   5.604  0.0446  0.0112 -0.0441
    3MOL   C158  602   1.095   7.216   5.560  0.0460 -0.4099 -0.0815
    3MOL   O159  603   0.985   7.218   5.622 -0.3112 -0.4982  0.3514
    3MOL   C160  604   1.106   7.302   5.442 -0.1113  0.8817 -0.1001
    3MOL   H161  605   1.292   7.078   5.811  1.4999 -0.5803 -0.0919
    3MOL   H162  606   1.135   7.132   5.797  0.2367  0.6044  0.7232
    3MOL   H163  607   1.315   7.176   5.564  0.3094  1.0366  1.4755
    3MOL   H164  608   1.040   7.259   5.366  0.5026 -1.4747  0.6788
    3MOL   H165  609   1.201   7.325   5.395 -0.9089  1.7546 -1.3476
    3MOL   H166  610   1.062   7.400   5.460  0.1145  0.9136  0.2736
    3MOL   C167  611   1.218   6.991   5.562  0.4318  0.0690  0.7059
    3MOL   C168  612   1.328   6.899   5.619 -0.9010  0.6262  0.1095
    3MOL   C169  613   1.474   6.922   5.580 -0.0949  0.6576  0.8552
    3MOL   O170  614   1.563   6.913   5.666  0.5542 -0.0109  0.4610
    3MOL   C171  615   1.509   6.926   5.428  0.0158 -0.3246  0.4618
    3MOL   H172  616   1.120   6.958   5.598 -0.5227  2.3095  0.2823
    3MOL   H173  617   1.206   6.990   5.454  2.8963  2.6401  0.3692
    3MOL   H174  618   1.326   6.910   5.727  0.4512  0.6049  0.1481
    3MOL   H175  619   1.457   6.841   5.384 -0.6474 -0.0786  0.7670
    3MOL   H176  620   1.616   6.927   5.404  0.0196 -0.3020  0.4802
    3MOL   H177  621   1.479   7.019   5.381  1.8112  0.4709  0.8329
    3MOL   C178  622   1.294   6.751   5.608  0.2427 -0.0574  0.1403
    3MOL   C179  623   1.334   6.668   5.731 -0.6095 -0.8601 -0.2470
    3MOL   C180  624   1.388   6.529   5.692  0.4234  0.0537  0.9968
    3MOL   O181  625   1.312   6.435   5.652 -0.1838 -0.0885  0.0829
    3MOL   C182  626   1.539   6.509   5.709  0.2330  0.1751 -0.2822
    3MOL   H183  627   1.190   6.726   5.588  1.6808 -4.4795 -2.5168
    3MOL   H184  628   1.332   6.706   5.516  0.4479 -0.5771  0.4834
    3MOL   H185  629   1.427   6.715   5.765  0.2935 -2.3730 -0.5940
    3MOL   H186  630   1.571   6.407   5.731  0.4269  0.2787 -0.0811
    3MOL   H187  631   1.588   6.582   5.774  0.0072  1.7995 -1.9075
    3MOL   H188  632   1.590   6.528   5.615 -0.5780 -0.3023 -0.8230
    3MOL   C189  633   1.229   6.666   5.843  0.2553 -0.7943 -0.3586
    3MOL   C190  634   1.280   6.617   5.981 -0.0790 -0.0164  0.7539
    3MOL   C191  635   1.419   6.671   6.025  0.8278 -1.2622  0.5651
    3MOL   O192  636   1.523   6.603   6.026 -0.4968  0.7422  0.2049
    3MOL   C193  637   1.431   6.825   6.045  0.1303  0.8832 -0.8585
    3MOL   H194  638   1.200   6.770   5.852 -0.3308 -0.9206 -0.7835
    3MOL   H195  639   1.148   6.609   5.797 -1.0896  1.8856 -1.4129
    3MOL   H196  640   1.292   6.509   5.983 -2.2146 -0.2561  1.6858
    3MOL   H197  641   1.356   6.882   5.990 -0.1006  1.1393 -0.2841
    3MOL   H198  642   1.412   6.852   6.149  0.3920  1.5765 -0.9898
    3MOL   H199  643   1.532   6.857   6.021  0.3450  2.1676  1.6133
    3MOL   C200  644   1.168   6.648   6.091  0.1717 -0.1923 -0.6339
    3MOL   C201  645   1.081   6.530   6.134  0.7332 -0.3869  0.4794
    3MOL   C202  646   0.957   6.577   6.207  0.7300 -0.1757  0.4519
    3MOL   O203  647   0.861   6.507   6.197  0.6564  0.3011  0.3706
    3MOL   C204  648   0.961   6.703   6.286  0.1631 -0.6124 -0.2313
    3MOL   H205  649   1.219   6.686   6.179  0.6667 -0.2425 -0.8953
    3MOL   H206  650   1.112   6.731   6.047  1.0186 -0.7309 -2.8256
    3MOL   H207  651   1.043   6.497   6.037  0.6073  0.3432  0.2803
    3MOL   H208  652   0.882   6.774   6.262  1.0949 -0.0881 -1.7751
    3MOL   H209  653   0.932   6.694   6.391 -0.1311  0.7713 -0.1825
    3MOL   H210  654   1.054   6.759   6.277 -0.1620 -0.2826 -1.6065
    3MOL   C211  655   1.160   6.422   6.211 -0.2927 -0.4144  0.3711
    3MOL   C212  656   1.089   6.288   6.219 -0.3024 -0.3242  0.3328
    3MOL   C213  657   1.073   6.218   6.085 -0.4221  0.3061  0.2529
    3MOL   O214  658   1.081   6.267   5.973  0.6765  0.2655 -0.4132
    3MOL   C215  659   1.042   6.067   6.100  0.0320  0.0870  0.6337
    3MOL   H216  660   1.257   6.408   6.164 -0.4128 -1.1458  0.3276
    3MOL   H217  661   1.178   6.447   6.315 -1.5700  1.3213  0.1989
    3MOL   H218  662   0.989   6.300   6.260 -0.4679  0.3099 -0.2362
    3MOL   H219  663   1.082   6.007   6.018  1.4888  1.3137  0.4256
    3MOL   H220  664   1.100   6.025   6.182 -0.0962 -0.7816  0.2884
    3MOL   H221  665   0.938   6.049   6.129 -0.4290  1.8052  0.0720
    3MOL   H222  666   1.140   6.226   6.292 -0.5595 -0.4281  0.4253
    4MOL     C1  667   0.372   0.155   2.154 -0.0708  0.1139 -0.3969
    4MOL     C2  668   0.504   0.164   2.076  0.4764  0.0214  0.7355
    4MOL     C3  669   0.497   0.259   1.957 -0.3792  0.4543  0.0037
    4MOL     O4  670   0.526   0.380   1.972  0.3201  0.2574  0.5189
    4MOL     C5  671   0.457   0.201   1.824  0.0631 -0.1796 -0.3004
    4MOL     H6  672   0.341   0.249   2.198  1.6550 -0.3100  1.8445
    4MOL     H7  673   0.379   0.095   2.245  0.5741  0.0209 -0.4999
    4MOL     H8  674   0.539   0.067   2.040 -0.9086  0.7687 -2.7471
    4MOL     H9  675   0.503   0.107   1.797  1.8120  0.9574 -1.3516
    4MOL    H10  676   0.348   0.194   1.826 -0.0138  1.1056  2.6655
    4MOL    H11  677   0.485   0.281   1.756 -0.0418 -0.4513 -0.6604
    4MOL    H12  678   0.289   0.113   2.097  0.1830  1.1495 -1.5551
    4MOL    C13  679   0.612   0.202   2.175  0.0719 -0.4321  0.2637
    4MOL    C14  680   0.762   0.193   2.125 -0.0832  1.1164 -0.4699
    4MOL    C15  681   0.799   0.047   2.088 -0.7581 -0.9122 -0.2427
    4MOL    O16  682   0.776   7.814   2.166  0.0772  0.2700 -0.0877
    4MOL    C17  683   0.879   0.020   1.963 -0.0427  0.4636 -0.1182
    4MOL    H18  684   0.580   0.295   2.220  0.0226  0.1622 -0.9732
    4MOL    H19  685   0.622   0.135   2.260  0.6409  0.6677  1.0698
    4MOL    H20  686   0.773   0.254   2.035 -3.2452  0.1190 -1.6160
    4MOL    H21  687   0.914   0.109   1.912 -1.5390  0.6109 -0.9290
    4MOL    H22  688   0.960   7.806   1.981 -1.3457 -0.8532  0.6446
    4MOL    H23  689   0.825   7.840   1.876  1.0577  1.1466 -1.1114
    4MOL    C24  690   0.863   0.246   2.230 -0.0735 -0.2353 -0.1504
    4MOL    C25  691   0.994   0.299   2.164  0.1141  0.1222  0.6272
    4MOL    C26  692   0.972   0.433   2.086 -0.3839 -0.1600  0.0414
    4MOL    O27  693   0.964   0.429   1.963  0.3436  0.0658 -0.7905
    4MOL    C28  694   0.937   0.553   2.166  0.5663 -0.0130  0.1460
    4MOL    H29  695   0.824   0.318   2.302  0.0582 -0.3774  0.0616
    4MOL    H30  696   0.889   0.169   2.302  0.1662  1.5927  1.7509
    4MOL    H31  697   1.009   0.229   2.081 -1.1247  1.9613 -1.1966
    4MOL    H32  698   0.968   0.632   2.097  1.7115 -1.9265 -1.5755
    4MOL    H33  699   0.829   0.556   2.176  0.5361 -1.5596  0.3456
    4MOL    H34  700   0.989   0.565   2.262  0.1634 -1.9590  0.6366
    4MOL    C35  701   1.109   0.301   2.264 -0.2263 -0.0195 -0.4339
    4MOL    C36  702   1.249   0.289   2.203  0.1450 -0.4708  0.1614
    4MOL    C37  703   1.261   0.151   2.137 -0.2898 -0.2109  0.9437
    4MOL    O38  704   1.230   0.137   2.020 -0.0402 -0.0764  0.2713
    4MOL    C39  705   1.318   0.032   2.218  0.0772  0.1099  0.2012
    4MOL    H40  706   1.097   0.231   2.347  0.5695 -0.4359 -0.6714
    4MOL    H41  707   1.114   0.389   2.328  0.0891 -1.2872  1.3256
    4MOL    H42  708   1.316   0.292   2.289 -2.8223  0.2718  2.5295
    4MOL    H43  709   1.236   7.856   2.282 -1.3012  1.9020 -0.5648
    4MOL    H44  710   1.402   0.064   2.278 -0.6687 -0.4292  1.5531
    4MOL    H45  711   1.357   7.807   2.159 -0.1293 -0.4176  0.7984
    4MOL    C46  712   1.276   0.411   2.110  0.0150  0.1078 -0.8828
    4MOL    C47  713   1.415   0.426   2.056  0.1969 -0.0239  0.4454
    4MOL    C48  714   1.521   0.409   2.162  0.0043  0.1229 -0.0799
    4MOL    O49  715   1.566   0.302   2.197  0.0630 -0.3134  0.1706
    4MOL    C50  716   1.568   0.535   2.232 -0.1503 -0.3361 -0.1460
    4MOL    H51  717   1.264   0.507   2.161  0.9036 -1.1807  1.8357
    4MOL    H52  718   1.215   0.401   2.021  1.2618 -0.8907 -1.6463
    4MOL    H53  719   1.411   0.525   2.011  0.8480 -0.1398  0.1327
    4MOL    H54  720   1.536   0.628   2.184  0.9774  0.0885 -0.0796
    4MOL    H55  721   1.534   0.524   2.336 -0.2278  1.0647 -0.0111
    4MOL    H56  722   1.676   0.524   2.235 -0.3095 -1.8979  0.9610
    4MOL    C57  723   1.451   0.338   1.937  0.6734 -0.4478  0.4603
    4MOL    C58  724   1.570   0.395   1.847 -0.7383  0.4291  0.4158
    4MOL    C59  725   1.711   0.382   1.898 -0.6692 -0.2048  0.5380
    4MOL    O60  726   1.768   0.474   1.954 -0.2949  0.1258 -0.2634
    4MOL    C61  727   1.784   0.247   1.905 -0.5538  0.2378  0.3306
    4MOL    H62  728   1.363   0.340   1.872  1.0033  4.7836 -0.0416
    4MOL    H63  729   1.468   0.233   1.962 -1.2626 -0.9281 -0.0909
    4MOL    H64  730   1.546   0.501   1.840  1.3300  0.8659 -0.1813
    4MOL    H65  731   1.849   0.228   1.820  1.1143  0.2838  1.5662
    4MOL    H66  732   1.832   0.230   2.002  3.1926 -1.9113 -1.8095
    4MOL    H67  733   1.712   0.165   1.893  1.5858 -1.6951  0.3894
    4MOL    C68  734   1.552   0.366   1.693  0.8875 -0.2367  0.4185
    4MOL    C69  735   1.649   0.436   1.595  0.1742 -0.7467  0.2144
    4MOL    C70  736   1.639   0.594   1.602 -0.8124  1.9216  0.2502
    4MOL    O71  737   1.533   0.645   1.618  0.3616  0.0467  0.2578
    4MOL    C72  738   1.759   0.685   1.575  0.2796  0.7545  0.1321
    4MOL    H73  739   1.565   0.258   1.684 -2.4074 -0.6059 -0.5435
    4MOL    H74  740   1.451   0.395   1.666  0.8140 -0.7174  0.1850
    4MOL    H75  741   1.747   0.412   1.636  0.4325 -0.6464 -0.3433
    4MOL    H76  742   1.852   0.630   1.595  0.9327  0.2866 -3.6467
    4MOL    H77  743   1.766   0.732   1.477 -0.3307  2.5595  0.9442
    4MOL    H78  744   1.748   0.765   1.647 -2.7884  0.8616 -0.3843
    4MOL    C79  745   1.643   0.394   1.444  0.4877 -0.9650  0.1513
    4MOL    C80  746   1.502   0.419   1.378  0.3624  0.1211 -0.1957
    4MOL    C81  747   1.419   0.294   1.395  0.5194  0.1981 -0.2655
    4MOL    O82  748   1.454   0.181   1.359 -0.3461 -0.5243 -0.4188
    4MOL    C83  749   1.280   0.312   1.453  0.6667  0.3828 -0.5203
    4MOL    H84  750   1.681   0.293   1.439  0.4603 -1.0941  2.1025
    4MOL    H85  751   1.714   0.446   1.379 -0.6764  0.4241 -0.0445
    4MOL    H86  752   1.462   0.504   1.433 -1.0158 -0.6394 -0.0030
    4MOL    H87  753   1.208   0.273   1.382  1.8970 -1.1238 -0.9575
    4MOL    H88  754   1.265   0.411   1.498  0.2441 -0.1136  0.4543
    4MOL    H89  755   1.264   0.238   1.531  5.1387 -0.3746 -0.2046
    4MOL    C90  756   1.528   0.449   1.225 -0.0460 -0.0012 -0.7232
    4MOL    C91  757   1.395   0.498   1.157 -0.0702  0.3902 -0.2820
    4MOL    C92  758   1.390   0.654   1.186 -0.0330  0.5646 -0.0265
    4MOL    O93  759   1.490   0.718   1.231 -1.0578  0.2463  0.1000
    4MOL    C94  760   1.250   0.726   1.159 -0.0904  0.4085  0.6189
    4MOL    H95  761   1.609   0.521   1.213 -0.2655  0.3880  0.1108
    4MOL    H96  762   1.564   0.358   1.178  1.5230 -0.8029  1.9225
    4MOL    H97  763   1.308   0.450   1.200  0.6846 -2.6200 -1.9939
    4MOL    H98  764   1.168   0.654   1.161  0.3229 -0.0488  1.2520
    4MOL    H99  765   1.244   0.795   1.243  0.2936  0.9172  0.2321
    4MOL   H100  766   1.250   0.776   1.062  1.8401 -1.8900 -0.6204
    4MOL   C101  767   1.395   0.461   1.010  0.3975  0.1041 -0.2133
    4MOL   C102  768   1.274   0.502   0.924 -0.2580 -0.1101  0.4233
    4MOL   C103  769   1.133   0.456   0.973  0.5128  0.5102 -0.5615
    4MOL   O104  770   1.126   0.354   1.043 -0.1860  0.3439  0.2269
    4MOL   C105  771   1.005   0.537   0.927 -0.4495  0.0971 -0.2196
    4MOL   H106  772   1.479   0.514   0.966  0.1124  0.8410  0.1379
    4MOL   H107  773   1.403   0.354   0.987 -1.6301  0.4090 -2.5217
    4MOL   H108  774   1.264   0.610   0.913 -1.1363  0.0603  2.6560
    4MOL   H109  775   0.979   0.632   0.974 -2.7201 -0.6068 -0.0317
    4MOL   H110  776   1.023   0.561   0.823 -1.4632 -1.1129 -0.6834
    4MOL   H111  777   0.912   0.483   0.939 -0.3917  0.1294  0.4497
    4MOL   C112  778   1.300   0.462   0.778  0.0906 -0.3788  0.1751
    4MOL   C113  779   1.406   0.554   0.714 -0.2312  0.2083  0.9376
    4MOL   C114  780   1.348   0.634   0.594  0.3069  0.3814  0.0931
    4MOL   O115  781   1.384   0.616   0.479 -0.0161 -0.0863 -0.5966
    4MOL   C116  782   1.252   0.745   0.621  0.1968  0.0396 -0.9692
    4MOL   H117  783   1.206   0.472   0.725 -0.5720  3.9016  1.9743
    4MOL   H118  784   1.324   0.356   0.775 -0.2667 -0.4024 -2.2164
    4MOL   H119  785   1.426   0.622   0.797 -0.1328 -0.0536  1.1286
    4MOL   H120  786   1.166   0.711   0.678 -0.7480  3.6709 -0.1271
    4MOL   H121  787   1.292   0.830   0.676 -0.7200  0.6739 -1.2839
    4MOL   H122  788   1.213   0.775   0.524 -0.9669  0.2971 -0.4228
    4MOL   C123  789   1.537   0.476   0.682 -0.0252 -0.3742  0.0953
    4MOL   C124  790   1.679   0.544   0.684  0.3613  0.7350 -0.1295
    4MOL   C125  791   1.757   0.482   0.565  0.2945  0.0650  0.2521
    4MOL   O126  792   1.825   0.380   0.581 -0.2673  0.6619  0.5105
    4MOL   C127  793   1.730   0.549   0.428  0.4645 -0.4931  0.4540
    4MOL   H128  794   1.523   0.436   0.582  1.0004  0.4064 -0.3799
    4MOL   H129  795   1.541   0.379   0.732  3.0677 -0.8913 -1.0231
    4MOL   H130  796   1.658   0.648   0.659 -1.0573 -0.1878 -3.0970
    4MOL   H131  797   1.623   0.546   0.407  0.2411 -1.0249  1.6543
    4MOL   H132  798   1.782   0.502   0.345 -0.4480  1.1851 -1.1065
    4MOL   H133  799   1.760   0.653   0.439 -1.4031  0.1994 -0.6683
    4MOL   C134  800   1.732   0.528   0.825 -0.1272  0.3907 -0.5860
    4MOL   C135  801   1.862   0.582   0.882 -0.3092 -0.0784 -0.8445
    4MOL   C136  802   1.986   0.501   0.841  0.2390  0.1147  0.2575
    4MOL   O137  803   2.068   0.546   0.758 -0.3909  0.1940  0.1988
    4MOL   C138  804   2.001   0.362   0.886 -0.2218 -0.4326  0.4112
    4MOL   H139  805   1.735   0.420   0.840  1.2124  0.6712  1.4473
    4MOL   H140  806   1.666   0.566   0.904  1.9694 -0.3159  1.5626
    4MOL   H141  807   1.860   0.568   0.990 -0.0686  0.2831 -0.7954
    4MOL   H142  808   1.944   0.297   0.820  1.5991 -1.0705 -0.5532
    4MOL   H143  809   1.956   0.369   0.986 -1.5157 -1.4502 -0.0835
    4MOL   H144  810   2.101   0.324   0.905 -0.4027 -0.9573  0.3353
    4MOL   C145  811   1.875   0.735   0.857 -0.4072  0.1798 -0.0747
    4MOL   C146  812   1.791   0.824   0.953 -0.1882  0.0372 -0.3411
    4MOL   C147  813   1.876   0.889   1.068  0.1433  0.3912  0.5974
    4MOL   O148  814   1.986   0.947   1.052 -0.8386 -0.0633 -0.7074
    4MOL   C149  815   1.812   0.885   1.208  0.3742 -0.1412 -0.1054
    4MOL   H150  816   1.862   0.760   0.752  2.5043  0.9166 -0.2894
    4MOL   H151  817   1.978   0.766   0.871 -0.4142  0.6440 -1.0199
    4MOL   H152  818   1.720   0.766   1.011 -0.5002 -0.0610 -0.8167
    4MOL   H153  819   1.872   0.936   1.283 -1.1678  0.0888  0.9977
    4MOL   H154  820   1.714   0.931   1.216  0.3494  0.0825 -1.6376
    4MOL   H155  821   1.793   0.781   1.236 -2.9971  0.2771 -0.6213
    4MOL   C156  822   1.718   0.933   0.862 -0.0546 -0.9752 -0.3150
    4MOL   C157  823   1.620   1.033   0.927 -0.1917 -0.6339 -0.6175
    4MOL   C158  824   1.477   0.986   0.924 -0.2397  0.5245  0.7669
    4MOL   O159  825   1.452   0.871   0.886  0.4808 -0.4179  0.0992
    4MOL   C160  826   1.362   1.076   0.972 -0.9770 -0.0082  0.4040
    4MOL   H161  827   1.790   0.990   0.802  0.2635 -2.4038 -1.3182
    4MOL   H162  828   1.676   0.882   0.775 -0.4064 -1.4312  0.1238
    4MOL   H163  829   1.647   1.029   1.032  0.9621  0.3788 -0.8653
    4MOL   H164  830   1.272   1.020   0.994 -0.3975 -0.8459  0.6841
    4MOL   H165  831   1.349   1.158   0.901 -0.3092  0.3563  0.6950
    4MOL   H166  832   1.398   1.119   1.065 -4.0438  1.4194  0.9795
    4MOL   C167  833   1.647   1.182   0.879 -0.3111 -0.0958 -1.0188
    4MOL   C168  834   1.772   1.251   0.944 -0.7608 -0.8377 -0.5189
    4MOL   C169  835   1.754   1.289   1.093 -0.6654 -1.0719  0.0230
    4MOL   O170  836   1.640   1.298   1.147 -0.0992 -0.2193 -0.7317
    4MOL   C171  837   1.880   1.285   1.182 -0.3646 -0.5534  0.9989
    4MOL   H172  838   1.673   1.172   0.774 -1.2751  0.2558 -1.3026
    4MOL   H173  839   1.556   1.243   0.883 -1.7164 -2.1227 -1.1206
    4MOL   H174  840   1.857   1.183   0.948  0.0727  0.1413 -1.1867
    4MOL   H175  841   1.920   1.184   1.189  1.0046 -0.1372 -0.4356
    4MOL   H176  842   1.851   1.311   1.284  0.3571 -1.1020  1.3429
    4MOL   H177  843   1.948   1.364   1.148  0.6357 -1.3792  1.0689
    4MOL   C178  844   1.801   1.387   0.867 -0.4525 -0.9018 -0.1435
    4MOL   C179  845   1.899   1.384   0.743  0.5004 -0.0050 -0.4042
    4MOL   C180  846   2.028   1.312   0.781  0.2516  0.3384 -0.3663
    4MOL   O181  847   2.098   1.351   0.876 -0.3602  0.4749  0.2389
    4MOL   C182  848   2.074   1.184   0.705 -0.5304 -0.1591  0.6469
    4MOL   H183  849   1.709   1.428   0.825  0.3105 -0.2246 -1.1922
    4MOL   H184  850   1.827   1.468   0.934 -0.7354 -0.7747 -0.1860
    4MOL   H185  851   1.856   1.327   0.660 -0.1762  0.1932 -0.1901
    4MOL   H186  852   2.113   1.110   0.774  0.8476 -1.6281 -1.6380
    4MOL   H187  853   2.149   1.223   0.635  0.2104 -2.5566  0.0547
    4MOL   H188  854   1.988   1.150   0.647  0.4162 -1.9728  0.2781
    4MOL   C189  855   1.921   1.527   0.688 -0.1158  0.1605 -0.1185
    4MOL   C190  856   2.008   1.532   0.554  0.1493 -0.3455 -0.4557
    4MOL   C191  857   1.945   1.451   0.440 -0.8076  0.2297 -0.2766
    4MOL   O192  858   1.999   1.355   0.382 -0.3546 -0.3986 -0.2493
    4MOL   C193  859   1.800   1.485   0.402  0.0457  0.1364  0.3829
    4MOL   H194  860   1.824   1.575   0.683  0.6971  2.0430  1.3305
    4MOL   H195  861   1.988   1.581   0.755  0.0276  2.9933 -2.4575
    4MOL   H196  862   2.103   1.485   0.580 -0.4879 -1.7692 -0.6653
    4MOL   H197  863   1.733   1.497   0.487 -0.6471  3.4435 -0.5770
    4MOL   H198  864   1.801   1.580   0.349 -3.1623 -1.1232 -2.1169
    4MOL   H199  865   1.748   1.420   0.332  0.1134  1.2954 -0.7717
    4MOL   C200  866   2.045   1.669   0.513  0.5999 -0.2538 -0.4716
    4MOL   C201  867   2.112   1.690   0.369  0.3077 -0.9410  0.4207
    4MOL   C202  868   2.243   1.607   0.359  0.1637  0.2236  0.5003
    4MOL   O203  869   2.328   1.603   0.448  0.2998 -0.4743 -0.6377
    4MOL   C204  870   2.280   1.537   0.231 -0.5689 -0.3883 -0.6132
    4MOL   H205  871   1.951   1.723   0.503  0.4089 -0.8055 -1.7593
    4MOL   H206  872   2.122   1.695   0.585  0.4597  0.1101 -0.4493
    4MOL   H207  873   2.053   1.646   0.289  1.7398  0.2190 -1.3161
    4MOL   H208  874   2.371   1.476   0.231 -0.8803 -0.8591 -1.1251
    4MOL   H209  875   2.204   1.472   0.188  0.2351 -2.1917  0.6665
    4MOL   H210  876   2.298   1.610   0.152 -0.6932 -1.1248 -1.3212
    4MOL   C211  877   2.138   1.837   0.343  0.2759  0.1655 -0.4092
    4MOL   C212  878   2.213   1.853   0.214 -0.1289  0.2445  0.8131
    4MOL   C213  879   2.226   2.003   0.166 -0.2415  0.0378  0.1573
    4MOL   O214  880   2.225   2.095   0.245 -0.4833  0.0600 -0.1049
    4MOL   C215  881   2.237   2.035   0.018 -0.0044 -0.6343 -0.1120
    4MOL   H216  882   2.050   1.902   0.339 -0.4224 -0.8139 -1.4487
    4MOL   H217  883   2.190   1.878   0.429  0.7655  2.0081 -1.5438
    4MOL   H218  884   2.168   1.796   0.133  2.2047 -1.6805  0.8067
    4MOL   H219  885   2.195   2.131   7.845  1.9009  0.1697 -0.2649
    4MOL   H220  886   2.342   2.018   7.851  0.3126  0.8891  0.0837
    4MOL   H221  887   2.182   1.953   7.830 -0.3669 -0.3299 -0.2275
    4MOL   H222  888   2.317   1.820   0.221  0.8120  2.0736 -3.1184
    5MOL     C1  889   0.031   3.904   4.461  0.1871  0.4306  0.2779
    5MOL     C2  890   0.034   3.961   4.596  0.2558  0.2959  0.0624
    5MOL     C3  891   0.005   3.858   4.706  0.3924  0.0537 -0.8991
    5MOL     O4  892   0.100   3.798   4.761 -0.1608 -0.1969  0.4663
    5MOL     C5  893   7.719   3.853   4.752  0.6912  0.1721  0.3307
    5MOL     H6  894   0.062   3.971   4.381  1.6244 -0.4599  0.0804
    5MOL     H7  895   7.783   3.880   4.448  0.2252  0.2371  0.3303
    5MOL     H8  896   7.808   4.030   4.605  0.2622  0.0912  1.9238
    5MOL     H9  897   7.688   3.755   4.716 -1.2813  1.0392 -0.3669
    5MOL    H10  898   7.696   3.846   4.858  0.9174  1.1967  0.4507
    5MOL    H11  899   7.650   3.923   4.704 -0.1166  0.0345  1.2882
    5MOL    H12  900   0.079   3.807   4.464 -1.6812 -0.5114  1.0970
    5MOL    C13  901   0.156   4.049   4.619 -0.1084 -0.8921  0.1254
    5MOL    C14  902   0.165   4.138   4.738 -0.2590  0.3519 -0.1270
    5MOL    C15  903   0.053   4.247   4.736 -0.0361 -0.1063 -0.9326
    5MOL    O16  904   7.819   4.244   4.816  0.9792 -1.0145  0.8556
    5MOL    C17  905   0.063   4.362   4.626  0.0986 -0.0569 -0.1198
    5MOL    H18  906   0.244   3.985   4.625 -0.1754 -1.0507 -0.5675
    5MOL    H19  907   0.172   4.115   4.533 -1.5597  0.3943  0.8235
    5MOL    H20  908   0.150   4.071   4.822 -0.4854 -0.3145 -0.6967
    5MOL    H21  909   0.145   4.349   4.557  0.1470 -1.9815  0.2789
    5MOL    H22  910   7.833   4.363   4.561 -0.6573 -0.7667  0.8580
    5MOL    H23  911   0.084   4.455   4.679 -1.9424  0.4284 -0.1078
    5MOL    C24  912   0.301   4.202   4.756 -0.3243 -0.1267 -0.3576
    5MOL    C25  913   0.311   4.314   4.865 -0.3763  0.0313 -0.6637
    5MOL    C26  914   0.286   4.263   5.008 -0.3228  0.2226 -0.3655
    5MOL    O27  915   0.203   4.317   5.081  0.1986 -0.2465  0.0548
    5MOL    C28  916   0.373   4.158   5.062  0.7110  0.1100  0.3657
    5MOL    H29  917   0.367   4.119   4.781  0.6340 -0.1529 -2.8336
    5MOL    H30  918   0.338   4.240   4.661 -0.9576  0.5368 -0.3416
    5MOL    H31  919   0.239   4.394   4.848  0.2425  0.5336 -0.9353
    5MOL    H32  920   0.331   4.115   5.153 -1.9251  1.4425 -0.1794
    5MOL    H33  921   0.384   4.085   4.982  0.7595  1.3923 -0.8233
    5MOL    H34  922   0.476   4.187   5.082  0.9526  0.4838 -1.3856
    5MOL    C35  923   0.450   4.383   4.855 -0.1566  0.5203 -0.3582
    5MOL    C36  924   0.470   4.522   4.924 -0.0301  0.0100  0.0523
    5MOL    C37  925   0.554   4.514   5.052 -0.3858  0.2379 -0.0705
    5MOL    O38  926   0.628   4.420   5.089 -0.5384 -0.1746  0.2721
    5MOL    C39  927   0.544   4.624   5.152 -0.1973 -0.0711  0.2240
    5MOL    H40  928   0.471   4.398   4.749  2.0854 -2.0713 -0.3295
    5MOL    H41  929   0.539   4.325   4.877 -0.4237  1.1170  2.4192
    5MOL    H42  930   0.370   4.554   4.954  0.0987 -1.0241  1.6691
    5MOL    H43  931   0.636   4.613   5.209 -0.5710 -2.8370  0.3349
    5MOL    H44  932   0.471   4.601   5.230  0.7365  2.7773  2.0295
    5MOL    H45  933   0.534   4.722   5.105 -1.4759  0.1490  0.9166
    5MOL    C46  934   0.534   4.630   4.833 -0.6107 -0.4553 -0.0533
    5MOL    C47  935   0.687   4.628   4.786  0.4516 -0.2989 -0.2205
    5MOL    C48  936   0.723   4.498   4.714 -0.0403 -0.6634 -0.1376
    5MOL    O49  937   0.676   4.476   4.605  0.2154 -0.0638  0.0935
    5MOL    C50  938   0.828   4.410   4.781 -0.2947 -0.1703 -0.2582
    5MOL    H51  939   0.527   4.726   4.886 -0.5912  0.3014 -1.4078
    5MOL    H52  940   0.466   4.637   4.748 -0.8489 -3.4237 -0.1411
    5MOL    H53  941   0.743   4.635   4.879  0.9299  0.1103 -0.5384
    5MOL    H54  942   0.897   4.468   4.842 -2.2086 -0.1671  1.9835
    5MOL    H55  943   0.774   4.346   4.851 -2.5918  1.8975 -0.0582
    5MOL    H56  944   0.887   4.353   4.710 -0.8143 -1.2402  0.1551
    5MOL    C57  945   0.714   4.755   4.696 -0.7835 -0.1072  0.2122
    5MOL    C58  946   0.870   4.795   4.685  0.2965 -0.5289  0.1377
    5MOL    C59  947   0.874   4.917   4.582 -0.6066 -0.0113  0.3550
    5MOL    O60  948   0.911   5.030   4.625 -0.2408  0.2004  0.1124
    5MOL    C61  949   0.836   4.898   4.431 -0.3814 -0.2983 -0.5343
    5MOL    H62  950   0.674   4.839   4.752  1.8922  0.2449  1.6990
    5MOL    H63  951   0.658   4.752   4.603 -0.7022 -0.1973  0.1656
    5MOL    H64  952   0.928   4.721   4.629  0.3197 -0.3437 -0.0835
    5MOL    H65  953   0.805   4.794   4.423  2.5347 -1.1931 -0.8422
    5MOL    H66  954   0.760   4.964   4.390  0.0661 -0.0555 -0.9789
    5MOL    H67  955   0.920   4.912   4.363 -0.7873 -0.6744 -1.1169
    5MOL    C68  956   0.944   4.818   4.821 -0.5059  0.6248  0.5042
    5MOL    C69  957   1.098   4.846   4.809  0.4591 -0.2080 -0.0577
    5MOL    C70  958   1.175   4.743   4.724 -0.5040  0.1421  0.0566
    5MOL    O71  959   1.161   4.621   4.737 -0.1528 -0.4607  0.1528
    5MOL    C72  960   1.274   4.797   4.620  0.9068 -0.1595  0.6985
    5MOL    H73  961   0.903   4.906   4.872  1.3340  2.0710 -0.4221
    5MOL    H74  962   0.948   4.721   4.871  0.8375 -0.2673 -1.3053
    5MOL    H75  963   1.093   4.934   4.745 -0.4409 -0.3566 -0.2014
    5MOL    H76  964   1.365   4.823   4.674  0.7105 -0.1694  1.0355
    5MOL    H77  965   1.287   4.738   4.529 -2.3613  0.2566 -0.1038
    5MOL    H78  966   1.238   4.886   4.569  2.8569  0.2181 -0.0472
    5MOL    C79  967   1.185   4.877   4.933 -0.1354 -0.0632 -0.2055
    5MOL    C80  968   1.104   4.959   5.034  0.0714 -0.7219  0.0353
    5MOL    C81  969   1.195   5.055   5.106 -0.3877  0.4013 -0.3782
    5MOL    O82  970   1.226   5.031   5.225  0.3972  0.0994  0.4057
    5MOL    C83  971   1.241   5.189   5.040 -0.0088 -0.2004  0.3079
    5MOL    H84  972   1.279   4.925   4.905 -0.4522  0.1470 -0.9183
    5MOL    H85  973   1.223   4.788   4.983  0.6207 -0.2106 -1.0294
    5MOL    H86  974   1.030   5.023   4.985 -0.3811 -1.3208 -0.0733
    5MOL    H87  975   1.349   5.189   5.026  0.0659 -1.9143  0.7098
    5MOL    H88  976   1.208   5.271   5.103 -3.4645 -1.2023 -0.0953
    5MOL    H89  977   1.180   5.213   4.953  0.1609  0.1405  0.2810
    5MOL    C90  978   1.025   4.866   5.139 -0.0751 -1.3051 -0.1938
    5MOL    C91  979   0.937   4.932   5.247  0.4657 -0.8194 -0.4174
    5MOL    C92  980   0.829   5.020   5.173 -0.0576 -0.7896 -0.0160
    5MOL    O93  981   0.760   4.975   5.081 -0.0877 -0.1541  0.0935
    5MOL    C94  982   0.779   5.153   5.236  0.8609  0.1222 -0.3834
    5MOL    H95  983   0.954   4.799   5.090 -1.5765  0.4662 -0.5016
    5MOL    H96  984   1.095   4.798   5.186  0.7178 -0.8790 -0.7455
    5MOL    H97  985   0.997   5.006   5.301 -3.1746  0.3350  2.1996
    5MOL    H98  986   0.848   5.229   5.198  0.3164  0.0093 -1.6345
    5MOL    H99  987   0.679   5.191   5.215  1.6292  0.7818 -3.0540
    5MOL   H100  988   0.790   5.132   5.342 -1.0354 -0.8068 -0.3558
    5MOL   C101  989   0.871   4.829   5.340  0.3582  0.2122  0.0459
    5MOL   C102  990   0.774   4.869   5.450 -0.4507 -0.4130 -0.2877
    5MOL   C103  991   0.834   4.959   5.562 -0.3446  0.2428  0.4068
    5MOL   O104  992   0.924   4.923   5.629 -0.3828  0.4417  0.4500
    5MOL   C105  993   0.782   5.102   5.585 -0.0002  0.1429 -0.3266
    5MOL   H106  994   0.820   4.760   5.272  1.0612  0.4254 -0.7056
    5MOL   H107  995   0.955   4.781   5.390  1.2251  2.1859  0.5449
    5MOL   H108  996   0.690   4.926   5.410  0.3063  0.4030 -0.7231
    5MOL   H109  997   0.849   5.184   5.563 -2.2207  2.0918 -0.0173
    5MOL   H110  998   0.689   5.117   5.530 -0.1942  0.5051  0.0995
    5MOL   H111  999   0.754   5.103   5.690 -0.7093 -0.3501 -0.5044
    5MOL   C112 1000   0.703   4.750   5.519 -0.0550 -0.5483  0.6510
    5MOL   C113 1001   0.587   4.783   5.612 -0.5049 -0.8112  0.3161
    5MOL   C114 1002   0.555   4.659   5.698  0.1932  0.0258  0.5278
    5MOL   O115 1003   0.518   4.553   5.645  0.0810 -0.6752 -0.1383
    5MOL   C116 1004   0.567   4.660   5.847  0.2880  0.7613  0.6711
    5MOL   H117 1005   0.778   4.690   5.569  0.5793  0.7463  1.2771
    5MOL   H118 1006   0.664   4.691   5.437  1.2520  0.9592 -1.0893
    5MOL   H119 1007   0.624   4.856   5.684  0.3440  0.2965 -1.2145
    5MOL   H120 1008   0.635   4.742   5.870  0.0261  1.2040 -0.1212
    5MOL   H121 1009   0.469   4.682   5.889  0.0729 -1.8239  1.6332
    5MOL   H122 1010   0.615   4.567   5.878 -0.7180  0.8204  2.4819
    5MOL   C123 1011   0.457   4.824   5.531  0.6723 -0.0365 -0.1046
    5MOL   C124 1012   0.359   4.904   5.618  0.0337 -1.0739  0.1139
    5MOL   C125 1013   0.211   4.905   5.571  0.1957  0.6015 -0.1602
    5MOL   O126 1014   0.184   4.910   5.450 -0.2947 -0.2543  1.1283
    5MOL   C127 1015   0.102   4.897   5.678  0.4653 -0.2992 -0.1558
    5MOL   H128 1016   0.406   4.743   5.477  1.8332 -0.2226 -0.9395
    5MOL   H129 1017   0.475   4.886   5.444  0.4140 -0.7189 -0.6487
    5MOL   H130 1018   0.367   4.853   5.714  3.8164  0.4076  0.6420
    5MOL   H131 1019   0.155   4.908   5.773  0.2264  1.1381 -0.1766
    5MOL   H132 1020   0.053   4.801   5.665 -1.4184  0.4916  0.8474
    5MOL   H133 1021   0.026   4.975   5.666  2.4342  1.3928 -2.0703
    5MOL   C134 1022   0.417   5.055   5.627 -0.3560 -0.1220 -0.3069
    5MOL   C135 1023   0.341   5.147   5.730 -0.2436 -0.0186 -0.1426
    5MOL   C136 1024   0.330   5.100   5.875  0.3368  0.2202  0.4767
    5MOL   O137 1025   0.388   4.999   5.918 -0.4343 -0.2157  0.3251
    5MOL   C138 1026   0.248   5.188   5.975 -0.7717 -0.4164  0.3078
    5MOL   H139 1027   0.437   5.095   5.528  0.2806  0.3129 -0.0009
    5MOL   H140 1028   0.516   5.044   5.670 -1.4110 -0.4202  2.1450
    5MOL   H141 1029   0.237   5.136   5.697  0.0824 -1.9752 -0.6190
    5MOL   H142 1030   0.303   5.279   5.997 -0.7493 -0.1178 -0.9344
    5MOL   H143 1031   0.232   5.132   6.068 -0.3425  2.2930  2.0618
    5MOL   H144 1032   0.149   5.215   5.937 -1.8607  0.3018  3.4779
    5MOL   C145 1033   0.387   5.287   5.709  0.2035  0.2396 -0.7091
    5MOL   C146 1034   0.274   5.400   5.708 -0.1932  0.4300  0.0586
    5MOL   C147 1035   0.335   5.534   5.733 -0.6321  0.5428  0.0371
    5MOL   O148 1036   0.314   5.628   5.654 -0.1510 -0.2434  0.3598
    5MOL   C149 1037   0.434   5.534   5.849  0.1495 -1.0411 -0.3751
    5MOL   H150 1038   0.434   5.296   5.612  0.7919 -0.9795 -0.5465
    5MOL   H151 1039   0.467   5.299   5.782  2.3640  0.0653 -2.9834
    5MOL   H152 1040   0.205   5.377   5.789 -3.0367  0.8036 -2.1397
    5MOL   H153 1041   0.376   5.481   5.924 -0.9839  1.4124  0.5353
    5MOL   H154 1042   0.527   5.486   5.820  0.2901  0.6666 -2.8803
    5MOL   H155 1043   0.463   5.628   5.896 -0.5127 -0.9138 -0.2114
    5MOL   C156 1044   0.188   5.400   5.580  0.2537  0.8512  0.2115
    5MOL   C157 1045   0.053   5.483   5.579  0.2438 -0.0554 -0.0534
    5MOL   C158 1046   7.807   5.412   5.678  0.3020 -0.0557  0.6728
    5MOL   O159 1047   7.821   5.293   5.704  0.5402  0.0732 -0.1490
    5MOL   C160 1048   7.683   5.491   5.719  0.5305  0.3990 -0.7112
    5MOL   H161 1049   0.249   5.430   5.495  0.5822 -0.3190  0.0198
    5MOL   H162 1050   0.161   5.298   5.552  0.4217  1.3177 -1.7721
    5MOL   H163 1051   0.058   5.585   5.616  1.2265  0.4024 -1.4230
    5MOL   H164 1052   7.593   5.430   5.710  0.9497 -0.5943  1.3446
    5MOL   H165 1053   7.675   5.579   5.656 -0.6785 -1.3152 -3.0087
    5MOL   H166 1054   7.691   5.522   5.824 -3.4661  0.1730 -0.2940
    5MOL   C167 1055   7.838   5.479   5.442 -0.2276  0.1032  0.3359
    5MOL   C168 1056   0.043   5.576   5.338 -0.1352  1.0684 -0.5513
    5MOL   C169 1057   0.016   5.718   5.388 -0.8010 -0.2198  0.5581
    5MOL   O170 1058   7.760   5.755   5.421  0.1369 -0.1537  0.3006
    5MOL   C171 1059   0.130   5.814   5.402  0.1153 -0.2789 -0.5845
    5MOL   H172 1060   7.822   5.381   5.398  0.4827 -0.8286  2.0897
    5MOL   H173 1061   7.736   5.516   5.457 -0.0743  0.0576  1.5365
    5MOL   H174 1062   0.152   5.569   5.339 -0.2037 -0.4526 -1.4132
    5MOL   H175 1063   0.228   5.769   5.386 -0.0301 -1.5310  1.7941
    5MOL   H176 1064   0.131   5.871   5.495  0.3653  2.3695 -2.1593
    5MOL   H177 1065   0.121   5.898   5.333  2.1053 -0.6802 -1.3842
    5MOL   C178 1066   7.840   5.563   5.192  0.0861  0.1760  0.0723
    5MOL   C179 1067   0.071   5.624   5.078 -0.4966 -0.0203 -0.1218
    5MOL   C180 1068   7.852   5.638   4.944 -1.8095  0.0936 -0.0665
    5MOL   O181 1069   0.038   5.585   4.841  0.0887  0.4911 -0.2930
    5MOL   C182 1070   7.733   5.729   4.948  0.6631 -0.1157  0.8999
    5MOL   H183 1071   7.830   5.457   5.170  2.0718  0.3852 -2.1185
    5MOL   H184 1072   7.738   5.602   5.193 -0.3938 -1.0648  1.6075
    5MOL   H185 1073   0.094   5.727   5.104  1.5983  0.0097 -1.9690
    5MOL   H186 1074   7.738   5.810   5.021  0.3129  2.6953 -2.0903
    5MOL   H187 1075   7.651   5.667   4.984  1.4619 -0.8074  1.5593
    5MOL   H188 1076   7.709   5.773   4.851  1.9680 -0.4042  0.4399
    5MOL   C189 1077   0.208   5.538   5.070 -0.3732 -0.6517 -0.1198
    5MOL   C190 1078   0.333   5.627   5.064  0.0585  0.0499 -0.0038
    5MOL   C191 1079   0.459   5.546   5.110 -0.1772 -0.5231 -0.0641
    5MOL   O192 1080   0.542   5.515   5.030  0.3924 -0.0533 -0.4884
    5MOL   C193 1081   0.461   5.497   5.253 -0.6973 -0.6144 -0.2948
    5MOL   H194 1082   0.213   5.463   5.150 -1.9059  0.0061  0.6167
    5MOL   H195 1083   0.206   5.475   4.981  3.3069  1.1414 -1.5734
    5MOL   H196 1084   0.323   5.703   5.141  0.6543 -0.7436  0.8595
    5MOL   H197 1085   0.370   5.485   5.312  0.0176 -1.0315  0.7547
    5MOL   H198 1086   0.518   5.404   5.253  0.4615  0.0223  2.9595
    5MOL   H199 1087   0.520   5.569   5.311 -1.8807 -0.3313  0.5921
    5MOL   C200 1088   0.346   5.705   4.932  0.6354 -1.1529 -0.1662
    5MOL   C201 1089   0.467   5.800   4.904 -0.4478 -0.0035  0.0528
    5MOL   C202 1090   0.500   5.900   5.009  0.0768  0.3947 -0.6035
    5MOL   O203 1091   0.409   5.940   5.081  0.0379  0.0707  0.4308
    5MOL   C204 1092   0.640   5.966   5.003 -0.0931 -0.0314  0.9846
    5MOL   H205 1093   0.329   5.638   4.848 -1.8647 -1.3166  0.4167
    5MOL   H206 1094   0.255   5.766   4.924  1.7316  0.2523 -2.2027
    5MOL   H207 1095   0.560   5.744   4.892 -1.7189 -2.0513 -0.7284
    5MOL   H208 1096   0.698   5.896   4.943 -1.0671  0.0163 -0.0299
    5MOL   H209 1097   0.642   6.066   4.962  0.3218 -0.5858 -0.3664
    5MOL   H210 1098   0.688   5.973   5.101  1.5923  0.3124  0.1556
    5MOL   C211 1099   0.461   5.866   4.761 -0.0941  0.0756  1.1146
    5MOL   C212 1100   0.345   5.964   4.731 -0.8501 -0.4016  0.3932
    5MOL   C213 1101   0.372   6.054   4.604  0.2594  0.1085 -0.1868
    5MOL   O214 1102   0.489   6.089   4.584 -0.1456  0.5650  0.0609
    5MOL   C215 1103   0.253   6.108   4.525  0.7793  0.3602  0.9686
    5MOL   H216 1104   0.553   5.922   4.742 -1.4811  2.7861  2.1606
    5MOL   H217 1105   0.457   5.788   4.685  0.8137  2.0913 -1.0680
    5MOL   H218 1106   0.336   6.036   4.812 -3.2432 -0.0903 -0.1015
    5MOL   H219 1107   0.249   6.215   4.506 -1.1908 -0.0146 -0.9808
    5MOL   H220 1108   0.233   6.050   4.435 -0.9459  1.9966  0.2585
    5MOL   H221 1109   0.162   6.080   4.579 -0.2829 -0.5304 -1.2143
    5MOL   H222 1110   0.250   5.911   4.722 -2.5513  2.6378 -0.1522
    6MOL     C1 1111   7.232   4.679   7.795 -0.0590  0.4316 -0.0025
    6MOL     C2 1112   7.135   4.578   7.721 -0.2014 -0.0831  0.0784
    6MOL     C3 1113   6.999   4.583   7.790  0.3658  0.2071 -0.0915
    6MOL     O4 1114   6.900   4.609   7.719 -0.1873  0.1808  0.7228
    6MOL     C5 1115   6.992   4.554   0.078 -0.4675  0.1281 -0.6041
    6MOL     H6 1116   7.216   4.672   0.045 -2.9648  1.3300 -0.3328
    6MOL     H7 1117   7.214   4.781   7.761 -0.3156  0.4281  0.1256
    6MOL     H8 1118   7.172   4.480   7.750  0.0068  0.2370  0.9317
    6MOL     H9 1119   6.937   4.634   0.128  0.5770  1.7519 -2.0404
    6MOL    H10 1120   6.932   4.466   0.101 -0.2038  0.2985  0.8331
    6MOL    H11 1121   7.091   4.531   0.118 -0.1081  1.8309 -0.4736
    6MOL    H12 1122   7.337   4.658   7.773 -0.3621 -0.3516 -0.7185
    6MOL    C13 1123   7.140   4.604   7.572 -0.1064  0.2855 -0.6007
    6MOL    C14 1124   7.086   4.483   7.488  0.2441 -0.4892 -0.2775
    6MOL    C15 1125   7.167   4.352   7.518  0.3910 -0.8244 -0.0216
    6MOL    O16 1126   7.295   4.355   7.517 -0.4037 -0.2688  0.4627
    6MOL    C17 1127   7.087   4.223   7.539 -0.0968 -0.3067 -0.3132
    6MOL    H18 1128   7.087   4.697   7.551 -0.0407 -0.0559 -2.3532
    6MOL    H19 1129   7.244   4.615   7.543  0.3039 -1.7705  0.0355
    6MOL    H20 1130   6.983   4.463   7.519 -0.0673 -0.0898 -1.0322
    6MOL    H21 1131   7.131   4.182   7.630 -0.3045  1.4860  0.6163
    6MOL    H22 1132   6.982   4.244   7.556  0.1979  1.4844 -0.5965
    6MOL    H23 1133   7.113   4.158   7.455 -0.7481  1.7404 -2.1161
    6MOL    C24 1134   7.085   4.501   7.337 -0.5657 -0.2725 -0.2924
    6MOL    C25 1135   6.984   4.603   7.300  0.2428 -0.6412  0.0010
    6MOL    C26 1136   7.041   4.718   7.216  0.0989  0.1379 -0.1104
    6MOL    O27 1137   7.087   4.689   7.105 -0.5653  0.3713  0.6451
    6MOL    C28 1138   7.041   4.857   7.270  0.1781 -0.4493 -0.5616
    6MOL    H29 1139   7.175   4.540   7.289 -2.3381  2.4863 -1.5360
    6MOL    H30 1140   7.078   4.406   7.283  0.6659  0.8388 -2.4935
    6MOL    H31 1141   6.957   4.652   7.394  2.3880  0.9050 -0.1351
    6MOL    H32 1142   7.130   4.916   7.251  0.9204 -1.5057 -0.3740
    6MOL    H33 1143   6.951   4.913   7.243 -1.1042 -1.2704  1.8579
    6MOL    H34 1144   7.029   4.860   7.378 -0.9557 -0.5487 -0.6780
    6MOL    C35 1145   6.863   4.545   7.224  0.5735  0.0553 -0.3192
    6MOL    C36 1146   6.769   4.445   7.292  0.4455 -0.3516  0.4206
    6MOL    C37 1147   6.683   4.492   7.410 -0.5455 -0.0932  0.0030
    6MOL    O38 1148   6.626   4.600   7.411 -0.5550  0.1292  0.5058
    6MOL    C39 1149   6.680   4.401   7.529 -0.0887 -0.1903 -0.5231
    6MOL    H40 1150   6.889   4.499   7.129 -1.1148  0.1433 -0.8465
    6MOL    H41 1151   6.805   4.636   7.205 -0.7480 -0.2305  2.1156
    6MOL    H42 1152   6.827   4.364   7.336  1.0612  0.1644  0.5560
    6MOL    H43 1153   6.677   4.453   7.625 -2.5669  0.3718 -0.8692
    6MOL    H44 1154   6.754   4.320   7.526 -1.1115 -1.1567 -0.0744
    6MOL    H45 1155   6.588   4.347   7.509 -0.4855  0.8335 -1.4801
    6MOL    C46 1156   6.684   4.354   7.196  0.6579 -0.3769 -0.6233
    6MOL    C47 1157   6.748   4.255   7.093 -0.0325  0.1546 -0.6823
    6MOL    C48 1158   6.787   4.129   7.180 -0.2521  0.0227  0.2758
    6MOL    O49 1159   6.775   4.134   7.305  0.4506 -0.0787 -0.0624
    6MOL    C50 1160   6.864   4.026   7.105 -0.5521  0.2568  0.2549
    6MOL    H51 1161   6.631   4.431   7.141 -0.6972 -0.1144  0.9893
    6MOL    H52 1162   6.607   4.297   7.250 -0.1567 -1.3541 -2.7747
    6MOL    H53 1163   6.834   4.297   7.040  0.0260 -0.2017 -0.8698
    6MOL    H54 1164   6.861   4.056   7.000 -0.3306  2.0585  0.7568
    6MOL    H55 1165   6.968   4.026   7.136 -0.4250  2.2377 -0.1292
    6MOL    H56 1166   6.802   3.936   7.117  0.0173  0.0719  1.8037
    6MOL    C57 1167   6.648   4.217   6.983 -0.0251  0.0565 -0.3685
    6MOL    C58 1168   6.597   4.327   6.885  0.0758  0.4992  0.2032
    6MOL    C59 1169   6.711   4.416   6.828  0.2984  0.3911 -0.1323
    6MOL    O60 1170   6.812   4.358   6.783 -0.1122  0.1337  0.2471
    6MOL    C61 1171   6.698   4.568   6.811  0.0942 -0.0225  0.5370
    6MOL    H62 1172   6.566   4.161   7.028  1.6018 -2.1728 -0.1077
    6MOL    H63 1173   6.708   4.148   6.923  2.0257  0.2706  1.3736
    6MOL    H64 1174   6.530   4.400   6.931 -2.4525 -2.6189  1.6784
    6MOL    H65 1175   6.596   4.599   6.834  0.0813 -0.3866  0.9875
    6MOL    H66 1176   6.753   4.632   6.879 -1.5706 -1.2522  3.1475
    6MOL    H67 1177   6.725   4.600   6.710  0.8813  0.5503  0.9278
    6MOL    C68 1178   6.527   4.253   6.765 -0.4036 -0.2600  0.3748
    6MOL    C69 1179   6.435   4.346   6.677 -0.9911  0.6453 -0.0883
    6MOL    C70 1180   6.295   4.368   6.744  0.2212 -0.2233  0.3878
    6MOL    O71 1181   6.272   4.321   6.858 -0.1874  0.4118 -0.8901
    6MOL    C72 1182   6.184   4.442   6.669 -0.0796  0.0895 -0.4428
    6MOL    H73 1183   6.599   4.202   6.701  0.7734  2.8825 -0.9301
    6MOL    H74 1184   6.452   4.186   6.807  0.5501 -0.8233  1.1686
    6MOL    H75 1185   6.501   4.433   6.676 -0.3304  0.1477 -0.3886
    6MOL    H76 1186   6.198   4.550   6.665 -0.3824  0.1137 -0.8508
    6MOL    H77 1187   6.158   4.414   6.567  0.9625 -0.5594 -0.5446
    6MOL    H78 1188   6.094   4.420   6.727 -0.0361  0.2759 -0.3035
    6MOL    C79 1189   6.431   4.310   6.530  0.2117  0.2818  0.1212
    6MOL    C80 1190   6.352   4.180   6.493  0.7627  0.0288  0.4081
    6MOL    C81 1191   6.397   4.049   6.552  0.2183  0.0870 -0.3732
    6MOL    O82 1192   6.482   3.982   6.500 -0.2449  0.2560 -0.1567
    6MOL    C83 1193   6.319   3.988   6.668 -0.3496  0.6927  0.0270
    6MOL    H84 1194   6.529   4.296   6.484  0.7699 -1.3583  1.7296
    6MOL    H85 1195   6.392   4.401   6.485  0.9596  1.0692  1.0423
    6MOL    H86 1196   6.253   4.197   6.536  0.4189 -1.1715  0.1073
    6MOL    H87 1197   6.271   3.893   6.641  0.0641  0.7029 -0.7674
    6MOL    H88 1198   6.251   4.046   6.729 -0.5493 -0.0168  0.4845
    6MOL    H89 1199   6.401   3.968   6.736  0.0865  0.4875 -0.5571
    6MOL    C90 1200   6.329   4.164   6.342 -0.2110  0.3617 -0.2915
    6MOL    C91 1201   6.220   4.055   6.303 -0.5191 -0.1820 -0.0829
    6MOL    C92 1202   6.085   4.105   6.348  0.0164  0.4116  0.4225
    6MOL    O93 1203   6.034   4.213   6.316 -0.2191 -0.9144 -0.5208
    6MOL    C94 1204   6.001   4.012   6.437 -0.3134 -0.2230 -0.1678
    6MOL    H95 1205   6.313   4.265   6.304  1.1349  0.2809 -1.1073
    6MOL    H96 1206   6.427   4.132   6.305 -0.2535 -1.2907  0.9742
    6MOL    H97 1207   6.238   3.965   6.361 -1.2183  0.4147  1.0686
    6MOL    H98 1208   5.910   3.983   6.386  0.0437 -0.4671 -0.6748
    6MOL    H99 1209   6.061   3.923   6.454  1.1470  0.2935 -2.4345
    6MOL   H100 1210   5.970   4.070   6.524 -0.8738  0.6946 -0.9740
    6MOL   C101 1211   6.219   4.014   6.156  0.0308 -0.5021 -0.2737
    6MOL   C102 1212   6.256   3.866   6.129  0.1549  0.2935 -0.1650
    6MOL   C103 1213   6.133   3.777   6.154 -0.2912  0.2069 -1.3001
    6MOL   O104 1214   6.100   3.725   6.264 -0.2278 -0.4495 -0.4627
    6MOL   C105 1215   6.037   3.771   6.038 -0.0534 -0.4519  0.1927
    6MOL   H106 1216   6.124   4.035   6.108  2.0089  0.2318 -4.0244
    6MOL   H107 1217   6.295   4.075   6.108 -1.5997  1.5772 -0.3131
    6MOL   H108 1218   6.262   3.868   6.020  1.5203 -0.1612 -0.1070
    6MOL   H109 1219   6.046   3.853   5.967 -3.4766 -1.1643 -1.1355
    6MOL   H110 1220   6.037   3.683   5.974 -1.6820  0.5668 -1.2146
    6MOL   H111 1221   5.945   3.796   6.090 -0.4438  1.1214 -1.2095
    6MOL   C112 1222   6.388   3.819   6.195  0.1743  0.1614 -0.3397
    6MOL   C113 1223   6.459   3.690   6.143  0.1684 -0.2174  0.0819
    6MOL   C114 1224   6.569   3.637   6.238  0.2068  0.0158 -0.0937
    6MOL   O115 1225   6.681   3.672   6.233 -0.5860  0.3071 -0.2637
    6MOL   C116 1226   6.526   3.550   6.356 -0.3009 -0.8745  0.3152
    6MOL   H117 1227   6.358   3.800   6.298  0.6774  2.2313  0.1999
    6MOL   H118 1228   6.457   3.903   6.201  0.6193 -0.1303 -1.2113
    6MOL   H119 1229   6.396   3.601   6.143 -1.1544  0.7001 -0.8513
    6MOL   H120 1230   6.612   3.499   6.401  0.7530  0.7616  0.1980
    6MOL   H121 1231   6.488   3.620   6.430 -0.9895 -0.2540 -0.6228
    6MOL   H122 1232   6.441   3.487   6.328 -0.1481 -0.5342 -0.9495
    6MOL   C123 1233   6.509   3.714   6.000  0.2446 -0.3639 -0.3069
    6MOL   C124 1234   6.507   3.589   5.912  0.2937  0.0007  0.1756
    6MOL   C125 1235   6.638   3.568   5.828  0.4822 -0.8038 -0.1558
    6MOL   O126 1236   6.693   3.457   5.827  0.4139 -0.9590  0.2022
    6MOL   C127 1237   6.692   3.687   5.745 -0.2268 -0.1434 -0.1589
    6MOL   H128 1238   6.613   3.746   5.999 -0.0813  0.7615  1.1207
    6MOL   H129 1239   6.453   3.791   5.946  3.2047  0.7339 -1.9476
    6MOL   H130 1240   6.498   3.502   5.977  2.3377  0.7881  1.5616
    6MOL   H131 1241   6.736   3.647   5.654 -0.2990  0.2985 -0.3875
    6MOL   H132 1242   6.766   3.741   5.804 -1.9687  1.9636  0.1280
    6MOL   H133 1243   6.619   3.753   5.699  0.1690  0.3123 -0.1397
    6MOL   C134 1244   6.379   3.587   5.827  0.8176  0.4992 -0.2768
    6MOL   C135 1245   6.365   3.447   5.759  0.1007 -0.3883  0.1845
    6MOL   C136 1246   6.346   3.326   5.855 -0.1247  0.5202 -0.6013
    6MOL   O137 1247   6.271   3.332   5.951 -0.0891 -0.1553 -0.3960
    6MOL   C138 1248   6.421   3.192   5.828  0.1823  0.7990  0.1528
    6MOL   H139 1249   6.386   3.663   5.749  2.0619  1.5960  0.8717
    6MOL   H140 1250   6.287   3.609   5.881 -0.0841  2.3602 -2.4765
    6MOL   H141 1251   6.456   3.429   5.702 -0.4588  1.0171 -1.1989
    6MOL   H142 1252   6.355   3.108   5.851 -1.4983  2.1920  0.5306
    6MOL   H143 1253   6.514   3.175   5.883 -0.4732  0.4570  1.1694
    6MOL   H144 1254   6.452   3.195   5.724 -2.1400  0.7061 -0.5563
    6MOL   C145 1255   6.243   3.449   5.659  0.8173 -0.2771  0.5108
    6MOL   C146 1256   6.267   3.517   5.522 -0.7106  0.4162  0.1785
    6MOL   C147 1257   6.392   3.459   5.450 -0.0655 -0.2167 -0.1303
    6MOL   O148 1258   6.487   3.531   5.416 -0.2306 -0.6404  0.2676
    6MOL   C149 1259   6.400   3.305   5.425 -0.2184  0.5845 -0.0880
    6MOL   H150 1260   6.163   3.503   5.709  1.0604 -0.4838  1.1341
    6MOL   H151 1261   6.199   3.350   5.646  0.7931 -0.3365  1.0393
    6MOL   H152 1262   6.302   3.620   5.522  0.6625 -0.0354 -1.0132
    6MOL   H153 1263   6.466   3.259   5.498 -0.2290  1.3496  0.4047
    6MOL   H154 1264   6.304   3.254   5.430 -1.2070  2.3316 -0.6936
    6MOL   H155 1265   6.436   3.292   5.323 -0.0447 -1.1400  0.1797
    6MOL   C156 1266   6.141   3.502   5.435 -0.4120 -0.5168 -0.3263
    6MOL   C157 1267   6.133   3.575   5.295 -0.1669  0.1244  0.8213
    6MOL   C158 1268   6.136   3.729   5.314  0.2285  0.4197 -0.1288
    6MOL   O159 1269   6.033   3.783   5.352  0.0987 -0.2318 -0.6742
    6MOL   C160 1270   6.277   3.798   5.312 -0.6908  0.2957  0.1019
    6MOL   H161 1271   6.123   3.395   5.424 -1.5937 -0.7168  3.0388
    6MOL   H162 1272   6.060   3.538   5.499  0.4859  1.2409 -0.1488
    6MOL   H163 1273   6.229   3.558   5.248 -0.4347 -0.5944  0.5353
    6MOL   H164 1274   6.294   3.826   5.416 -1.9800 -1.3119  0.7694
    6MOL   H165 1275   6.265   3.889   5.253 -0.5351 -0.2985 -0.8412
    6MOL   H166 1276   6.350   3.723   5.282 -0.9912 -0.3503  0.9680
    6MOL   C167 1277   6.011   3.529   5.212 -0.2642  0.5785 -0.2430
    6MOL   C168 1278   6.004   3.594   5.071 -0.0377 -0.4654 -0.6559
    6MOL   C169 1279   5.861   3.601   5.016  0.1814  0.3024 -0.1931
    6MOL   O170 1280   5.798   3.496   4.984 -0.2099 -0.4118  0.4042
    6MOL   C171 1281   5.799   3.735   4.986 -0.3689  0.7359  0.1091
    6MOL   H172 1282   6.018   3.422   5.192 -0.7324  0.5447 -0.2339
    6MOL   H173 1283   5.921   3.557   5.269 -0.2469 -0.0199  0.0858
    6MOL   H174 1284   6.030   3.699   5.087 -0.6448 -0.5916  1.3378
    6MOL   H175 1285   5.872   3.814   4.967  0.6747  0.3204  2.2084
    6MOL   H176 1286   5.751   3.767   5.079  1.4850 -0.5884  1.5770
    6MOL   H177 1287   5.734   3.728   4.899 -1.0406 -1.5911  0.7785
    6MOL   C178 1288   6.105   3.522   4.974  0.6479 -0.2272  0.2391
    6MOL   C179 1289   6.101   3.575   4.830  0.1852  0.3586 -0.1850
    6MOL   C180 1290   6.166   3.487   4.732 -0.6277  0.2461  0.2261
    6MOL   O181 1291   6.275   3.510   4.676 -0.8550  0.2324  0.3185
    6MOL   C182 1292   6.097   3.358   4.704 -0.0101 -0.4112 -1.3269
    6MOL   H183 1293   6.201   3.553   5.014  0.0263  0.4082  1.2610
    6MOL   H184 1294   6.094   3.414   4.978  0.5832 -0.1932  1.0089
    6MOL   H185 1295   5.997   3.573   4.797  0.6985  0.2327 -1.8579
    6MOL   H186 1296   6.162   3.274   4.726  0.6464  0.6199  0.7718
    6MOL   H187 1297   6.068   3.358   4.599  2.9047  1.1011 -2.1865
    6MOL   H188 1298   6.019   3.343   4.778  0.1054 -1.3446 -1.3861
    6MOL   C189 1299   6.142   3.721   4.807 -0.2322  0.4331 -0.0765
    6MOL   C190 1300   6.111   3.782   4.665  0.3612 -0.0525 -0.4710
    6MOL   C191 1301   5.960   3.771   4.624  0.1103 -0.6541  0.7189
    6MOL   O192 1302   5.870   3.808   4.699  0.1208  0.1642 -0.2841
    6MOL   C193 1303   5.920   3.729   4.486  0.5143  0.6963  0.0510
    6MOL   H194 1304   6.092   3.778   4.884  1.8215  2.4338 -0.1618
    6MOL   H195 1305   6.248   3.738   4.825  0.2052  0.0554 -2.1298
    6MOL   H196 1306   6.171   3.721   4.598  2.5820  0.5032  0.9772
    6MOL   H197 1307   5.863   3.637   4.470 -0.6801  1.6743 -1.4310
    6MOL   H198 1308   5.863   3.808   4.438 -0.4175 -0.8767 -1.4711
    6MOL   H199 1309   6.005   3.715   4.419 -0.2545  0.9701 -0.9883
    6MOL   C200 1310   6.164   3.930   4.658 -0.0134 -0.2780 -0.2729
    6MOL   C201 1311   6.166   3.986   4.517  0.6012  0.0514 -0.4299
    6MOL   C202 1312   6.285   3.922   4.432  0.1806  0.0128 -0.0180
    6MOL   O203 1313   6.381   3.870   4.483 -0.0451  0.2039 -0.0443
    6MOL   C204 1314   6.264   3.916   4.280  0.3451  0.0243  0.7696
    6MOL   H205 1315   6.095   3.990   4.718  0.3913  0.1181 -0.2009
    6MOL   H206 1316   6.256   3.933   4.717  0.8098  0.6823 -1.5895
    6MOL   H207 1317   6.068   3.952   4.482  1.2518 -0.4958 -1.7370
    6MOL   H208 1318   6.291   3.820   4.237  0.9775  0.7129 -0.4121
    6MOL   H209 1319   6.160   3.927   4.250  0.8695  0.1914 -1.0715
    6MOL   H210 1320   6.342   3.973   4.230  1.7272 -2.7647 -0.3566
    6MOL   C211 1321   6.173   4.144   4.536 -0.0410  0.2185 -0.0169
    6MOL   C212 1322   6.160   4.224   4.403 -0.3239  0.1637 -0.2102
    6MOL   C213 1323   6.291   4.253   4.322  0.6009  0.1492 -0.7085
    6MOL   O214 1324   6.403   4.262   4.373 -0.1791 -0.0688 -0.2975
    6MOL   C215 1325   6.263   4.291   4.176  0.4650 -0.0299 -0.2348
    6MOL   H216 1326   6.098   4.177   4.608 -1.3722  0.4999 -1.4924
    6MOL   H217 1327   6.267   4.175   4.580  2.1001 -0.8885 -3.5890
    6MOL   H218 1328   6.125   4.325   4.422 -0.4882 -0.2039  1.4954
    6MOL   H219 1329   6.249   4.399   4.182  1.4549  0.0762  0.1998
    6MOL   H220 1330   6.349   4.271   4.111  0.4530 -0.5636 -0.0885
    6MOL   H221 1331   6.169   4.244   4.146 -0.7487  1.4243  1.2106
    6MOL   H222 1332   6.080   4.176   4.346 -0.2756 -3.7069  2.7451
    7MOL     C1 1333   4.126   0.616   2.825 -0.1284 -0.0089 -0.5302
    7MOL     C2 1334   4.071   0.761   2.824 -0.0413 -0.0544  0.1238
    7MOL     C3 1335   3.927   0.771   2.881  0.4704 -0.4113  0.5730
    7MOL     O4 1336   3.908   0.777   3.000  0.4539  0.0600  0.6232
    7MOL     C5 1337   3.804   0.754   2.791  0.1832 -0.8230 -0.5740
    7MOL     H6 1338   4.225   0.604   2.781 -0.6631  0.4094 -1.8610
    7MOL     H7 1339   4.058   0.542   2.782  0.9337 -1.9092  0.9492
    7MOL     H8 1340   4.063   0.792   2.720 -0.0559 -1.4742 -0.3074
    7MOL     H9 1341   3.715   0.774   2.851 -1.1376 -0.5116 -2.5744
    7MOL    H10 1342   3.805   0.819   2.703 -0.6795 -2.0197 -1.4912
    7MOL    H11 1343   3.804   0.648   2.768 -0.4379 -0.4626 -2.3862
    7MOL    H12 1344   4.115   0.577   2.926 -0.1156  0.3356 -0.3949
    7MOL    C13 1345   4.175   0.849   2.894  0.0734 -0.5326  0.1726
    7MOL    C14 1346   4.154   0.996   2.866 -1.1455 -0.7295 -0.6596
    7MOL    C15 1347   4.150   1.028   2.714  0.1484  0.5756 -0.4911
    7MOL    O16 1348   4.246   0.993   2.642  0.2704  0.2003  0.1336
    7MOL    C17 1349   4.035   1.112   2.654 -0.1203 -0.6749 -0.2597
    7MOL    H18 1350   4.177   0.822   3.000 -1.3525  2.1184  0.9225
    7MOL    H19 1351   4.273   0.821   2.855  0.5932  1.6881 -0.2353
    7MOL    H20 1352   4.060   1.027   2.912 -1.0746  0.3444 -1.2176
    7MOL    H21 1353   4.050   1.132   2.548 -1.3761  3.0620  0.2278
    7MOL    H22 1354   3.941   1.057   2.647 -0.2586 -0.7114  1.7055
    7MOL    H23 1355   4.003   1.199   2.711 -0.7227  0.3012 -2.0310
    7MOL    C24 1356   4.243   1.080   2.943 -0.2840 -0.2925 -0.1340
    7MOL    C25 1357   4.218   1.223   2.952  0.0221 -0.2214  0.3736
    7MOL    C26 1358   4.094   1.260   3.040 -0.2158 -0.4843 -0.1388
    7MOL    O27 1359   4.045   1.173   3.116  0.6786  0.2481  0.4686
    7MOL    C28 1360   4.056   1.404   3.057  0.3161 -0.3565  0.2020
    7MOL    H29 1361   4.267   1.030   3.036 -1.5594 -1.1876 -0.2761
    7MOL    H30 1362   4.338   1.084   2.890  0.6732  1.2240  1.6385
    7MOL    H31 1363   4.193   1.263   2.853  0.7252 -0.7085  0.0025
    7MOL    H32 1364   3.988   1.409   3.141 -0.9514 -0.8672 -0.7754
    7MOL    H33 1365   4.137   1.476   3.070  0.6036 -0.8839  1.3864
    7MOL    H34 1366   4.002   1.425   2.965  0.8072  1.5818  0.3452
    7MOL    C35 1367   4.340   1.299   2.998  0.2515  0.7323  0.4505
    7MOL    C36 1368   4.425   1.362   2.882  0.2404  0.2265 -0.0685
    7MOL    C37 1369   4.339   1.447   2.785 -0.1098  0.0725  0.2257
    7MOL    O38 1370   4.271   1.542   2.825  0.3050  0.3460  0.6082
    7MOL    C39 1371   4.341   1.404   2.637 -0.0206  0.3153 -0.1245
    7MOL    H40 1372   4.395   1.238   3.070  0.3303  0.2916  0.0116
    7MOL    H41 1373   4.307   1.374   3.071  0.0066  2.0457 -0.9839
    7MOL    H42 1374   4.477   1.278   2.836  0.9499 -0.2219  1.5078
    7MOL    H43 1375   4.379   1.303   2.625  1.3117  0.8141 -0.1179
    7MOL    H44 1376   4.416   1.471   2.596  1.6420 -0.3249  1.8295
    7MOL    H45 1377   4.246   1.406   2.582 -1.3587 -0.5238  2.0988
    7MOL    C46 1378   4.524   1.456   2.963 -0.1130 -0.5683 -0.3471
    7MOL    C47 1379   4.643   1.523   2.897 -0.5419  0.3949 -0.5641
    7MOL    C48 1380   4.718   1.431   2.798 -0.3644 -0.6075  0.0707
    7MOL    O49 1381   4.701   1.444   2.679  0.4628 -0.2903  0.0113
    7MOL    C50 1382   4.810   1.315   2.845 -0.9189  0.2780  0.4354
    7MOL    H51 1383   4.568   1.422   3.057  0.2188 -0.7948 -0.5851
    7MOL    H52 1384   4.458   1.534   3.001  0.5933 -0.7493  1.3053
    7MOL    H53 1385   4.711   1.543   2.979 -0.8007  1.6731 -0.6572
    7MOL    H54 1386   4.884   1.282   2.772  0.0512  1.5262  0.8398
    7MOL    H55 1387   4.872   1.345   2.929 -1.4953 -1.0990  1.3632
    7MOL    H56 1388   4.752   1.231   2.883  1.5886 -1.3800  0.6371
    7MOL    C57 1389   4.615   1.667   2.836 -0.9347 -0.1244  0.2227
    7MOL    C58 1390   4.734   1.739   2.772  0.4882 -0.2157  0.1308
    7MOL    C59 1391   4.687   1.879   2.726  0.5647  0.1622  1.1802
    7MOL    O60 1392   4.699   1.979   2.799 -0.2302  0.0577  0.1985
    7MOL    C61 1393   4.607   1.883   2.596  0.4648  0.2783  0.9064
    7MOL    H62 1394   4.560   1.731   2.904 -1.8084 -2.9963  2.3177
    7MOL    H63 1395   4.542   1.655   2.756 -0.1665  0.2154 -0.5399
    7MOL    H64 1396   4.771   1.686   2.685 -0.4351  2.7292 -2.1537
    7MOL    H65 1397   4.681   1.868   2.518 -0.7824  1.1760 -0.4617
    7MOL    H66 1398   4.534   1.802   2.595 -0.6877  1.3030 -0.4368
    7MOL    H67 1399   4.550   1.976   2.589 -0.3491 -0.2465  0.4676
    7MOL    C68 1400   4.847   1.758   2.883  0.0484 -0.2158  0.0125
    7MOL    C69 1401   4.988   1.810   2.833  0.3815 -0.4195 -0.9729
    7MOL    C70 1402   5.033   1.735   2.707 -0.7625  0.4720 -0.0190
    7MOL    O71 1403   5.083   1.627   2.710  0.7748  0.3235 -0.2758
    7MOL    C72 1404   5.009   1.800   2.577  0.1261 -0.1193 -0.3639
    7MOL    H73 1405   4.811   1.824   2.962 -0.6119  1.3497 -1.5429
    7MOL    H74 1406   4.877   1.663   2.925  0.3593 -0.0822  0.0953
    7MOL    H75 1407   4.974   1.915   2.807  0.2710 -0.0564  0.5177
    7MOL    H76 1408   4.935   1.879   2.591 -0.3516 -0.5965 -0.1892
    7MOL    H77 1409   5.099   1.857   2.555 -0.9001  1.7824  0.2192
    7MOL    H78 1410   4.978   1.739   2.493  0.9585 -1.1457  0.0518
    7MOL    C79 1411   5.092   1.814   2.940 -0.1255 -0.1174  0.7656
    7MOL    C80 1412   5.206   1.921   2.947  0.1845 -0.8714  0.5585
    7MOL    C81 1413   5.143   2.063   2.961  0.0227 -0.0128 -0.5760
    7MOL    O82 1414   5.128   2.139   2.868 -0.0289 -0.0098 -0.0711
    7MOL    C83 1415   5.110   2.113   3.103  0.6033  0.0728  0.3646
    7MOL    H84 1416   5.147   1.720   2.940  0.5582  0.2747 -0.3519
    7MOL    H85 1417   5.037   1.813   3.034  0.7169 -0.9936  1.2606
    7MOL    H86 1418   5.256   1.900   3.042  1.3914  0.8949  0.3295
    7MOL    H87 1419   5.141   2.049   3.187 -0.6634 -1.0527 -0.0148
    7MOL    H88 1420   5.004   2.136   3.107  0.4687 -0.3640 -0.5923
    7MOL    H89 1421   5.169   2.204   3.109 -1.8085  1.6282  1.2876
    7MOL    C90 1422   5.301   1.904   2.826 -1.1156 -0.0287  0.2436
    7MOL    C91 1423   5.416   1.998   2.806  0.3417 -0.0913 -0.2844
    7MOL    C92 1424   5.509   2.001   2.927  0.0834 -0.1769 -0.4764
    7MOL    O93 1425   5.612   1.938   2.928  0.8342  0.3130 -0.6629
    7MOL    C94 1426   5.473   2.090   3.043 -0.1595 -0.7647 -0.5738
    7MOL    H95 1427   5.344   1.805   2.812  1.1449  0.8569  0.6900
    7MOL    H96 1428   5.237   1.920   2.739 -1.6216 -1.2530  0.3849
    7MOL    H97 1429   5.372   2.098   2.806  0.8607  0.1661  2.4725
    7MOL    H98 1430   5.436   2.027   3.124  0.1940 -0.9541 -0.5589
    7MOL    H99 1431   5.570   2.123   3.080  0.1114  0.3747 -2.2648
    7MOL   H100 1432   5.404   2.172   3.024  0.8456 -0.4067 -2.7534
    7MOL   C101 1433   5.490   1.983   2.672 -0.3129  0.0932  0.3135
    7MOL   C102 1434   5.415   2.023   2.544  0.2075 -0.7294  0.0995
    7MOL   C103 1435   5.495   1.978   2.419  1.4963  0.2084 -0.1571
    7MOL   O104 1436   5.616   1.993   2.421  0.1024  0.0030 -0.2897
    7MOL   C105 1437   5.421   1.925   2.301 -0.2143 -0.6586  0.0740
    7MOL   H106 1438   5.578   2.046   2.682 -0.7246  0.6490  0.4866
    7MOL   H107 1439   5.524   1.879   2.665 -1.5748 -0.4855  2.4174
    7MOL   H108 1440   5.339   1.944   2.543  0.0436 -0.6443  2.5856
    7MOL   H109 1441   5.323   1.888   2.330 -0.2740  0.2151  1.0136
    7MOL   H110 1442   5.399   1.996   2.221 -2.1018 -1.2023  0.0753
    7MOL   H111 1443   5.468   1.833   2.265  1.9396 -0.1889  1.5817
    7MOL   C112 1444   5.363   2.169   2.545 -0.3587 -0.8689 -0.2744
    7MOL   C113 1445   5.254   2.213   2.444 -0.1850  0.1219  0.1453
    7MOL   C114 1446   5.258   2.364   2.405  0.2830 -0.3931 -0.1043
    7MOL   O115 1447   5.226   2.458   2.475 -0.3349  0.1131 -0.3848
    7MOL   C116 1448   5.322   2.387   2.268 -0.1592  0.0881 -0.2540
    7MOL   H117 1449   5.447   2.239   2.542 -0.3279 -0.9364 -1.2616
    7MOL   H118 1450   5.314   2.181   2.642  1.1866 -1.1719  0.5642
    7MOL   H119 1451   5.284   2.165   2.351  0.5145 -1.5547  1.2172
    7MOL   H120 1452   5.251   2.367   2.188 -0.3197 -0.7480  0.0991
    7MOL   H121 1453   5.332   2.495   2.256 -1.2697  0.1889 -0.3303
    7MOL   H122 1454   5.421   2.342   2.267  0.1256  0.7047 -1.7356
    7MOL   C123 1455   5.115   2.173   2.478 -0.0652  0.8027 -0.3954
    7MOL   C124 1456   5.016   2.159   2.356 -0.0178 -0.3391  0.2520
    7MOL   C125 1457   4.876   2.125   2.399 -0.5815 -0.1145 -0.6779
    7MOL   O126 1458   4.824   2.016   2.380 -0.1714  0.1659  0.0728
    7MOL   C127 1459   4.803   2.237   2.475  0.2920  0.0690 -0.4668
    7MOL   H128 1460   5.070   2.232   2.558  1.2807  1.6363 -0.2437
    7MOL   H129 1461   5.119   2.077   2.529 -0.4215  0.5277 -0.8765
    7MOL   H130 1462   5.010   2.255   2.305 -1.2967 -1.5284 -1.9002
    7MOL   H131 1463   4.775   2.199   2.573 -2.5631 -1.6981 -1.9019
    7MOL   H132 1464   4.712   2.259   2.418  0.2851 -1.0026 -0.8815
    7MOL   H133 1465   4.867   2.325   2.487 -1.7874  1.3715  1.7881
    7MOL   C134 1466   5.072   2.060   2.235 -0.9129  0.2687 -0.2850
    7MOL   C135 1467   4.980   2.039   2.113  0.2645  0.3604 -0.5854
    7MOL   C136 1468   4.966   2.166   2.018 -0.7345  0.2805 -0.3321
    7MOL   O137 1469   5.046   2.256   2.008  0.4792 -0.4356 -0.1930
    7MOL   C138 1470   4.839   2.167   1.930 -0.2563  0.5693  0.2682
    7MOL   H139 1471   5.096   1.962   2.277 -0.8546  1.0121  1.4857
    7MOL   H140 1472   5.166   2.100   2.198  0.2291 -0.9416  1.2394
    7MOL   H141 1473   4.880   2.018   2.152  0.7615 -0.6020  0.1985
    7MOL   H142 1474   4.744   2.203   1.969 -0.5399  0.5589 -0.3964
    7MOL   H143 1475   4.823   2.066   1.893  0.1238  0.7385 -0.3818
    7MOL   H144 1476   4.848   2.209   1.830 -1.1778  0.6225  0.2063
    7MOL   C145 1477   5.010   1.929   2.013 -0.2199 -0.2159  0.0537
    7MOL   C146 1478   4.971   1.785   2.063 -0.5765  0.4441 -0.3302
    7MOL   C147 1479   4.820   1.778   2.076  0.6863  0.3245 -0.4181
    7MOL   O148 1480   4.744   1.821   1.995  0.3363 -0.6840 -0.1974
    7MOL   C149 1481   4.767   1.718   2.204 -0.1107 -0.1126  0.2440
    7MOL   H150 1482   5.118   1.919   2.002 -0.1409  1.9794 -1.5812
    7MOL   H151 1483   4.978   1.948   1.911  0.8273  0.7379 -0.0971
    7MOL   H152 1484   5.025   1.774   2.157 -2.3176 -1.3357  0.5180
    7MOL   H153 1485   4.679   1.660   2.176 -0.7735  1.4398 -1.0012
    7MOL   H154 1486   4.835   1.643   2.244 -1.0133 -1.2629 -0.3360
    7MOL   H155 1487   4.752   1.792   2.282  2.2850  0.4467  0.2173
    7MOL   C156 1488   5.010   1.674   1.966  0.0196 -0.6225 -0.2151
    7MOL   C157 1489   5.133   1.600   2.014  0.0333  1.2483 -0.5397
    7MOL   C158 1490   5.123   1.529   2.154  1.0358 -0.4165  0.2152
    7MOL   O159 1491   5.115   1.598   2.253  0.0825  0.0941  0.0091
    7MOL   C160 1492   5.115   1.374   2.156  0.1293 -0.7912 -0.2789
    7MOL   H161 1493   4.929   1.604   1.943  0.5471 -0.9063 -1.2457
    7MOL   H162 1494   5.024   1.717   1.866 -0.2355  0.9335  0.4041
    7MOL   H163 1495   5.145   1.515   1.948 -4.2713  0.5696 -0.5768
    7MOL   H164 1496   5.016   1.333   2.175  0.9690 -1.8583  1.9259
    7MOL   H165 1497   5.175   1.324   2.232 -0.7780  0.4900  1.3123
    7MOL   H166 1498   5.150   1.334   2.061  0.9902  0.2112 -0.3982
    7MOL   C167 1499   5.268   1.682   2.003  0.0255  0.4903  0.0031
    7MOL   C168 1500   5.389   1.593   1.957 -1.0130  0.6929 -0.1523
    7MOL   C169 1501   5.460   1.529   2.069 -0.5582 -0.1278 -0.1200
    7MOL   O170 1502   5.494   1.593   2.171  0.4556 -0.3839 -0.0113
    7MOL   C171 1503   5.497   1.381   2.057  0.3561 -0.2530 -0.1238
    7MOL   H172 1504   5.246   1.756   1.926  1.8225  0.9753 -0.0746
    7MOL   H173 1505   5.295   1.744   2.089 -0.0492  0.3343  0.1395
    7MOL   H174 1506   5.353   1.507   1.902  0.2480 -1.8308  2.8443
    7MOL   H175 1507   5.458   1.336   1.965  1.8237  0.8443 -1.3128
    7MOL   H176 1508   5.462   1.330   2.147 -0.7223  1.7957  0.6649
    7MOL   H177 1509   5.604   1.361   2.059  0.3314 -0.8223 -2.5163
    7MOL   C178 1510   5.471   1.691   1.861 -0.3781 -0.4470  0.4424
    7MOL   C179 1511   5.615   1.649   1.815 -0.3234  0.4443 -0.8252
    7MOL   C180 1512   5.699   1.769   1.765 -0.1162  0.0331 -0.1771
    7MOL   O181 1513   5.652   1.866   1.707 -0.0683  0.0875  0.4018
    7MOL   C182 1514   5.850   1.766   1.786 -0.3266  0.4957  0.7380
    7MOL   H183 1515   5.409   1.705   1.773  2.1030 -0.6757 -1.4130
    7MOL   H184 1516   5.478   1.787   1.912 -1.3526  0.1299 -0.5034
    7MOL   H185 1517   5.668   1.614   1.903 -1.3444  2.1570  0.4898
    7MOL   H186 1518   5.900   1.783   1.690 -0.6198 -0.1215  0.4761
    7MOL   H187 1519   5.882   1.667   1.819  1.0380  0.3611 -0.8926
    7MOL   H188 1520   5.885   1.848   1.849 -0.0562  0.2282  0.9392
    7MOL   C189 1521   5.592   1.542   1.708 -0.0457  0.4096 -0.2605
    7MOL   C190 1522   5.717   1.453   1.666  0.3299  0.0303  0.3763
    7MOL   C191 1523   5.753   1.343   1.763  0.0468 -0.5660 -0.1115
    7MOL   O192 1524   5.666   1.267   1.807 -0.0239  0.2523  0.0584
    7MOL   C193 1525   5.904   1.328   1.789  0.2956  0.1448  0.4147
    7MOL   H194 1526   5.515   1.469   1.734  0.2783  0.5210  1.0356
    7MOL   H195 1527   5.557   1.590   1.617 -2.3692 -1.9429 -0.6718
    7MOL   H196 1528   5.800   1.524   1.662 -1.0556  1.7838  1.8290
    7MOL   H197 1529   5.954   1.266   1.715 -1.3534 -1.2632  0.4760
    7MOL   H198 1530   5.944   1.428   1.771  2.1166 -0.3755  1.4929
    7MOL   H199 1531   5.936   1.293   1.887 -1.2884 -0.0373  0.8741
    7MOL   C200 1532   5.694   1.396   1.523  0.4260 -0.3448  0.5600
    7MOL   C201 1533   5.813   1.322   1.456  0.0394  0.9326  0.2557
    7MOL   C202 1534   5.952   1.396   1.464 -0.2303  0.6774 -0.1940
    7MOL   O203 1535   5.964   1.517   1.473 -0.2598 -0.0987  0.1775
    7MOL   C204 1536   6.074   1.310   1.482 -0.0242  0.0802 -0.4439
    7MOL   H205 1537   5.607   1.340   1.489  0.9424 -1.9421  1.8369
    7MOL   H206 1538   5.671   1.490   1.471  0.6875 -0.5195  0.1233
    7MOL   H207 1539   5.817   1.222   1.500 -1.7566  1.8389  2.5523
    7MOL   H208 1540   6.041   1.206   1.474 -0.4811 -0.1490  3.3969
    7MOL   H209 1541   6.154   1.323   1.410 -1.1144  1.1248 -1.4744
    7MOL   H210 1542   6.121   1.336   1.577 -0.3099  0.7473 -0.4878
    7MOL   C211 1543   5.793   1.285   1.299  0.2905  0.6430 -0.6273
    7MOL   C212 1544   5.785   1.406   1.200 -0.7976 -0.5361 -0.2268
    7MOL   C213 1545   5.643   1.471   1.212  0.1937 -0.2862 -0.0655
    7MOL   O214 1546   5.545   1.420   1.268  0.0754 -0.5794  0.0809
    7MOL   C215 1547   5.614   1.587   1.121  0.8025 -0.1424 -0.1743
    7MOL   H216 1548   5.877   1.225   1.264 -0.0275 -0.5504  0.6532
    7MOL   H217 1549   5.712   1.215   1.278  1.5128 -0.8658 -0.3527
    7MOL   H218 1550   5.793   1.375   1.096 -0.0891 -2.1807  0.3061
    7MOL   H219 1551   5.695   1.657   1.137  1.4741 -0.9473 -0.0232
    7MOL   H220 1552   5.614   1.561   1.015  0.2896  0.1796 -0.2522
    7MOL   H221 1553   5.516   1.609   1.164  0.7309  0.2370 -0.5368
    7MOL   H222 1554   5.867   1.478   1.206 -0.7658 -0.5821 -0.0956
    8MOL     C1 1555   7.504   4.234   1.026 -0.4249  0.7574  0.7736
    8MOL     C2 1556   7.582   4.250   0.887 -0.3507 -0.4919  0.6276
    8MOL     C3 1557   7.623   4.110   0.827  0.2908  0.5236  0.5474
    8MOL     O4 1558   7.562   4.061   0.732  0.0029 -0.1046  0.1747
    8MOL     C5 1559   7.736   4.040   0.899  0.2412 -0.1833 -0.6129
    8MOL     H6 1560   7.397   4.221   1.011 -0.3223 -0.7632  1.2811
    8MOL     H7 1561   7.526   4.319   1.090 -0.9604  1.5517 -0.0873
    8MOL     H8 1562   7.675   4.303   0.908 -1.2776  0.7611  1.6646
    8MOL     H9 1563   7.820   4.098   0.936 -0.6333 -0.0329  1.1708
    8MOL    H10 1564   7.705   3.968   0.975  1.4951  0.9014  0.9673
    8MOL    H11 1565   7.796   3.982   0.828 -0.5603  1.3225 -2.5768
    8MOL    H12 1566   7.542   4.158   1.094 -1.2809 -0.7946 -0.4644
    8MOL    C13 1567   7.495   4.325   0.787 -0.3143 -1.0677  0.2328
    8MOL    C14 1568   7.570   4.407   0.684  0.3787 -0.4272  0.1521
    8MOL    C15 1569   7.662   4.522   0.749 -0.1556  0.2628 -0.3268
    8MOL    O16 1570   7.778   4.544   0.709 -0.2724  0.6540 -0.6581
    8MOL    C17 1571   7.604   4.601   0.865  0.4366  0.1994  0.2182
    8MOL    H18 1572   7.429   4.266   0.724 -2.9206  2.0907 -0.0927
    8MOL    H19 1573   7.420   4.386   0.838 -1.2415 -1.1392 -1.0320
    8MOL    H20 1574   7.630   4.344   0.618 -1.7609 -1.0229 -1.2901
    8MOL    H21 1575   7.495   4.589   0.867  0.3003  0.7485 -2.1816
    8MOL    H22 1576   7.640   4.568   0.962  1.2207  0.0082 -0.1374
    8MOL    H23 1577   7.627   4.707   0.859  1.2174  0.0173 -0.0871
    8MOL    C24 1578   7.474   4.476   0.585 -0.3822 -0.0108 -0.0479
    8MOL    C25 1579   7.533   4.574   0.480 -0.5444  0.6612 -0.2391
    8MOL    C26 1580   7.624   4.495   0.381  0.2215  0.0931 -0.2036
    8MOL    O27 1581   7.604   4.380   0.346 -0.5811 -0.3193 -0.2373
    8MOL    C28 1582   7.737   4.575   0.309 -0.0567 -0.4458 -0.3497
    8MOL    H29 1583   7.404   4.398   0.556  0.6446 -1.5370  1.4938
    8MOL    H30 1584   7.413   4.543   0.645 -1.1922 -0.6286 -0.1672
    8MOL    H31 1585   7.584   4.655   0.533 -1.0760  1.2193 -0.5812
    8MOL    H32 1586   7.691   4.660   0.258  0.4802  0.0604 -0.0040
    8MOL    H33 1587   7.806   4.607   0.387 -0.4429 -1.8457  0.5784
    8MOL    H34 1588   7.788   4.520   0.230 -0.4011  1.0284 -1.6180
    8MOL    C35 1589   7.419   4.629   0.392  0.5395 -0.3173 -0.2194
    8MOL    C36 1590   7.310   4.722   0.458  0.1918 -0.8215 -0.5784
    8MOL    C37 1591   7.360   4.858   0.524  0.0275  0.2997 -0.0973
    8MOL    O38 1592   7.336   4.968   0.469  0.1852  0.2075 -0.0096
    8MOL    C39 1593   7.440   4.860   0.659  0.6411 -0.1327 -0.9125
    8MOL    H40 1594   7.372   4.540   0.350 -1.3644  0.1832  0.8250
    8MOL    H41 1595   7.454   4.676   0.300  0.3491  2.1001  0.8981
    8MOL    H42 1596   7.262   4.674   0.544 -1.1743 -0.9092 -1.3725
    8MOL    H43 1597   7.519   4.933   0.677  0.3634  0.2008 -1.0294
    8MOL    H44 1598   7.473   4.762   0.692 -0.1603  0.2776  1.1763
    8MOL    H45 1599   7.367   4.890   0.735 -0.9493  0.1280 -2.5044
    8MOL    C46 1600   7.207   4.756   0.345 -0.2705 -0.0703  0.3207
    8MOL    C47 1601   7.074   4.818   0.401  0.2051  0.4102 -0.5194
    8MOL    C48 1602   7.008   4.914   0.298 -0.1600 -0.3113  0.2689
    8MOL    O49 1603   6.984   4.886   0.182  0.4680  0.9817  0.7820
    8MOL    C50 1604   6.957   5.044   0.350 -0.3975  0.5952  0.1718
    8MOL    H51 1605   7.177   4.672   0.282 -0.5709 -0.1257  0.5363
    8MOL    H52 1606   7.263   4.822   0.278  2.2201  0.0439  2.4306
    8MOL    H53 1607   7.096   4.873   0.493 -0.7808  0.1540 -0.1262
    8MOL    H54 1608   7.047   5.106   0.344 -0.1384  0.2488  0.4940
    8MOL    H55 1609   6.883   5.087   0.283  0.1436  1.7858  0.3030
    8MOL    H56 1610   6.919   5.043   0.452 -0.7065 -0.0218  0.0498
    8MOL    C57 1611   6.964   4.710   0.447 -0.0488 -0.6572  0.0509
    8MOL    C58 1612   6.813   4.742   0.450 -0.5828  0.7170  0.1780
    8MOL    C59 1613   6.731   4.614   0.427 -0.2546 -0.5115 -0.1302
    8MOL    O60 1614   6.680   4.562   0.521  0.3351 -0.0535  0.3162
    8MOL    C61 1615   6.726   4.557   0.289  0.0899 -0.5591 -0.1040
    8MOL    H62 1616   6.999   4.685   0.547 -0.3942 -1.4582 -0.0223
    8MOL    H63 1617   6.982   4.617   0.393  0.2021 -1.0148  0.7400
    8MOL    H64 1618   6.790   4.798   0.359  0.2427 -1.2365 -1.2720
    8MOL    H65 1619   6.820   4.505   0.272  0.4437  0.2837 -0.7496
    8MOL    H66 1620   6.641   4.489   0.275  0.7786 -1.3224 -0.5836
    8MOL    H67 1621   6.707   4.636   0.216 -0.9704  0.0097  0.7627
    8MOL    C68 1622   6.774   4.818   0.576 -0.0275 -0.2815  0.1749
    8MOL    C69 1623   6.625   4.873   0.587 -0.7369 -0.2026  0.2368
    8MOL    C70 1624   6.583   4.956   0.462 -0.4085 -0.1275  0.6630
    8MOL    O71 1625   6.661   5.016   0.386  0.7849 -0.8202  0.3886
    8MOL    C72 1626   6.428   4.976   0.448 -1.4031  0.6335 -0.3783
    8MOL    H73 1627   6.796   4.757   0.664  0.8166 -2.7948 -1.7019
    8MOL    H74 1628   6.843   4.901   0.592 -0.8629  0.4089  0.2116
    8MOL    H75 1629   6.547   4.798   0.593 -0.5469 -0.2165  2.9283
    8MOL    H76 1630   6.413   5.082   0.429 -0.3076  1.1938  1.6419
    8MOL    H77 1631   6.394   4.907   0.371 -0.6079 -1.4745  1.1169
    8MOL    H78 1632   6.383   4.944   0.542  1.8140 -1.3634  0.5555
    8MOL    C79 1633   6.620   4.958   0.718  0.1054 -0.4668 -0.2439
    8MOL    C80 1634   6.600   4.881   0.846 -0.0252  0.4691 -0.1838
    8MOL    C81 1635   6.465   4.813   0.871  0.6419  0.8694 -0.5806
    8MOL    O82 1636   6.457   4.694   0.907  0.1131  0.2409  0.4658
    8MOL    C83 1637   6.339   4.892   0.862 -0.4497  0.1035  0.0025
    8MOL    H84 1638   6.541   5.033   0.714  0.5195 -0.0114  0.1246
    8MOL    H85 1639   6.714   5.013   0.719 -0.8802  1.2253  0.7994
    8MOL    H86 1640   6.662   4.792   0.842 -1.3700 -0.4100 -2.4587
    8MOL    H87 1641   6.285   4.857   0.950  0.6716 -1.1284  0.2097
    8MOL    H88 1642   6.294   4.856   0.770 -1.4521 -0.9177  0.8805
    8MOL    H89 1643   6.352   5.000   0.860 -1.3540  0.2078 -0.8776
    8MOL    C90 1644   6.636   4.977   0.966 -0.0196  0.5689  0.2351
    8MOL    C91 1645   6.610   4.923   1.111  0.0909  0.5160 -0.4988
    8MOL    C92 1646   6.728   4.837   1.157  0.2855  0.6012 -0.2833
    8MOL    O93 1647   6.815   4.882   1.240 -0.0266 -0.4390  0.3254
    8MOL    C94 1648   6.733   4.696   1.095  1.3802  0.4374  0.4877
    8MOL    H95 1649   6.742   5.003   0.959  0.0044  0.6550  0.8196
    8MOL    H96 1650   6.599   5.077   0.946  0.3731  0.7947  0.6167
    8MOL    H97 1651   6.523   4.858   1.119 -0.6669  1.4403 -1.0818
    8MOL    H98 1652   6.642   4.638   1.079  1.7449 -0.2405  0.8686
    8MOL    H99 1653   6.782   4.704   0.998  1.1467 -0.5403  0.2892
    8MOL   H100 1654   6.786   4.621   1.154  3.1243 -0.8076 -2.5831
    8MOL   C101 1655   6.584   5.043   1.208 -0.3300 -0.3610  0.7896
    8MOL   C102 1656   6.512   5.002   1.345 -0.3023 -0.5868  0.6558
    8MOL   C103 1657   6.374   4.946   1.326  0.3669 -0.0705 -1.2958
    8MOL   O104 1658   6.302   4.975   1.234  0.2445  0.1176  0.2536
    8MOL   C105 1659   6.338   4.835   1.430 -0.5165  0.2835 -0.0652
    8MOL   H106 1660   6.674   5.100   1.233 -1.0447  2.4048 -2.4779
    8MOL   H107 1661   6.516   5.118   1.169 -0.8919 -2.1592 -1.8324
    8MOL   H108 1662   6.575   4.922   1.385  1.9624 -0.3577 -2.2866
    8MOL   H109 1663   6.288   4.751   1.382  0.3858 -0.1165 -0.3302
    8MOL   H110 1664   6.426   4.813   1.491  1.0567  0.8493 -2.0580
    8MOL   H111 1665   6.276   4.880   1.507 -0.0106 -1.7039  1.5539
    8MOL   C112 1666   6.527   5.109   1.463  0.2480 -0.5043  0.0912
    8MOL   C113 1667   6.425   5.227   1.472  0.3811  0.1908 -0.1588
    8MOL   C114 1668   6.491   5.366   1.472 -0.1946  0.0456  0.8836
    8MOL   O115 1669   6.543   5.420   1.574  0.1802 -0.1570  0.1892
    8MOL   C116 1670   6.515   5.419   1.342  0.1189 -0.6751 -0.6807
    8MOL   H117 1671   6.623   5.159   1.458 -0.0514  0.2308  1.4420
    8MOL   H118 1672   6.519   5.065   1.562  1.4483  0.4132  0.6073
    8MOL   H119 1673   6.387   5.216   1.370 -0.6110 -2.2163  0.4384
    8MOL   H120 1674   6.528   5.526   1.359  1.5562 -0.6783 -1.6255
    8MOL   H121 1675   6.609   5.394   1.292  1.4765  1.8402  0.5033
    8MOL   H122 1676   6.433   5.397   1.274  0.4289  0.2830 -1.3745
    8MOL   C123 1677   6.323   5.208   1.581  0.1167  0.3867  0.0323
    8MOL   C124 1678   6.192   5.290   1.571 -0.4400  0.3296  0.2487
    8MOL   C125 1679   6.110   5.283   1.439  0.3604 -0.1713 -0.5916
    8MOL   O126 1680   6.058   5.382   1.386  0.3195  0.2370 -0.4083
    8MOL   C127 1681   6.085   5.153   1.384 -0.4684 -0.4694  0.3868
    8MOL   H128 1682   6.366   5.218   1.681 -0.2409  0.6624  0.1578
    8MOL   H129 1683   6.292   5.103   1.582 -2.4095  1.1021  0.4866
    8MOL   H130 1684   6.124   5.250   1.647  1.9842 -1.9444  1.3059
    8MOL   H131 1685   6.118   5.140   1.281 -0.9691 -3.7491  0.5723
    8MOL   H132 1686   5.978   5.135   1.380 -0.2612 -1.3330 -1.6791
    8MOL   H133 1687   6.122   5.065   1.438  1.6580 -0.8701 -1.6256
    8MOL   C134 1688   6.211   5.437   1.630  0.4394 -0.0092 -0.2251
    8MOL   C135 1689   6.080   5.508   1.671  0.1003 -0.4404 -0.1546
    8MOL   C136 1690   6.004   5.431   1.777 -0.0331 -0.1260 -0.7386
    8MOL   O137 1691   6.044   5.422   1.894 -0.7168 -0.4264  0.5116
    8MOL   C138 1692   5.888   5.339   1.727  0.4022  0.0416 -0.6545
    8MOL   H139 1693   6.264   5.493   1.553  1.1477  0.4772  0.6117
    8MOL   H140 1694   6.273   5.424   1.719 -0.5614 -2.2041  0.2106
    8MOL   H141 1695   6.014   5.512   1.585 -0.7433 -2.0973  0.4048
    8MOL   H142 1696   5.918   5.297   1.631 -0.1635 -1.0658 -0.3490
    8MOL   H143 1697   5.805   5.409   1.718 -0.4548 -0.9954 -0.9048
    8MOL   H144 1698   5.855   5.262   1.796  0.8632 -0.3770 -0.9017
    8MOL   C145 1699   6.109   5.654   1.709 -0.0860  0.2215 -0.1774
    8MOL   C146 1700   5.981   5.733   1.737  0.2286 -0.1778 -0.2829
    8MOL   C147 1701   6.011   5.860   1.822 -0.0073 -0.1525 -0.2074
    8MOL   O148 1702   5.996   5.979   1.780  0.5126  0.0617  0.0631
    8MOL   C149 1703   6.062   5.825   1.962  0.2789  0.0093  0.0893
    8MOL   H150 1704   6.155   5.705   1.625  0.4794  0.6542  0.3955
    8MOL   H151 1705   6.182   5.662   1.789 -1.1831  2.2555  0.6461
    8MOL   H152 1706   5.921   5.676   1.807 -2.4402  0.7542 -1.7430
    8MOL   H153 1707   6.053   5.716   1.967  0.9563 -0.1479 -1.6700
    8MOL   H154 1708   6.167   5.855   1.963 -0.2508  1.8912  0.9548
    8MOL   H155 1709   5.996   5.875   2.032 -2.3830 -1.1277 -1.5236
    8MOL   C156 1710   5.895   5.759   1.612  0.0793 -0.2480 -0.4959
    8MOL   C157 1711   5.755   5.822   1.626  0.4985  0.1134 -0.0039
    8MOL   C158 1712   5.648   5.741   1.705 -0.2078  0.2090 -0.2656
    8MOL   O159 1713   5.671   5.629   1.745  0.2423  0.2040  0.1971
    8MOL   C160 1714   5.506   5.793   1.723  0.2400 -0.0128 -0.0202
    8MOL   H161 1715   5.954   5.835   1.561 -0.6752  0.2165 -0.6944
    8MOL   H162 1716   5.893   5.675   1.543 -1.5230 -0.1737 -0.5588
    8MOL   H163 1717   5.755   5.915   1.683  2.2329  0.4936 -0.5993
    8MOL   H164 1718   5.495   5.872   1.797  0.9302  3.0675 -3.0916
    8MOL   H165 1719   5.444   5.714   1.766 -0.7750  0.7601 -0.0426
    8MOL   H166 1720   5.454   5.814   1.629  2.4504  0.7879 -1.1235
    8MOL   C167 1721   5.690   5.869   1.496 -0.1395 -0.5641 -0.9069
    8MOL   C168 1722   5.616   5.770   1.398  0.3464 -0.4349 -0.1535
    8MOL   C169 1723   5.711   5.662   1.353  0.2132 -0.7849  0.7937
    8MOL   O170 1724   5.785   5.680   1.259 -0.4219  0.7031  0.1882
    8MOL   C171 1725   5.697   5.527   1.418  0.4351  0.2311 -0.3228
    8MOL   H172 1726   5.627   5.952   1.527 -0.9565 -1.5624  0.1327
    8MOL   H173 1727   5.765   5.918   1.434  1.2642  0.0532  1.2409
    8MOL   H174 1728   5.531   5.732   1.454  1.0706  0.2063  1.4240
    8MOL   H175 1729   5.786   5.516   1.480  0.4503  0.0005 -0.3871
    8MOL   H176 1730   5.680   5.452   1.341  0.9744  0.9648 -1.1715
    8MOL   H177 1731   5.614   5.526   1.489  0.7729  1.1091  0.0995
    8MOL   C178 1732   5.546   5.858   1.287  0.4625 -0.5023 -0.5380
    8MOL   C179 1733   5.429   5.788   1.212 -0.1330 -0.2510 -0.1538
    8MOL   C180 1734   5.311   5.751   1.303 -0.4743 -0.2760  0.5266
    8MOL   O181 1735   5.308   5.637   1.350  0.3447  0.4166 -0.1125
    8MOL   C182 1736   5.197   5.854   1.324  0.3646  0.3577 -0.1372
    8MOL   H183 1737   5.510   5.953   1.327  0.8740 -0.5865  0.0341
    8MOL   H184 1738   5.624   5.891   1.218  1.2322  0.3358  0.7228
    8MOL   H185 1739   5.399   5.865   1.141 -0.1545 -1.1069 -1.0841
    8MOL   H186 1740   5.197   5.919   1.236 -0.9995 -1.1528 -1.2925
    8MOL   H187 1741   5.211   5.923   1.406 -1.9784 -0.3532  0.8987
    8MOL   H188 1742   5.103   5.802   1.342  1.4208 -2.5413 -2.4845
    8MOL   C189 1743   5.476   5.665   1.131  0.6554  0.8649  1.1225
    8MOL   C190 1744   5.361   5.604   1.035 -0.4277 -0.2280 -0.1301
    8MOL   C191 1745   5.336   5.699   0.918  0.3074 -0.2848 -0.0583
    8MOL   O192 1746   5.420   5.778   0.887 -1.0742 -0.5520 -0.4072
    8MOL   C193 1747   5.186   5.706   0.867  0.0678  0.1681  0.2404
    8MOL   H194 1748   5.565   5.690   1.074  0.1486 -1.3133 -0.7174
    8MOL   H195 1749   5.500   5.583   1.198 -1.5070 -2.4032 -1.9378
    8MOL   H196 1750   5.272   5.594   1.097  0.0654 -3.3676  0.1797
    8MOL   H197 1751   5.154   5.602   0.872  2.9723 -0.8631 -1.4467
    8MOL   H198 1752   5.124   5.773   0.927 -0.7554  0.0354 -0.4444
    8MOL   H199 1753   5.189   5.731   0.760  1.6531 -1.8061 -0.1916
    8MOL   C200 1754   5.406   5.465   0.982  0.1171 -0.4538 -1.3553
    8MOL   C201 1755   5.524   5.463   0.880  0.1173  0.3810 -0.0237
    8MOL   C202 1756   5.477   5.490   0.735 -0.0023  0.1897 -0.0120
    8MOL   O203 1757   5.376   5.444   0.683 -0.3320  0.3023  0.5810
    8MOL   C204 1758   5.554   5.598   0.669  0.1254  0.2810  0.3223
    8MOL   H205 1759   5.452   5.421   1.071  0.0332 -1.1363 -1.6504
    8MOL   H206 1760   5.328   5.393   0.962 -0.3851  0.1361 -1.5353
    8MOL   H207 1761   5.601   5.533   0.912  0.2469  0.0776  0.3208
    8MOL   H208 1762   5.566   5.565   0.566  0.8195 -1.9020  1.0700
    8MOL   H209 1763   5.509   5.697   0.666 -0.5418 -0.0232  0.2347
    8MOL   H210 1764   5.659   5.594   0.701  0.2538 -1.5630 -0.2499
    8MOL   C211 1765   5.583   5.320   0.891  0.9920 -0.3457 -0.3540
    8MOL   C212 1766   5.688   5.279   0.779 -0.4012  0.2298 -0.1480
    8MOL   C213 1767   5.769   5.158   0.815 -0.1835 -0.5267 -0.9207
    8MOL   O214 1768   5.883   5.162   0.867 -0.3349  0.7765 -0.0983
    8MOL   C215 1769   5.683   5.026   0.809  0.1307 -0.6109 -0.9387
    8MOL   H216 1770   5.631   5.293   0.985  1.2364 -0.3766 -0.4870
    8MOL   H217 1771   5.496   5.255   0.884  0.0577  0.7809  0.5667
    8MOL   H218 1772   5.762   5.358   0.771  0.7798 -0.5239  2.6924
    8MOL   H219 1773   5.729   4.950   0.873  0.8633  1.6642  1.3155
    8MOL   H220 1774   5.577   5.041   0.828  0.3246 -1.7034  1.2681
    8MOL   H221 1775   5.678   4.989   0.707 -2.9000  1.5470 -1.6174
    8MOL   H222 1776   5.637   5.261   0.684  1.7382 -1.0519 -1.0990
    9MOL     C1 1777   0.163   0.176   0.542 -0.5476 -0.7784 -0.6739
    9MOL     C2 1778   0.229   0.148   0.401 -0.1034  0.0139  0.3725
    9MOL     C3 1779   0.217   7.848   0.381  0.8367  0.1416 -0.0984
    9MOL     O4 1780   0.105   7.799   0.376  0.0823 -0.1930  0.4086
    9MOL     C5 1781   0.344   7.757   0.357  0.4861  0.6550  0.1151
    9MOL     H6 1782   0.165   0.282   0.569 -1.5389 -0.4910 -1.6860
    9MOL     H7 1783   0.227   0.127   0.615 -0.3411 -0.8138 -0.8771
    9MOL     H8 1784   0.337   0.164   0.403 -0.2672  2.0927 -3.3122
    9MOL     H9 1785   0.326   7.657   0.394  2.8677 -0.3876 -1.3897
    9MOL    H10 1786   0.367   7.744   0.252 -1.4333  2.2461 -0.5368
    9MOL    H11 1787   0.424   7.808   0.412  0.7860  0.2514  0.0570
    9MOL    H12 1788   0.060   0.140   0.546 -1.3122  1.2974 -1.0577
    9MOL    C13 1789   0.172   0.230   0.287  0.1846  0.9868  0.8414
    9MOL    C14 1790   0.257   0.231   0.158  0.6467  0.0785 -0.0013
    9MOL    C15 1791   0.399   0.297   0.179 -0.0119 -1.0317 -0.0258
    9MOL    O16 1792   0.502   0.237   0.154 -0.0045  0.1278 -0.1555
    9MOL    C17 1793   0.413   0.440   0.216 -0.2083 -0.2879 -0.0689
    9MOL    H18 1794   0.074   0.184   0.274  1.0012 -0.5015 -0.2391
    9MOL    H19 1795   0.151   0.334   0.315  3.3736  2.5060 -1.9920
    9MOL    H20 1796   0.272   0.128   0.124  1.3899 -0.7949  2.8795
    9MOL    H21 1797   0.519   0.464   0.219  0.2697 -2.0793 -1.9265
    9MOL    H22 1798   0.366   0.501   0.139 -2.1043 -1.8747 -0.2274
    9MOL    H23 1799   0.368   0.458   0.314  1.9972  2.4826  0.4795
    9MOL    C24 1800   0.190   0.305   0.043  0.2686 -0.2147 -0.4979
    9MOL    C25 1801   0.259   0.268   7.769  0.3059 -0.5097 -0.4192
    9MOL    C26 1802   0.214   0.131   7.721  0.7932  0.5109 -0.1227
    9MOL    O27 1803   0.110   0.118   7.651  0.7869 -0.2897 -0.1273
    9MOL    C28 1804   0.306   0.017   7.763  0.1282  0.3313  0.1540
    9MOL    H29 1805   0.086   0.281   0.025  0.5711 -1.1368 -1.0485
    9MOL    H30 1806   0.176   0.411   0.063  1.9470 -0.3110  1.3514
    9MOL    H31 1807   0.366   0.269   7.787  0.1963 -2.7298  0.5197
    9MOL    H32 1808   0.336   7.812   7.678  2.2862 -0.6186  1.5701
    9MOL    H33 1809   0.390   0.062   7.816  0.6157 -0.9687  0.5126
    9MOL    H34 1810   0.261   7.813   7.840  0.4875 -2.5877 -1.8837
    9MOL    C35 1811   0.228   0.370   7.660  0.2472  0.5138 -0.2683
    9MOL    C36 1812   0.302   0.503   7.662  0.0570  0.9113  0.0704
    9MOL    C37 1813   0.452   0.487   7.628 -0.3890  0.2955  0.2655
    9MOL    O38 1814   0.528   0.540   7.708  0.6979  0.0833 -0.5503
    9MOL    C39 1815   0.500   0.417   7.505  0.4635 -0.6120  0.4935
    9MOL    H40 1816   0.124   0.397   7.674 -0.1711 -1.6099  0.8565
    9MOL    H41 1817   0.247   0.318   7.565 -2.7130 -0.7759 -0.2151
    9MOL    H42 1818   0.288   0.544   7.762 -0.3279  1.7372 -0.3169
    9MOL    H43 1819   0.556   0.496   7.457  1.1171 -0.8295  0.8905
    9MOL    H44 1820   0.419   0.376   7.444  0.0019  1.6430 -0.4269
    9MOL    H45 1821   0.569   0.335   7.530  0.0602 -1.4383 -1.0598
    9MOL    C46 1822   0.234   0.605   7.568  0.5604 -0.6387  0.6236
    9MOL    C47 1823   0.281   0.755   7.592 -0.3832 -0.4781  0.8727
    9MOL    C48 1824   0.244   0.836   7.464  0.3135  0.1978 -0.0784
    9MOL    O49 1825   0.335   0.858   7.382  0.3361 -0.0023  0.2918
    9MOL    C50 1826   0.112   0.896   7.430  0.7479 -0.2282 -0.3576
    9MOL    H51 1827   0.127   0.617   7.584  0.3815 -0.4164 -0.6665
    9MOL    H52 1828   0.256   0.573   7.466 -0.0759 -1.5396  0.7665
    9MOL    H53 1829   0.390   0.761   7.596 -0.3879 -0.4602  0.9638
    9MOL    H54 1830   0.121   1.005   7.437  0.1769 -0.1910 -0.1597
    9MOL    H55 1831   0.069   0.875   7.332 -0.9651  2.9880 -0.3620
    9MOL    H56 1832   0.036   0.867   7.502  0.7892 -2.4357 -1.1615
    9MOL    C57 1833   0.221   0.819   7.723 -0.3631 -0.1707  0.0838
    9MOL    C58 1834   0.297   0.934   7.799  0.1096  0.8118  0.6410
    9MOL    C59 1835   0.448   0.897   7.804  0.1866  0.0417  0.4947
    9MOL    O60 1836   0.526   0.960   7.730 -0.0993  0.9708 -0.3085
    9MOL    C61 1837   0.489   0.798   0.053 -0.0623  0.3818  0.0154
    9MOL    H62 1838   0.204   0.741   7.797  0.1306 -2.2193 -1.9278
    9MOL    H63 1839   0.116   0.843   7.705 -0.5049 -1.4672 -0.9161
    9MOL    H64 1840   0.263   0.924   0.044 -1.7626 -0.6772 -0.0982
    9MOL    H65 1841   0.552   0.846   0.127 -1.7936  1.1252  1.0360
    9MOL    H66 1842   0.402   0.765   0.110  0.3941  0.6753  0.8730
    9MOL    H67 1843   0.544   0.715   0.009  1.2999  0.5610  1.3427
    9MOL    C68 1844   0.258   1.073   7.755  0.1702 -0.1209  0.2914
    9MOL    C69 1845   0.323   1.178   7.845  0.0284  0.9089 -0.3005
    9MOL    C70 1846   0.245   1.201   0.117 -0.1143  0.3363 -0.5889
    9MOL    O71 1847   0.124   1.200   0.115 -0.2106 -0.1474  0.1854
    9MOL    C72 1848   0.331   1.253   0.235  0.0062 -0.0302  0.3220
    9MOL    H73 1849   0.294   1.085   7.653 -0.4665 -0.3646  0.0408
    9MOL    H74 1850   0.150   1.075   7.751  0.2204  1.1542 -0.5098
    9MOL    H75 1851   0.427   1.146   7.857 -0.4414 -0.0272  1.3437
    9MOL    H76 1852   0.412   1.183   0.254 -0.9435 -0.6314  2.2109
    9MOL    H77 1853   0.376   1.348   0.203 -3.0953  1.5394  0.4343
    9MOL    H78 1854   0.273   1.274   0.325 -1.0969 -3.1993  0.3999
    9MOL    C79 1855   0.326   1.310   7.763  0.2960  0.3259 -0.2956
    9MOL    C80 1856   0.437   1.344   7.658  0.5533  0.0612  0.1988
    9MOL    C81 1857   0.577   1.356   7.720  0.7753  0.1917  0.2092
    9MOL    O82 1858   0.597   1.393   7.832  0.1774  0.6970 -0.2991
    9MOL    C83 1859   0.691   1.322   7.620 -0.5709 -0.4550  0.4008
    9MOL    H84 1860   0.318   1.397   7.828  0.9947 -1.1186  1.7786
    9MOL    H85 1861   0.232   1.323   7.711  0.0232  1.7377  0.5140
    9MOL    H86 1862   0.433   1.263   7.586  1.4437  0.2645 -0.0878
    9MOL    H87 1863   0.644   1.314   7.522  1.8695 -1.3334 -0.7233
    9MOL    H88 1864   0.736   1.227   7.651  1.9900  0.7845  0.5998
    9MOL    H89 1865   0.769   1.397   7.607 -1.9584  0.7820 -0.9977
    9MOL    C90 1866   0.401   1.462   7.568 -0.0030 -0.3895 -0.0128
    9MOL    C91 1867   0.393   1.436   7.420 -0.6383  0.0632  0.5024
    9MOL    C92 1868   0.253   1.371   7.392  0.1712  0.1049 -0.0458
    9MOL    O93 1869   0.151   1.441   7.395 -0.4528 -0.0933  0.2064
    9MOL    C94 1870   0.247   1.228   7.346 -0.3119  0.2960  0.5044
    9MOL    H95 1871   0.312   1.512   7.605  0.1229 -0.8052  0.8728
    9MOL    H96 1872   0.478   1.538   7.584  0.0861 -0.2321 -1.1394
    9MOL    H97 1873   0.468   1.364   7.388  0.2133  1.1792 -0.0234
    9MOL    H98 1874   0.259   1.173   7.439 -1.7550 -0.2477  0.3874
    9MOL    H99 1875   0.144   1.215   7.313  0.1029  0.0799 -0.7173
    9MOL   H100 1876   0.322   1.208   7.270 -0.1314 -1.9043  1.2128
    9MOL   C101 1877   0.409   1.570   7.336 -0.2130  0.1554  0.1577
    9MOL   C102 1878   0.439   1.535   7.183 -0.3913 -0.4858  0.2088
    9MOL   C103 1879   0.581   1.468   7.175  0.5051 -0.6808  1.3267
    9MOL   O104 1880   0.662   1.472   7.265  0.1790  0.3288  0.2395
    9MOL   C105 1881   0.608   1.398   7.046 -0.1183  0.5876 -0.2387
    9MOL   H106 1882   0.321   1.631   7.354 -1.3967 -1.3144 -0.5888
    9MOL   H107 1883   0.495   1.626   7.374  0.9397 -1.0712 -0.5545
    9MOL   H108 1884   0.363   1.466   7.146 -1.6367  0.2016  1.4341
    9MOL   H109 1885   0.563   1.299   7.051  1.2740  0.0506  2.2314
    9MOL   H110 1886   0.584   1.454   6.955 -1.6933  0.9928  0.4056
    9MOL   H111 1887   0.716   1.385   7.047 -0.1394  0.4839  0.4742
    9MOL   C112 1888   0.440   1.662   7.088  0.1683  0.4727 -0.1327
    9MOL   C113 1889   0.296   1.725   7.066  0.0332 -0.0282 -0.1283
    9MOL   C114 1890   0.224   1.655   6.951  0.5100 -0.2005 -0.3293
    9MOL   O115 1891   0.286   1.571   6.879 -0.2805 -0.2523  0.4590
    9MOL   C116 1892   0.066   1.669   6.933  0.2932  0.7808 -0.0281
    9MOL   H117 1893   0.493   1.643   6.994  0.7286 -1.4014  0.5394
    9MOL   H118 1894   0.506   1.736   7.134  2.4010 -0.3745 -1.8451
    9MOL   H119 1895   0.231   1.696   7.149 -0.0500  0.4283 -0.0313
    9MOL   H120 1896   0.038   1.665   6.827  2.4455  1.7938 -0.6686
    9MOL   H121 1897   0.019   1.587   6.987  0.6615  1.1105  0.7857
    9MOL   H122 1898   0.038   1.770   6.964 -0.7302  0.9625 -1.4727
    9MOL   C123 1899   0.309   1.883   7.059  0.4999  0.7757  0.6977
    9MOL   C124 1900   0.336   1.945   7.195  0.1441 -0.7911 -0.1856
    9MOL   C125 1901   0.211   1.934   7.284 -0.0654  0.3214  0.0168
    9MOL   O126 1902   0.102   1.966   7.247  0.1535  0.1822 -0.2095
    9MOL   C127 1903   0.234   1.892   7.431 -0.1171  0.3017 -0.2705
    9MOL   H128 1904   0.217   1.926   7.021  0.3239 -1.5728 -1.6453
    9MOL   H129 1905   0.382   1.910   6.982 -1.8075  2.5047 -0.9331
    9MOL   H130 1906   0.411   1.881   7.241  0.8314 -2.9475 -4.0468
    9MOL   H131 1907   0.340   1.887   7.454 -0.7192 -2.6599  2.1882
    9MOL   H132 1908   0.192   1.798   7.466  0.1176  0.4289  0.3588
    9MOL   H133 1909   0.184   1.969   7.489 -1.7242 -0.1968 -0.9680
    9MOL   C134 1910   0.402   2.083   7.193 -0.1343  0.7872  0.3951
    9MOL   C135 1911   0.317   2.195   7.127 -0.4065 -0.2612 -0.2393
    9MOL   C136 1912   0.257   2.296   7.235 -0.7664  0.3900  0.2144
    9MOL   O137 1913   0.327   2.357   7.314 -0.2661 -0.3093 -0.0399
    9MOL   C138 1914   0.105   2.321   7.234  0.5122 -0.2137  0.0785
    9MOL   H139 1915   0.492   2.067   7.133  0.2124 -2.2733  1.6645
    9MOL   H140 1916   0.430   2.110   7.295  1.7318 -3.2105  1.0418
    9MOL   H141 1917   0.231   2.133   7.100  0.7582 -2.9817  1.9524
    9MOL   H142 1918   0.048   2.233   7.204 -0.3920  0.5716 -0.5428
    9MOL   H143 1919   0.085   2.400   7.162 -1.6650 -2.2596 -1.6552
    9MOL   H144 1920   0.086   2.365   7.332  3.9238  0.7053  0.3889
    9MOL   C145 1921   0.389   2.266   7.010  0.0030  0.0265  0.5322
    9MOL   C146 1922   0.305   2.358   6.916  0.4350  0.2676  0.0447
    9MOL   C147 1923   0.402   2.434   6.824  1.2229 -0.1921  0.0103
    9MOL   O148 1924   0.451   2.377   6.726 -0.1097 -0.4948 -0.7181
    9MOL   C149 1925   0.419   2.589   6.853  0.4217 -0.2504  0.3803
    9MOL   H150 1926   0.454   2.201   6.951 -1.3098 -1.2239  0.4138
    9MOL   H151 1927   0.462   2.331   7.056  0.0466  0.5188 -0.2229
    9MOL   H152 1928   0.245   2.429   6.973  0.9009 -0.4206  1.4198
    9MOL   H153 1929   0.321   2.636   6.847  1.1549  1.4139  1.3620
    9MOL   H154 1930   0.461   2.603   6.952  1.6880 -1.3685  0.0153
    9MOL   H155 1931   0.474   2.647   6.779 -1.7672  1.9780  0.4430
    9MOL   C156 1932   0.209   2.272   6.840  0.0223  0.4938 -0.0677
    9MOL   C157 1933   0.109   2.343   6.750  0.0431 -0.0832 -0.7265
    9MOL   C158 1934   0.030   2.462   6.811 -0.0542 -0.3517  0.8047
    9MOL   O159 1935   0.008   2.467   6.932  0.0424 -0.0397 -0.2216
    9MOL   C160 1936   7.839   2.567   6.711  0.1656  0.0962 -0.0763
    9MOL   H161 1937   0.264   2.201   6.779  0.8839  0.2876  0.9444
    9MOL   H162 1938   0.152   2.220   6.917  1.2453  0.8613  1.0952
    9MOL   H163 1939   0.162   2.393   6.670 -0.7965 -0.0373 -1.2553
    9MOL   H164 1940   0.053   2.573   6.629 -0.1877  1.8562 -0.2793
    9MOL   H165 1941   7.845   2.663   6.764 -0.4849  1.3747 -2.2557
    9MOL   H166 1942   7.736   2.552   6.678  0.5015  0.0360 -1.1148
    9MOL   C167 1943   0.023   2.246   6.665  0.3406  0.1363 -0.8928
    9MOL   C168 1944   7.749   2.186   6.732  0.1546 -0.2664  0.2989
    9MOL   C169 1945   7.779   2.109   6.866 -0.0233  0.2323 -0.2882
    9MOL   O170 1946   7.850   2.008   6.869  0.3291 -0.4431  0.1553
    9MOL   C171 1947   7.721   2.160   6.994 -0.2102  0.0452  0.4513
    9MOL   H172 1948   7.857   2.293   6.570  0.2462  1.9852  0.0111
    9MOL   H173 1949   0.085   2.163   6.631 -0.2808 -1.8566  2.5794
    9MOL   H174 1950   7.682   2.272   6.732 -1.4484 -1.4829 -0.9304
    9MOL   H175 1951   7.622   2.118   7.009  0.3296 -2.1099 -1.6261
    9MOL   H176 1952   7.730   2.269   6.993 -0.4610  0.0853  2.4435
    9MOL   H177 1953   7.780   2.132   7.081 -1.4579  1.4681  1.7590
    9MOL   C178 1954   7.683   2.077   6.645 -0.0154 -0.3915 -0.1970
    9MOL   C179 1955   7.541   2.036   6.688  0.5615 -0.6492  0.1632
    9MOL   C180 1956   7.522   1.883   6.660  0.6239 -0.1492 -0.6347
    9MOL   O181 1957   7.480   1.844   6.551 -0.0426  0.1279  0.3240
    9MOL   C182 1958   7.569   1.785   6.774  0.1389  0.5227 -0.4958
    9MOL   H183 1959   7.677   2.097   6.538  4.3115 -1.9475 -0.8690
    9MOL   H184 1960   7.752   1.992   6.648 -2.4554 -2.3899  1.0079
    9MOL   H185 1961   7.529   2.047   6.796 -0.5990  0.1064 -0.0271
    9MOL   H186 1962   7.664   1.744   6.741 -0.9677 -1.9614 -0.6799
    9MOL   H187 1963   7.510   1.699   6.803 -0.2009  1.7136  2.4875
    9MOL   H188 1964   7.583   1.845   6.864  1.5476 -0.8400  0.2004
    9MOL   C189 1965   7.427   2.123   6.632  0.0986  0.0389  0.5070
    9MOL   C190 1966   7.288   2.112   6.702  0.4017  0.6119 -0.4741
    9MOL   C191 1967   7.296   2.172   6.846 -0.1405  0.3924  0.1729
    9MOL   O192 1968   7.373   2.268   6.869 -0.5839  0.3876  0.1566
    9MOL   C193 1969   7.217   2.113   6.960  0.1167 -0.0993  0.1425
    9MOL   H194 1970   7.450   2.229   6.635 -1.6590  0.4405  0.7882
    9MOL   H195 1971   7.429   2.104   6.525  2.3615  0.1095  0.5075
    9MOL   H196 1972   7.260   2.007   6.709  1.9884  0.1864 -0.1756
    9MOL   H197 1973   7.145   2.042   6.919 -0.2828 -1.4194  3.0059
    9MOL   H198 1974   7.268   2.076   7.048  0.7026  1.8358  0.6398
    9MOL   H199 1975   7.148   2.187   7.002 -1.6464 -0.1544 -2.4953
    9MOL   C200 1976   7.184   2.188   6.619 -0.3470 -0.3892 -0.3975
    9MOL   C201 1977   7.037   2.214   6.672  0.1982  0.1053  0.1757
    9MOL   C202 1978   6.965   2.078   6.678  0.1533 -0.3597 -0.5954
    9MOL   O203 1979   7.013   1.980   6.628 -0.5763  0.3185  0.3860
    9MOL   C204 1980   6.826   2.068   6.756 -0.0765 -0.6572 -0.4157
    9MOL   H205 1981   7.229   2.282   6.587  0.8730 -0.4819  0.9971
    9MOL   H206 1982   7.189   2.141   6.521  1.0888 -0.2839 -0.3793
    9MOL   H207 1983   7.044   2.253   6.773  1.3163 -1.5487  0.7787
    9MOL   H208 1984   6.754   2.121   6.694 -3.0873 -1.6781  2.0956
    9MOL   H209 1985   6.811   1.961   6.768  0.3406 -0.6733 -0.0286
    9MOL   H210 1986   6.828   2.126   6.849  0.6357 -0.3041 -0.6427
    9MOL   C211 1987   6.966   2.320   6.579  1.0095 -0.1097  0.2801
    9MOL   C212 1988   7.013   2.463   6.610  0.4026 -0.2325  0.0485
    9MOL   C213 1989   6.968   2.582   6.524 -0.6404  0.2066 -0.7072
    9MOL   O214 1990   6.872   2.573   6.457 -0.2226  0.0578  0.6291
    9MOL   C215 1991   7.034   2.718   6.528  0.5532  0.4196 -0.3211
    9MOL   H216 1992   6.971   2.291   6.474  0.0382  2.5929 -0.5548
    9MOL   H217 1993   6.861   2.322   6.610  0.4903 -2.4310 -1.1713
    9MOL   H218 1994   7.121   2.466   6.598  0.1711  1.5572 -1.8807
    9MOL   H219 1995   7.131   2.729   6.481  0.0580  0.8782 -1.2478
    9MOL   H220 1996   6.971   2.793   6.481  1.5745  0.3188 -1.8712
    9MOL   H221 1997   7.042   2.768   6.624 -1.7055  2.6148 -1.2230
    9MOL   H222 1998   6.997   2.479   6.716  0.9675  1.3608 -0.0946
   10MOL     C1 1999   1.517   0.681   4.217  0.1693 -0.4938 -0.0189
   10MOL     C2 2000   1.636   0.781   4.239  0.6172 -0.1034  0.1008
   10MOL     C3 2001   1.620   0.902   4.148 -0.7369 -0.1394  0.5474
   10MOL     O4 2002   1.521   0.977   4.157  0.8894  0.3168 -0.4763
   10MOL     C5 2003   1.734   0.927   4.048  0.4729  0.5227 -0.0187
   10MOL     H6 2004   1.421   0.718   4.250  0.2078  0.2867 -0.7535
   10MOL     H7 2005   1.550   0.584   4.253 -0.4511 -0.9156 -0.5904
   10MOL     H8 2006   1.718   0.720   4.202 -1.4369 -3.4501  0.9167
   10MOL     H9 2007   1.744   0.828   4.003  0.5044 -0.1894  1.5298
   10MOL    H10 2008   1.698   1.006   3.983  0.7944  1.7432  1.2626
   10MOL    H11 2009   1.823   0.957   4.102  0.4272 -1.3989  1.1687
   10MOL    H12 2010   1.510   0.665   4.110  0.2490 -0.6761  0.0035
   10MOL    C13 2011   1.641   0.825   4.386 -0.3548 -0.8306  0.6697
   10MOL    C14 2012   1.751   0.908   4.456  0.5165  0.6634  0.4428
   10MOL    C15 2013   1.743   1.050   4.414  0.6489  0.2793  0.3122
   10MOL    O16 2014   1.826   1.093   4.335 -0.4919  0.2240  0.2890
   10MOL    C17 2015   1.649   1.137   4.492  0.0744 -0.4145  0.8884
   10MOL    H18 2016   1.545   0.875   4.399  0.5433  0.8965  0.7102
   10MOL    H19 2017   1.633   0.730   4.440  0.7032 -0.7928  0.8949
   10MOL    H20 2018   1.723   0.898   4.561 -0.6254  0.1210  0.0975
   10MOL    H21 2019   1.552   1.094   4.466  0.0533  0.4955 -0.5287
   10MOL    H22 2020   1.670   1.131   4.599  0.9801  1.6085  0.8502
   10MOL    H23 2021   1.641   1.240   4.458  1.9351 -0.4865  0.1747
   10MOL    C24 2022   1.895   0.846   4.430 -0.4877 -0.0818 -0.2140
   10MOL    C25 2023   2.020   0.899   4.509  0.0432  0.2184 -0.4845
   10MOL    C26 2024   2.028   0.859   4.657  0.5873 -0.3110  0.2065
   10MOL    O27 2025   1.979   0.752   4.694 -0.2769  0.9954  0.3824
   10MOL    C28 2026   2.099   0.956   4.746 -0.0431  0.3067 -0.4660
   10MOL    H29 2027   1.878   0.743   4.460  2.4155 -0.3727  0.6095
   10MOL    H30 2028   1.925   0.842   4.325 -1.6390 -2.8387 -0.4707
   10MOL    H31 2029   2.018   1.008   4.503 -1.3326  0.2856  0.9030
   10MOL    H32 2030   2.020   1.001   4.805  1.2227  1.2748  0.4926
   10MOL    H33 2031   2.177   0.916   4.811 -2.1238 -1.2756  1.1422
   10MOL    H34 2032   2.145   1.025   4.675  0.8680  1.2694  1.0440
   10MOL    C35 2033   2.148   0.853   4.449 -0.2337 -0.1366  0.3493
   10MOL    C36 2034   2.181   0.916   4.307  0.6117  0.4180  0.2166
   10MOL    C37 2035   2.223   1.060   4.332  0.2454 -0.3750  0.2030
   10MOL    O38 2036   2.336   1.093   4.375  0.6665 -0.1423  0.1179
   10MOL    C39 2037   2.120   1.162   4.293  0.2013 -0.1004  0.1161
   10MOL    H40 2038   2.135   0.746   4.433  0.7601  0.0642 -2.0003
   10MOL    H41 2039   2.233   0.871   4.515  0.2081  1.7170 -0.7080
   10MOL    H42 2040   2.090   0.926   4.248 -0.2567 -2.0929  1.0497
   10MOL    H43 2041   2.070   1.190   4.385  0.6922 -0.1480  0.3953
   10MOL    H44 2042   2.037   1.118   4.236 -0.1162 -0.0827  0.5651
   10MOL    H45 2043   2.154   1.253   4.245  0.3791  1.1481  2.5510
   10MOL    C46 2044   2.292   0.837   4.232  0.3014  1.3465  0.0291
   10MOL    C47 2045   2.244   0.697   4.179  0.4804  0.0631 -0.0134
   10MOL    C48 2046   2.123   0.713   4.082 -0.2365  0.0045 -0.2074
   10MOL    O49 2047   2.004   0.725   4.122  0.0637 -0.1502  0.7441
   10MOL    C50 2048   2.152   0.731   3.932 -0.9074 -0.2716  0.0495
   10MOL    H51 2049   2.372   0.832   4.306 -0.1062 -0.2923  0.3895
   10MOL    H52 2050   2.336   0.886   4.146  2.3392  0.3918  0.4919
   10MOL    H53 2051   2.212   0.640   4.266  1.7522 -1.7686 -0.7182
   10MOL    H54 2052   2.210   0.649   3.890 -0.4132  1.5620 -2.9859
   10MOL    H55 2053   2.074   0.705   3.859 -1.1490 -0.2130  0.2865
   10MOL    H56 2054   2.173   0.829   3.889 -1.4648 -0.5469 -0.8817
   10MOL    C57 2055   2.356   0.614   4.124  0.4189  0.3330  0.4661
   10MOL    C58 2056   2.308   0.479   4.087  0.8117  0.3424 -0.6967
   10MOL    C59 2057   2.420   0.419   4.002  0.2561 -0.5686  0.4323
   10MOL    O60 2058   2.522   0.368   4.040 -0.0186  0.9037 -0.2030
   10MOL    C61 2059   2.399   0.427   3.850 -0.5523  0.5998 -0.0865
   10MOL    H62 2060   2.443   0.600   4.188  1.4483  1.2103 -0.7199
   10MOL    H63 2061   2.407   0.669   4.045 -1.1650  1.2340  0.0584
   10MOL    H64 2062   2.223   0.487   4.019  0.6639 -2.0743 -0.8502
   10MOL    H65 2063   2.496   0.414   3.803 -0.1339 -1.3738  1.2586
   10MOL    H66 2064   2.330   0.344   3.835  0.8662 -0.4992 -0.5721
   10MOL    H67 2065   2.351   0.521   3.820  1.5993  1.7720 -0.0065
   10MOL    C68 2066   2.280   0.386   4.209 -0.0019  0.4535 -0.5364
   10MOL    C69 2067   2.189   0.262   4.167  0.4081 -0.4933  0.3353
   10MOL    C70 2068   2.040   0.299   4.137  0.0388 -0.1348 -0.4079
   10MOL    O71 2069   1.995   0.293   4.022  0.1269  0.2206 -0.6534
   10MOL    C72 2070   1.950   0.332   4.254 -0.4052 -0.0313  0.4083
   10MOL    H73 2071   2.376   0.358   4.254 -0.2489  0.3809 -0.0485
   10MOL    H74 2072   2.232   0.446   4.286 -1.5298 -0.3428 -0.8550
   10MOL    H75 2073   2.218   0.239   4.065 -0.0299 -1.3314  0.3991
   10MOL    H76 2074   1.950   0.436   4.286 -1.9458 -0.1544  0.8716
   10MOL    H77 2075   1.846   0.298   4.248 -0.5153  0.5249 -0.9497
   10MOL    H78 2076   1.996   0.290   4.344 -1.5150  1.7485  1.8675
   10MOL    C79 2077   2.204   0.141   4.256  0.2209  0.6422 -0.3994
   10MOL    C80 2078   2.343   0.067   4.248  0.1695  0.5174 -0.8487
   10MOL    C81 2079   2.376   0.026   4.109 -0.1128  0.0873  0.3969
   10MOL    O82 2080   2.284   7.857   4.031  0.2401  0.5242 -0.3696
   10MOL    C83 2081   2.522   0.023   4.068 -0.5347 -1.1861  0.4142
   10MOL    H84 2082   2.123   0.069   4.241 -0.4541  1.0231  1.3739
   10MOL    H85 2083   2.195   0.182   4.356  1.3040  1.6953 -0.7288
   10MOL    H86 2084   2.421   0.141   4.266  1.5020 -0.4517 -2.4959
   10MOL    H87 2085   2.580   0.088   4.133 -0.7379 -0.0018 -0.5614
   10MOL    H88 2086   2.540   0.062   3.968  0.0649 -1.1415  0.5383
   10MOL    H89 2087   2.564   7.782   4.087 -0.2344 -1.1379  0.0065
   10MOL    C90 2088   2.345   7.815   4.356  0.0093 -0.5377  0.0212
   10MOL    C91 2089   2.477   7.738   4.382  0.9415 -0.4309 -0.0161
   10MOL    C92 2090   2.588   7.836   4.425  0.2921 -0.0802  0.7338
   10MOL    O93 2091   2.556   0.079   4.482  0.0841 -0.3997 -0.1622
   10MOL    C94 2092   2.741   7.796   4.403  0.0802 -0.6395 -0.3336
   10MOL    H95 2093   2.321   0.007   4.450  0.5621 -1.1753  0.5082
   10MOL    H96 2094   2.266   7.745   4.328 -0.6200  0.4992 -0.8217
   10MOL    H97 2095   2.506   7.689   4.289 -1.4230  0.4721 -1.2681
   10MOL    H98 2096   2.747   7.691   4.377  3.7036 -0.5397 -0.2846
   10MOL    H99 2097   2.784   0.005   4.327  2.0780  1.0614  2.1839
   10MOL   H100 2098   2.807   7.814   4.488 -0.6543 -2.2398  0.5856
   10MOL   C101 2099   2.449   7.624   4.485  0.0642  0.2427  0.1197
   10MOL   C102 2100   2.374   7.655   4.614  0.5648  0.1963  0.1465
   10MOL   C103 2101   2.461   7.731   4.718 -0.4280  0.4792 -0.1654
   10MOL   O104 2102   2.577   7.690   4.744  0.0098  0.4735  0.0408
   10MOL   C105 2103   2.406   7.855   4.790 -1.1248 -0.2385 -0.1603
   10MOL   H106 2104   2.405   7.534   4.441  0.2086 -0.0815  0.6374
   10MOL   H107 2105   2.547   7.581   4.508 -0.0359 -0.3569 -0.5202
   10MOL   H108 2106   2.287   7.715   4.586  0.9945  0.9448  0.3985
   10MOL   H109 2107   2.486   0.065   4.819 -0.5710 -0.2483 -1.6061
   10MOL   H110 2108   2.333   0.040   4.721 -0.0400  2.1103  0.1202
   10MOL   H111 2109   2.353   7.824   4.881 -0.5908  0.4084  0.3716
   10MOL   C112 2110   2.317   7.531   4.686  0.0104  0.8839  0.1847
   10MOL   C113 2111   2.186   7.476   4.621  0.4639  0.2202 -0.3774
   10MOL   C114 2112   2.075   7.577   4.657 -0.0051  0.0507 -0.4069
   10MOL   O115 2113   2.050   7.611   4.773 -0.1703  0.0201  0.2133
   10MOL   C116 2114   1.984   7.619   4.541  0.4456 -0.1546 -0.3190
   10MOL   H117 2115   2.309   7.550   4.793 -0.3681  0.5453  0.2189
   10MOL   H118 2116   2.387   7.447   4.683 -2.2244 -0.9422 -3.7026
   10MOL   H119 2117   2.199   7.498   4.515  1.7570 -0.4042 -0.3636
   10MOL   H120 2118   2.023   7.716   4.508 -0.2512  0.0195 -0.6334
   10MOL   H121 2119   1.981   7.551   4.456  1.0502 -1.3218  0.5785
   10MOL   H122 2120   1.880   7.621   4.571  0.3738 -3.2862 -0.2202
   10MOL   C123 2121   2.152   7.323   4.657 -0.0387 -0.0494 -0.7529
   10MOL   C124 2122   2.031   7.248   4.585 -0.0536  0.4253 -0.5988
   10MOL   C125 2123   2.040   7.252   4.430 -0.1379  0.0654 -0.6176
   10MOL   O126 2124   1.985   7.333   4.361  0.0682  0.4168 -0.4218
   10MOL   C127 2125   2.137   7.150   4.368 -1.1507  0.4846  0.6566
   10MOL   H128 2126   2.126   7.324   4.762 -0.7109 -1.7622 -0.8937
   10MOL   H129 2127   2.239   7.259   4.642 -1.3782 -1.9525 -0.4328
   10MOL   H130 2128   2.037   7.147   4.626 -1.4920  0.0486 -1.2692
   10MOL   H131 2129   2.227   7.132   4.426 -0.2915  1.2885 -0.4068
   10MOL   H132 2130   2.183   7.180   4.274 -2.4394 -1.7485 -0.7215
   10MOL   H133 2131   2.095   7.053   4.341 -1.3549  0.7594 -0.0255
   10MOL   C134 2132   1.891   7.288   4.644 -0.2546 -0.1754  0.3643
   10MOL   C135 2133   1.772   7.182   4.625 -0.0661  0.1026  0.1350
   10MOL   C136 2134   1.770   7.078   4.731  0.1544  0.2403  0.0483
   10MOL   O137 2135   1.717   7.101   4.839 -0.0625 -0.3871 -0.0573
   10MOL   C138 2136   1.821   6.942   4.699 -0.0658  0.2146 -0.4521
   10MOL   H139 2137   1.866   7.386   4.604  0.9836  0.7898  1.8677
   10MOL   H140 2138   1.901   7.324   4.746 -0.4860 -1.3341  0.7921
   10MOL   H141 2139   1.790   7.129   4.532 -0.2403  0.1980  0.0484
   10MOL   H142 2140   1.773   6.898   4.611 -0.9961  1.4900 -0.5850
   10MOL   H143 2141   1.805   6.868   4.778 -2.1628  3.1268  1.9244
   10MOL   H144 2142   1.928   6.927   4.681  0.1537 -1.5947  2.1380
   10MOL   C145 2143   1.628   7.241   4.601  0.0636  0.0556  0.7377
   10MOL   C146 2144   1.564   7.328   4.712  0.3647 -0.6572  0.2715
   10MOL   C147 2145   1.625   7.466   4.733 -0.7246 -0.2374 -0.1855
   10MOL   O148 2146   1.620   7.554   4.649 -0.6246 -0.2310  0.3465
   10MOL   C149 2147   1.722   7.485   4.859  0.1658 -0.0308 -0.7013
   10MOL   H150 2148   1.567   7.158   4.564  0.9987  0.4246 -1.7370
   10MOL   H151 2149   1.633   7.303   4.511  1.1719 -2.0049 -0.6775
   10MOL   H152 2150   1.574   7.281   4.809  0.7308  1.0941  1.1015
   10MOL   H153 2151   1.716   7.401   4.928  1.2423  0.4896  0.0298
   10MOL   H154 2152   1.824   7.508   4.829  0.7589 -0.7343  0.7451
   10MOL   H155 2153   1.684   7.570   4.915 -1.6048  0.5338 -2.6691
   10MOL   C156 2154   1.412   7.333   4.692 -0.6363  0.2823  0.1980
   10MOL   C157 2155   1.336   7.417   4.803  0.2171  0.3838  0.4170
   10MOL   C158 2156   1.346   7.359   4.947  0.0494 -0.1401  0.3454
   10MOL   O159 2157   1.371   7.243   4.968  0.5138  0.0796  0.2312
   10MOL   C160 2158   1.344   7.455   5.059 -0.2057 -0.1778  0.2033
   10MOL   H161 2159   1.387   7.370   4.593 -0.0440  2.2099  0.7617
   10MOL   H162 2160   1.374   7.230   4.687 -0.3313  0.0492  2.3491
   10MOL   H163 2161   1.386   7.513   4.807  2.0795 -0.4156 -2.1644
   10MOL   H164 2162   1.270   7.435   5.136 -0.8046 -1.9931 -0.8271
   10MOL   H165 2163   1.321   7.552   5.013  1.1139 -0.3731 -0.8774
   10MOL   H166 2164   1.443   7.458   5.104 -0.1800 -0.4807  0.1624
   10MOL   C167 2165   1.187   7.451   4.765 -0.7105  0.0324 -0.2327
   10MOL   C168 2166   1.082   7.342   4.804  0.2330  0.3286 -0.4094
   10MOL   C169 2167   1.004   7.291   4.676  0.8957 -0.4893 -0.4527
   10MOL   O170 2168   0.887   7.332   4.664  0.1024  0.0702  0.2154
   10MOL   C171 2169   1.055   7.168   4.597  0.8253  0.3648  0.5126
   10MOL   H172 2170   1.166   7.546   4.814  2.3315  0.2934  0.6786
   10MOL   H173 2171   1.186   7.468   4.657  1.6618  1.0741 -0.1410
   10MOL   H174 2172   1.139   7.253   4.828  2.6265  0.9993 -3.3134
   10MOL   H175 2173   1.029   7.084   4.660  1.5233 -0.6189 -0.4953
   10MOL   H176 2174   1.163   7.173   4.585  0.6445 -0.8751 -2.0102
   10MOL   H177 2175   1.010   7.163   4.498  2.1956  1.2844 -0.1805
   10MOL   C178 2176   0.992   7.384   4.927  0.2815  0.2663 -0.0244
   10MOL   C179 2177   0.907   7.272   4.989  0.8136  0.0545 -0.0457
   10MOL   C180 2178   0.818   7.347   5.092  0.4540  0.4331  0.4288
   10MOL   O181 2179   0.852   7.362   5.207 -0.2273  0.3240 -0.1732
   10MOL   C182 2180   0.682   7.404   5.056  0.4711  0.6630 -0.1551
   10MOL   H183 2181   1.057   7.421   5.007 -0.0813  0.4450  0.1870
   10MOL   H184 2182   0.917   7.461   4.911 -1.7652 -1.8038 -0.5425
   10MOL   H185 2183   0.839   7.237   4.912 -0.9159 -0.9103  1.8720
   10MOL   H186 2184   0.616   7.425   5.140  0.6788 -1.6976  0.6462
   10MOL   H187 2185   0.633   7.327   4.997 -0.0011  1.7101 -1.1349
   10MOL   H188 2186   0.702   7.494   4.999  0.1984  1.7768  1.4867
   10MOL   C189 2187   0.996   7.157   5.042 -0.4687 -0.1494 -0.7907
   10MOL   C190 2188   0.933   7.031   5.095  0.2138 -0.2366 -0.6875
   10MOL   C191 2189   0.865   6.937   4.993  0.1532 -0.3365 -0.4297
   10MOL   O192 2190   0.896   6.935   4.873 -0.0230 -0.4621  0.5232
   10MOL   C193 2191   0.773   6.830   5.051 -0.0177  0.2984  0.0375
   10MOL   H194 2192   1.060   7.114   4.965  1.2925  0.2044  0.4496
   10MOL   H195 2193   1.058   7.203   5.119 -1.7547 -3.5188  2.3762
   10MOL   H196 2194   0.857   7.073   5.161  1.1477 -0.0516  0.2978
   10MOL   H197 2195   0.702   6.781   4.984 -2.1586  2.4214  0.7030
   10MOL   H198 2196   0.833   6.749   5.095  1.0677  0.7670 -0.5551
   10MOL   H199 2197   0.710   6.865   5.133 -0.5871  1.7158 -1.0079
   10MOL   C200 2198   1.027   6.947   5.183  0.6879 -0.3398  0.7644
   10MOL   C201 2199   1.149   6.879   5.108 -0.8224  0.5023 -0.2998
   10MOL   C202 2200   1.164   6.742   5.156 -0.6629 -0.2643  0.4291
   10MOL   O203 2201   1.219   6.712   5.259  0.2567  0.3948 -0.1470
   10MOL   C204 2202   1.107   6.635   5.069  1.0272 -0.3670  0.1886
   10MOL   H205 2203   1.068   7.012   5.260  1.6578  1.0183 -0.8685
   10MOL   H206 2204   0.963   6.876   5.235 -2.0707  0.0012 -2.0232
   10MOL   H207 2205   1.127   6.885   5.001  3.5890 -0.0907 -1.3231
   10MOL   H208 2206   1.117   6.648   4.961 -1.3948 -1.7101 -0.2437
   10MOL   H209 2207   1.165   6.545   5.085  2.0563  0.0099 -1.2524
   10MOL   H210 2208   0.999   6.624   5.077  0.7536  1.7866 -0.0644
   10MOL   C211 2209   1.283   6.957   5.125 -0.8905 -0.2299 -0.3894
   10MOL   C212 2210   1.390   6.921   5.025 -0.2405  0.3820 -0.5443
   10MOL   C213 2211   1.360   6.941   4.877  0.0872 -0.1239  0.3591
   10MOL   O214 2212   1.253   6.989   4.848 -0.2156 -0.0983  0.5177
   10MOL   C215 2213   1.472   6.903   4.782 -0.6963  0.9968  0.3591
   10MOL   H216 2214   1.264   7.063   5.112 -1.3525 -0.2171  0.3945
   10MOL   H217 2215   1.325   6.945   5.225  0.4305 -0.0362 -0.9110
   10MOL   H218 2216   1.427   6.821   5.045  0.7215  0.8135 -0.1023
   10MOL   H219 2217   1.504   6.982   4.714  1.8397  0.3288  0.7389
   10MOL   H220 2218   1.563   6.892   4.840 -0.2952 -0.5649 -0.5153
   10MOL   H221 2219   1.458   6.814   4.720  1.3189 -0.1754  1.5513
   10MOL   H222 2220   1.460   7.004   5.038  2.5239 -1.7311 -1.3888
   11MOL     C1 2221   3.644   1.814   6.865 -0.6311 -0.5663  0.0868
   11MOL     C2 2222   3.655   1.955   6.919 -0.0298  0.4127  0.3450
   11MOL     C3 2223   3.765   2.029   6.832 -0.5453  0.0148 -0.6672
   11MOL     O4 2224   3.736   2.100   6.742  0.1601 -0.1601  0.1319
   11MOL     C5 2225   3.909   2.014   6.884 -0.2399 -0.3151 -0.2449
   11MOL     H6 2226   3.736   1.755   6.871 -1.0750 -1.4932 -1.8636
   11MOL     H7 2227   3.606   1.821   6.763 -1.4803  2.0646  0.5390
   11MOL     H8 2228   3.688   1.947   7.023  0.3511  0.5765  0.2368
   11MOL     H9 2229   3.966   2.102   6.854  0.9698 -1.3702 -1.0854
   11MOL    H10 2230   3.916   1.992   6.990  1.5281 -1.2784 -0.5403
   11MOL    H11 2231   3.954   1.929   6.833 -0.9262 -0.0092 -1.3878
   11MOL    H12 2232   3.570   1.753   6.915 -0.8373 -2.0836 -2.0273
   11MOL    C13 2233   3.514   2.015   6.916 -0.3702  0.0687 -0.5415
   11MOL    C14 2234   3.495   2.139   6.999 -0.0511 -0.4414  0.0635
   11MOL    C15 2235   3.546   2.272   6.935  0.2203 -0.0049 -0.4075
   11MOL    O16 2236   3.625   2.344   6.999 -0.4292 -0.4005  0.6157
   11MOL    C17 2237   3.488   2.315   6.803 -0.0639 -0.2496  0.5723
   11MOL    H18 2238   3.487   2.028   6.811  0.9501 -0.6242 -0.9877
   11MOL    H19 2239   3.434   1.947   6.945  1.9136 -2.3108  0.3631
   11MOL    H20 2240   3.387   2.154   7.011  0.2452  1.2313  0.7310
   11MOL    H21 2241   3.556   2.355   6.727 -1.7677  0.6918 -0.4971
   11MOL    H22 2242   3.428   2.239   6.755  1.4552  0.0939 -1.9974
   11MOL    H23 2243   3.421   2.400   6.818 -0.3388 -0.5704  1.1454
   11MOL    C24 2244   3.541   2.120   7.144  0.5825  0.0170 -0.0950
   11MOL    C25 2245   3.504   2.230   7.249 -0.3404  0.7905  0.0001
   11MOL    C26 2246   3.357   2.280   7.242 -0.4656  0.7353 -0.0337
   11MOL    O27 2247   3.270   2.212   7.293  0.5949 -0.0517  0.6344
   11MOL    C28 2248   3.333   2.421   7.185 -0.4465 -0.2616 -0.1427
   11MOL    H29 2249   3.508   2.018   7.165  1.4162 -0.3504 -0.5427
   11MOL    H30 2250   3.649   2.106   7.151  0.3124 -1.7412  0.8494
   11MOL    H31 2251   3.570   2.316   7.235  0.7320  0.0357  0.3680
   11MOL    H32 2252   3.264   2.479   7.245 -0.7465  0.0867 -0.8245
   11MOL    H33 2253   3.434   2.463   7.184 -0.6064  0.1937  1.8469
   11MOL    H34 2254   3.292   2.424   7.084  0.6166 -0.4295 -0.5899
   11MOL    C35 2255   3.551   2.178   7.384 -0.4219  0.6326 -0.7010
   11MOL    C36 2256   3.603   2.294   7.478 -0.1400  0.5551  0.8078
   11MOL    C37 2257   3.483   2.363   7.547  0.6886 -0.2252 -0.0005
   11MOL    O38 2258   3.424   2.311   7.639 -0.1336 -0.6276 -0.1213
   11MOL    C39 2259   3.449   2.503   7.513 -0.1803 -0.6883  0.4002
   11MOL    H40 2260   3.627   2.105   7.358  0.4091  1.6477 -1.1628
   11MOL    H41 2261   3.477   2.118   7.438 -0.1606 -0.5536 -1.6483
   11MOL    H42 2262   3.647   2.371   7.414 -0.0698  0.6603  0.9810
   11MOL    H43 2263   3.467   2.577   7.590 -0.3802  1.1099 -1.2471
   11MOL    H44 2264   3.343   2.509   7.490  0.0973 -1.6583 -1.2581
   11MOL    H45 2265   3.492   2.543   7.421 -0.3862 -2.3834 -0.4610
   11MOL    C46 2266   3.710   2.241   7.576  0.2191  0.9079 -0.8860
   11MOL    C47 2267   3.810   2.346   7.628  0.5115 -0.3341 -0.9242
   11MOL    C48 2268   3.807   2.350   7.784 -0.4755 -0.4134 -0.3696
   11MOL    O49 2269   3.878   2.279   7.855  0.6423 -0.0789  0.4725
   11MOL    C50 2270   3.715   2.453   7.853 -0.5745 -0.9470  0.5346
   11MOL    H51 2271   3.768   2.158   7.535  1.2905  0.9778  0.4680
   11MOL    H52 2272   3.660   2.181   7.651  0.3704  1.5216 -0.2936
   11MOL    H53 2273   3.772   2.445   7.605  3.2280  0.3376 -2.7549
   11MOL    H54 2274   3.750   2.457   0.098 -0.2972  0.6036  0.3905
   11MOL    H55 2275   3.738   2.548   7.804 -0.3580 -0.3853  1.7087
   11MOL    H56 2276   3.613   2.426   7.826 -0.8817 -0.1038  0.8380
   11MOL    C57 2277   3.950   2.335   7.576  0.5291  0.0742 -0.3982
   11MOL    C58 2278   3.970   2.384   7.430 -0.0338 -1.0832  0.7919
   11MOL    C59 2279   3.987   2.539   7.423 -0.1502  0.3958 -0.3507
   11MOL    O60 2280   4.084   2.601   7.467  0.0344  0.4572  0.2178
   11MOL    C61 2281   3.871   2.627   7.373 -0.0541 -0.1136 -0.0870
   11MOL    H62 2282   3.968   2.229   7.591  0.9197  0.2843  0.6878
   11MOL    H63 2283   4.018   2.385   7.645  1.2353 -1.6835  0.2084
   11MOL    H64 2284   3.881   2.362   7.371  0.9986 -2.3980 -0.3147
   11MOL    H65 2285   3.830   2.688   7.454  1.9309 -0.4616  1.1992
   11MOL    H66 2286   3.907   2.704   7.306  1.9857  0.3222  1.4736
   11MOL    H67 2287   3.785   2.568   7.341 -2.2337  2.0687  1.5255
   11MOL    C68 2288   4.089   2.317   7.360  0.7783  0.3202  0.0796
   11MOL    C69 2289   4.111   2.354   7.213 -0.2169 -0.1091  0.0515
   11MOL    C70 2290   3.987   2.317   7.137  0.3052 -0.3773  0.1594
   11MOL    O71 2291   3.925   2.214   7.159  0.1526 -0.0592  0.0954
   11MOL    C72 2292   3.948   2.414   7.022  0.5655 -0.3347  0.2864
   11MOL    H73 2293   4.178   2.343   7.417  0.0028  1.1313  0.9573
   11MOL    H74 2294   4.075   2.209   7.371 -0.1499  0.2678 -1.5331
   11MOL    H75 2295   4.116   2.462   7.196 -0.5585 -0.2572 -1.0191
   11MOL    H76 2296   3.976   2.357   6.933 -0.4132 -0.6096  0.1458
   11MOL    H77 2297   3.841   2.435   7.021  0.2274 -1.9511 -1.3095
   11MOL    H78 2298   4.001   2.509   7.025 -1.0894  0.5679  2.0293
   11MOL    C79 2299   4.240   2.286   7.155 -0.5206  0.7034 -0.5116
   11MOL    C80 2300   4.380   2.310   7.216  0.5392  0.4411  0.9554
   11MOL    C81 2301   4.415   2.461   7.203 -0.6038 -0.4656  0.6709
   11MOL    O82 2302   4.483   2.505   7.111  0.4447 -0.0649  0.3261
   11MOL    C83 2303   4.367   2.561   7.301  0.2198 -0.1951 -0.2706
   11MOL    H84 2304   4.251   2.322   7.052  0.0792  0.6205 -0.4788
   11MOL    H85 2305   4.237   2.178   7.150 -0.2015  0.5896  1.4866
   11MOL    H86 2306   4.376   2.295   7.324  0.0358 -0.0410  0.8722
   11MOL    H87 2307   4.259   2.564   7.283  0.4126 -0.9672 -1.6861
   11MOL    H88 2308   4.415   2.656   7.280  1.8708 -1.4665 -2.5402
   11MOL    H89 2309   4.393   2.529   7.402 -0.1631 -0.6504 -0.3137
   11MOL    C90 2310   4.485   2.211   7.159  0.8929 -0.0311  0.7054
   11MOL    C91 2311   4.617   2.224   7.242 -0.6208 -0.3542  0.4480
   11MOL    C92 2312   4.646   2.093   7.320  0.7088  0.8607 -0.1866
   11MOL    O93 2313   4.729   2.011   7.295  0.1799  0.2599 -0.3673
   11MOL    C94 2314   4.567   2.079   7.444  0.4858 -0.2443  0.2306
   11MOL    H95 2315   4.448   2.109   7.156  1.0186 -0.0587  0.1969
   11MOL    H96 2316   4.479   2.236   7.054  2.3610 -0.6138  0.4771
   11MOL    H97 2317   4.623   2.308   7.311  1.0350 -0.6252  0.6393
   11MOL    H98 2318   4.497   2.162   7.453  0.1538 -0.4371 -0.5461
   11MOL    H99 2319   4.526   1.978   7.450 -0.2355 -0.1224 -2.3004
   11MOL   H100 2320   4.632   2.078   7.532 -0.2189 -0.3715  0.7565
   11MOL   C101 2321   4.735   2.246   7.139  0.1266  0.2878 -0.2597
   11MOL   C102 2322   4.881   2.289   7.181  0.0284 -0.2154 -0.3200
   11MOL   C103 2323   4.896   2.432   7.242  0.6156  0.3742 -0.4599
   11MOL   O104 2324   4.968   2.437   7.344 -0.0096 -0.1618  0.3213
   11MOL   C105 2325   4.837   2.552   7.161  0.3670  0.2113  0.0241
   11MOL   H106 2326   4.737   2.159   7.073 -0.8516  0.4675 -0.5517
   11MOL   H107 2327   4.693   2.324   7.074  0.1968  0.4933 -0.0600
   11MOL   H108 2328   4.896   2.232   7.273 -1.7930  2.0023  1.4170
   11MOL   H109 2329   4.883   2.548   7.062  0.2662  0.1898 -0.0208
   11MOL   H110 2330   4.731   2.539   7.143  0.6139  0.5711 -1.7849
   11MOL   H111 2331   4.867   2.643   7.213 -0.7163  0.0269  0.9726
   11MOL   C112 2332   4.992   2.268   7.078 -0.5096 -0.1595 -0.0112
   11MOL   C113 2333   5.065   2.130   7.068 -0.3069 -0.0535  0.1260
   11MOL   C114 2334   5.118   2.066   7.198 -0.3443 -0.2741 -0.3601
   11MOL   O115 2335   5.219   2.117   7.249 -0.5189  0.6227  0.1918
   11MOL   C116 2336   5.035   1.960   7.260 -0.3564 -0.3910  0.2465
   11MOL   H117 2337   5.073   2.340   7.091  0.4777 -1.2545 -0.0367
   11MOL   H118 2338   4.947   2.294   6.982  0.1071  2.7416  0.4269
   11MOL   H119 2339   4.981   2.064   7.045  0.3781 -0.3141 -1.6509
   11MOL   H120 2340   5.097   1.880   7.300 -1.6734 -1.8452 -0.5702
   11MOL   H121 2341   4.977   1.984   7.349  1.3192  0.4995  1.1239
   11MOL   H122 2342   4.965   1.912   7.192  2.0409 -1.5088 -1.4926
   11MOL   C123 2343   5.156   2.129   6.952 -0.2106  0.1281  0.1917
   11MOL   C124 2344   5.190   1.991   6.889  0.3716 -0.1274  1.0017
   11MOL   C125 2345   5.070   1.921   6.836  0.3109 -0.5464 -0.0054
   11MOL   O126 2346   5.004   1.840   6.902 -0.3156 -0.0617 -0.0855
   11MOL   C127 2347   5.025   1.952   6.694  0.2874  0.3227  0.6661
   11MOL   H128 2348   5.249   2.179   6.981 -0.5510  0.6986  0.3225
   11MOL   H129 2349   5.121   2.187   6.866  2.1655  0.9409 -0.2640
   11MOL   H130 2350   5.251   2.006   6.800  0.0512 -0.3988  0.7359
   11MOL   H131 2351   5.002   1.863   6.635 -3.4967  1.3299  0.5135
   11MOL   H132 2352   5.104   2.014   6.652 -0.1311  0.0616 -0.5243
   11MOL   H133 2353   4.933   2.011   6.686  0.8273  1.0881  0.0569
   11MOL   C134 2354   5.270   1.892   6.979 -0.0250 -0.7176 -0.1671
   11MOL   C135 2355   5.336   1.776   6.885 -0.5756 -0.9360  0.4000
   11MOL   C136 2356   5.476   1.818   6.846  0.0679 -0.1235  0.6716
   11MOL   O137 2357   5.545   1.894   6.914  0.1000 -0.2012  0.2102
   11MOL   C138 2358   5.519   1.775   6.704 -0.0019 -0.4511 -0.2854
   11MOL   H139 2359   5.208   1.853   7.060  0.0078  0.4756  0.4432
   11MOL   H140 2360   5.347   1.950   7.030 -0.0860 -1.5031  0.8423
   11MOL   H141 2361   5.280   1.776   6.792  0.9166  0.8168 -0.5332
   11MOL   H142 2362   5.457   1.691   6.673 -1.4023  0.6215 -0.4157
   11MOL   H143 2363   5.624   1.747   6.709 -0.1794 -1.0295  0.3722
   11MOL   H144 2364   5.510   1.858   6.635  2.1089  0.5593  0.5986
   11MOL   C145 2365   5.326   1.631   6.936  0.3914 -0.1777 -0.0980
   11MOL   C146 2366   5.188   1.568   6.921  0.3633  0.4277 -0.0840
   11MOL   C147 2367   5.161   1.541   6.777 -0.7571 -0.0153  0.1073
   11MOL   O148 2368   5.252   1.532   6.701 -0.2619  0.3789  0.2099
   11MOL   C149 2369   5.022   1.523   6.743 -0.3094  0.5341  0.7522
   11MOL   H150 2370   5.352   1.634   7.042 -1.9503 -0.5923  0.5333
   11MOL   H151 2371   5.395   1.561   6.890 -0.1471  1.0541 -2.8524
   11MOL   H152 2372   5.116   1.644   6.950 -1.6242 -1.1495 -0.8563
   11MOL   H153 2373   4.996   1.418   6.755 -0.5114  0.3411 -1.2472
   11MOL   H154 2374   4.954   1.583   6.804  0.6483  0.5720  1.8121
   11MOL   H155 2375   5.002   1.540   6.638  2.4654 -1.1171 -0.0864
   11MOL   C156 2376   5.169   1.443   7.019  0.0905  0.0100  0.2614
   11MOL   C157 2377   5.018   1.408   7.060  0.7427 -0.0424 -0.2319
   11MOL   C158 2378   4.966   1.530   7.141  0.1642 -0.3515  0.8786
   11MOL   O159 2379   5.026   1.560   7.239  0.7927 -0.7054 -0.4072
   11MOL   C160 2380   4.842   1.613   7.092 -0.1618 -0.0400  1.0041
   11MOL   H161 2381   5.219   1.359   6.971 -1.9348 -1.9349  1.4853
   11MOL   H162 2382   5.227   1.455   7.110  0.4866  0.9407 -0.1083
   11MOL   H163 2383   4.952   1.391   6.974  0.7478 -2.0527  0.1369
   11MOL   H164 2384   4.855   1.647   6.989  0.1520 -3.0928 -0.0290
   11MOL   H165 2385   4.813   1.690   7.163 -0.3366 -0.6961  1.6439
   11MOL   H166 2386   4.760   1.541   7.084 -2.0032  2.2477 -1.8312
   11MOL   C167 2387   4.999   1.281   7.150 -0.1114  0.1722 -0.5881
   11MOL   C168 2388   5.053   1.156   7.074  0.1270 -0.0955 -0.3049
   11MOL   C169 2389   4.996   1.112   6.938  0.6558  0.5274 -0.3589
   11MOL   O170 2390   4.878   1.131   6.912 -0.8731  0.0347 -0.0688
   11MOL   C171 2391   5.088   1.039   6.839 -0.9214 -0.4036  0.0657
   11MOL   H172 2392   5.051   1.276   7.246  0.6741 -1.2238 -1.0563
   11MOL   H173 2393   4.893   1.265   7.165  0.3600 -1.6213  1.1455
   11MOL   H174 2394   5.159   1.169   7.054 -0.1648  0.9905 -1.1889
   11MOL   H175 2395   5.171   1.009   6.903  0.0849 -1.1779 -1.5731
   11MOL   H176 2396   5.130   1.094   6.755  1.1953 -0.9531  0.7310
   11MOL   H177 2397   5.031   0.950   6.810 -3.7123  0.6892  1.9822
   11MOL   C178 2398   5.053   1.035   7.167  0.4168  0.3401 -0.4401
   11MOL   C179 2399   4.914   0.972   7.207 -0.5398 -0.8192 -0.1750
   11MOL   C180 2400   4.877   1.018   7.345  0.0810 -0.0612  0.4205
   11MOL   O181 2401   4.959   1.012   7.437 -0.2345 -0.1955 -1.2306
   11MOL   C182 2402   4.736   1.058   7.369 -0.3361  0.2399 -0.1164
   11MOL   H183 2403   5.120   0.959   7.128  1.5057  1.7721 -1.4084
   11MOL   H184 2404   5.110   1.064   7.256 -1.5199  4.1442 -0.3044
   11MOL   H185 2405   4.836   0.999   7.135  0.6820  0.8959 -0.8843
   11MOL   H186 2406   4.725   1.053   7.477 -1.2356  1.1822 -0.1587
   11MOL   H187 2407   4.659   0.999   7.320 -1.4694  0.5471  1.2820
   11MOL   H188 2408   4.706   1.161   7.348  2.0095  0.8893 -0.5064
   11MOL   C189 2409   4.917   0.815   7.210  0.0915 -0.4640 -0.2640
   11MOL   C190 2410   4.788   0.755   7.155  0.0337 -0.9598 -0.5565
   11MOL   C191 2411   4.761   0.801   7.011  0.8781 -0.1205 -0.1811
   11MOL   O192 2412   4.846   0.791   6.920 -0.3718  0.6561  0.6511
   11MOL   C193 2413   4.617   0.861   6.992 -0.7642 -0.1096  0.3234
   11MOL   H194 2414   4.996   0.782   7.143 -0.5602 -1.5801 -0.4931
   11MOL   H195 2415   4.939   0.785   7.313  0.7385 -2.8365 -1.0526
   11MOL   H196 2416   4.713   0.812   7.209  1.7253 -0.1486  0.9956
   11MOL   H197 2417   4.553   0.854   7.080  0.5923 -0.3237  1.3059
   11MOL   H198 2418   4.622   0.966   6.963 -0.7265 -0.0630  0.4962
   11MOL   H199 2419   4.567   0.804   6.914 -0.2470 -0.5765  0.3280
   11MOL   C200 2420   4.796   0.600   7.166  0.6903  0.5594 -0.0447
   11MOL   C201 2421   4.707   0.549   7.281  0.2908  0.1538 -0.0049
   11MOL   C202 2422   4.554   0.556   7.261  0.5332 -0.1159  0.4557
   11MOL   O203 2423   4.502   0.660   7.219  0.4016  0.5061  0.2919
   11MOL   C204 2424   4.465   0.431   7.302  0.0294  0.1546  0.2498
   11MOL   H205 2425   4.760   0.551   7.075  1.3363  1.0196 -0.5460
   11MOL   H206 2426   4.897   0.567   7.188 -0.1041 -1.6633  0.4344
   11MOL   H207 2427   4.734   0.443   7.282 -1.1191 -0.2272  0.1719
   11MOL   H208 2428   4.402   0.476   7.379 -0.7028  1.0624 -0.8594
   11MOL   H209 2429   4.394   0.396   7.227  0.3155 -0.7696  0.4048
   11MOL   H210 2430   4.524   0.349   7.343 -1.1258  0.0535  1.7640
   11MOL   C211 2431   4.739   0.602   7.426 -0.1835 -0.9149 -0.5058
   11MOL   C212 2432   4.706   0.502   7.539 -0.7234  0.4615  0.3157
   11MOL   C213 2433   4.815   0.404   7.576  0.3883 -0.0772  0.4152
   11MOL   O214 2434   4.917   0.400   7.514 -0.2039 -0.0454  0.1651
   11MOL   C215 2435   4.780   0.322   7.698  0.1696 -0.0212 -0.5765
   11MOL   H216 2436   4.844   0.631   7.437 -0.3605 -0.3399 -0.3302
   11MOL   H217 2437   4.679   0.692   7.439  0.7307 -0.4389  0.5168
   11MOL   H218 2438   4.621   0.439   7.516  0.1718 -0.6687  0.0205
   11MOL   H219 2439   4.707   0.374   7.761  1.2930  2.3594 -1.2081
   11MOL   H220 2440   4.739   0.224   7.672  0.5148  0.0577 -1.4296
   11MOL   H221 2441   4.874   0.308   7.752  0.5526  0.2212 -1.1735
   11MOL   H222 2442   4.677   0.573   7.617  1.1999 -1.7519  3.1733
   12MOL     C1 2443   5.425   4.101   2.173 -0.0732  0.3138 -0.1051
   12MOL     C2 2444   5.569   4.039   2.189  0.2014 -0.3120 -0.2970
   12MOL     C3 2445   5.652   4.083   2.076  0.5945  0.1593  0.0878
   12MOL     O4 2446   5.613   4.173   1.999 -0.0071  0.2559 -0.1963
   12MOL     C5 2447   5.797   4.044   2.072 -1.2570 -0.1530  0.2373
   12MOL     H6 2448   5.391   4.087   2.071 -2.2938 -2.7398  0.9697
   12MOL     H7 2449   5.419   4.210   2.172  1.7192  0.5229  3.4668
   12MOL     H8 2450   5.558   3.931   2.196  2.6276 -0.6061 -0.5737
   12MOL     H9 2451   5.816   4.025   1.966  0.1026 -1.4655  0.7053
   12MOL    H10 2452   5.843   4.140   2.096 -0.7865 -0.2497 -0.2637
   12MOL    H11 2453   5.838   3.965   2.134 -2.0092 -0.9881 -0.3083
   12MOL    H12 2454   5.346   4.066   2.240 -0.8150  1.8798 -0.1321
   12MOL    C13 2455   5.633   4.078   2.328  0.1291  0.3907  0.6568
   12MOL    C14 2456   5.738   3.975   2.391  0.3841 -0.0903  0.0756
   12MOL    C15 2457   5.681   3.885   2.506 -0.5278 -0.4794  0.4251
   12MOL    O16 2458   5.657   3.943   2.610  0.6739  0.0831 -0.1094
   12MOL    C17 2459   5.681   3.733   2.492 -0.4527 -0.0290 -0.6392
   12MOL    H18 2460   5.674   4.177   2.310  0.4991  0.3501  1.2609
   12MOL    H19 2461   5.569   4.115   2.408  2.5374  2.6022  1.6161
   12MOL    H20 2462   5.769   3.909   2.310  3.8076 -0.9465  1.9799
   12MOL    H21 2463   5.703   3.678   2.584  0.0618 -0.5755 -1.0889
   12MOL    H22 2464   5.583   3.706   2.452 -1.3841  0.0244  1.5117
   12MOL    H23 2465   5.755   3.708   2.416  0.1860 -0.9397  0.2569
   12MOL    C24 2466   5.862   4.055   2.442  0.2664  1.1613 -0.1473
   12MOL    C25 2467   5.981   3.958   2.484 -0.0581 -0.3448  0.7785
   12MOL    C26 2468   6.017   3.859   2.371  0.1101  0.1726 -0.1131
   12MOL    O27 2469   6.045   3.901   2.260  0.1000  0.4143  0.4312
   12MOL    C28 2470   6.041   3.712   2.415 -0.0669  0.0428  0.2346
   12MOL    H29 2471   5.901   4.117   2.362  0.3866 -0.7916 -1.6451
   12MOL    H30 2472   5.829   4.123   2.520 -0.5713 -1.2627  1.6938
   12MOL    H31 2473   5.947   3.893   2.564 -1.9654  0.2021  0.4497
   12MOL    H32 2474   6.106   3.655   2.348 -1.1728 -1.7675  0.6947
   12MOL    H33 2475   6.073   3.708   2.519 -3.1743  0.9394  1.2645
   12MOL    H34 2476   5.951   3.652   2.407 -0.0810 -0.1175  1.4597
   12MOL    C35 2477   6.099   4.040   2.528 -0.3379 -0.1396 -0.0891
   12MOL    C36 2478   6.233   3.964   2.569 -0.6445 -0.3517 -0.3408
   12MOL    C37 2479   6.347   3.960   2.467  0.4557  0.0805 -0.6070
   12MOL    O38 2480   6.403   4.063   2.438 -0.3987 -0.0991  0.0307
   12MOL    C39 2481   6.394   3.829   2.410 -0.2931  0.0678  0.0658
   12MOL    H40 2482   6.067   4.113   2.602  0.7228 -0.6726  0.9032
   12MOL    H41 2483   6.129   4.098   2.441 -1.5493  0.7207  0.0558
   12MOL    H42 2484   6.201   3.865   2.600  1.3577 -0.5848  1.1040
   12MOL    H43 2485   6.412   3.760   2.492 -2.9251 -0.2143  0.4621
   12MOL    H44 2486   6.477   3.837   2.340  0.5274  0.2355  1.0378
   12MOL    H45 2487   6.306   3.792   2.357  0.5159  0.0916 -1.2992
   12MOL    C46 2488   6.283   4.027   2.703  0.2322 -0.1872 -0.1242
   12MOL    C47 2489   6.398   3.956   2.783 -0.0198 -0.4295 -0.1179
   12MOL    C48 2490   6.446   4.030   2.907 -0.3631  0.3325  0.2438
   12MOL    O49 2491   6.415   3.999   3.021 -0.1946 -0.0610 -0.4208
   12MOL    C50 2492   6.533   4.149   2.893 -0.1751  0.0499  0.3366
   12MOL    H51 2493   6.196   4.022   2.769 -0.2736 -2.7058 -0.9124
   12MOL    H52 2494   6.319   4.129   2.691  0.3639 -0.2157  0.0121
   12MOL    H53 2495   6.485   3.963   2.717  0.0548 -0.3932 -0.0147
   12MOL    H54 2496   6.483   4.229   2.839  0.4450 -1.0703 -2.0174
   12MOL    H55 2497   6.552   4.177   2.996  0.3010  1.2843 -0.0840
   12MOL    H56 2498   6.630   4.118   2.853 -0.6884 -2.7391  1.1573
   12MOL    C57 2499   6.344   3.817   2.824  0.0165  0.2300  0.9839
   12MOL    C58 2500   6.455   3.719   2.885  0.1877  0.2791 -0.5000
   12MOL    C59 2501   6.393   3.595   2.960  0.8074  0.1166  0.5607
   12MOL    O60 2502   6.406   3.481   2.922  0.1682  0.4725  0.6292
   12MOL    C61 2503   6.322   3.628   3.092  0.1551 -0.4523 -0.5257
   12MOL    H62 2504   6.321   3.770   2.728  0.1332 -0.1042  1.1172
   12MOL    H63 2505   6.255   3.825   2.887  0.4487 -2.4129  1.9990
   12MOL    H64 2506   6.488   3.777   2.972  1.9498  0.1934 -1.1082
   12MOL    H65 2507   6.335   3.550   3.166  0.4599  1.0353  1.0232
   12MOL    H66 2508   6.359   3.719   3.140 -2.0649  1.1781 -1.8108
   12MOL    H67 2509   6.217   3.632   3.065 -0.7234  0.9630  2.8756
   12MOL    C68 2510   6.564   3.681   2.790 -0.4133 -0.8163  0.1119
   12MOL    C69 2511   6.689   3.654   2.871 -0.2369  0.9976 -0.4044
   12MOL    C70 2512   6.755   3.775   2.945 -0.1663  0.3024 -0.0296
   12MOL    O71 2513   6.779   3.882   2.884  0.0738  0.0712 -0.3472
   12MOL    C72 2514   6.800   3.752   3.085  0.4101  0.3385 -0.0227
   12MOL    H73 2515   6.536   3.596   2.728 -1.3980 -0.5560  0.1960
   12MOL    H74 2516   6.580   3.760   2.717 -1.1849 -0.5828  0.1925
   12MOL    H75 2517   6.648   3.597   2.955  0.2172 -0.1989 -0.9817
   12MOL    H76 2518   6.801   3.644   3.099  1.6237  0.5352  1.5858
   12MOL    H77 2519   6.897   3.799   3.099 -0.0392  0.4063  3.2233
   12MOL    H78 2520   6.726   3.785   3.158  1.7727 -0.1377  1.5848
   12MOL    C79 2521   6.794   3.580   2.786  0.2183  0.6188  0.0230
   12MOL    C80 2522   6.766   3.433   2.750 -0.2915  0.7080  0.4579
   12MOL    C81 2523   6.733   3.344   2.876  0.3776 -0.3228  0.3947
   12MOL    O82 2524   6.800   3.358   2.983 -0.4939  0.1773  0.4044
   12MOL    C83 2525   6.617   3.250   2.868  0.3249  0.4364 -0.0361
   12MOL    H84 2526   6.894   3.571   2.830  0.0321  0.0763  0.3265
   12MOL    H85 2527   6.818   3.628   2.691  1.1472 -0.0134 -0.0638
   12MOL    H86 2528   6.673   3.432   2.694  0.7532 -0.9012 -1.2799
   12MOL    H87 2529   6.537   3.302   2.815  0.0106  1.0906  1.0730
   12MOL    H88 2530   6.589   3.222   2.969  3.4280 -3.0425 -0.0385
   12MOL    H89 2531   6.656   3.163   2.816  2.8092  0.3830  1.8678
   12MOL    C90 2532   6.885   3.375   2.663  0.2467 -0.5934 -0.3702
   12MOL    C91 2533   6.877   3.231   2.611  0.4267 -0.3955 -0.1179
   12MOL    C92 2534   6.780   3.220   2.497  0.2630 -0.1517 -0.0976
   12MOL    O93 2535   6.762   3.308   2.410 -0.2604  0.0944 -0.1831
   12MOL    C94 2536   6.716   3.084   2.486  0.2576  0.1830  0.0040
   12MOL    H95 2537   6.901   3.442   2.578  0.2328  2.0668  1.6645
   12MOL    H96 2538   6.978   3.375   2.720 -0.2622 -1.6116  0.4744
   12MOL    H97 2539   6.849   3.163   2.691  2.8853 -0.4672  0.7190
   12MOL    H98 2540   6.755   3.047   2.391  2.9031 -0.6871  1.3908
   12MOL    H99 2541   6.748   3.023   2.570  0.8946  0.5211  0.0061
   12MOL   H100 2542   6.610   3.096   2.464  0.1273 -2.1379 -0.7436
   12MOL   C101 2543   7.024   3.181   2.565  0.0931  0.4282  0.5144
   12MOL   C102 2544   7.101   3.259   2.453 -0.2359 -0.4994 -0.4043
   12MOL   C103 2545   7.148   3.147   2.364 -0.1248  0.6261  0.2130
   12MOL   O104 2546   7.235   3.066   2.392 -0.1069  0.1602 -0.2326
   12MOL   C105 2547   7.079   3.140   2.225  0.5857  0.4843 -0.4779
   12MOL   H106 2548   7.084   3.182   2.656 -0.8491  0.2815  1.1544
   12MOL   H107 2549   7.016   3.075   2.540  1.4128  0.3318  0.4656
   12MOL   H108 2550   7.026   3.319   2.400  1.5873  1.4265 -0.8660
   12MOL   H109 2551   7.090   3.045   2.175  2.8161 -0.9105  2.5337
   12MOL   H110 2552   6.971   3.155   2.239  0.4633  0.8413 -1.7415
   12MOL   H111 2553   7.129   3.213   2.162  1.3741  1.0591  0.7974
   12MOL   C112 2554   7.208   3.345   2.498  0.0222 -0.9699 -0.0287
   12MOL   C113 2555   7.282   3.445   2.402 -0.3893 -0.3974 -0.4422
   12MOL   C114 2556   7.187   3.552   2.349  0.3694 -0.2062  0.5375
   12MOL   O115 2557   7.101   3.524   2.264 -0.1983 -0.0153  0.4846
   12MOL   C116 2558   7.188   3.697   2.407  0.4990 -0.0170 -0.4146
   12MOL   H117 2559   7.287   3.291   2.550  0.8811 -0.2665 -0.5805
   12MOL   H118 2560   7.168   3.418   2.569  0.9488 -0.1226 -0.3636
   12MOL   H119 2561   7.340   3.503   2.473 -1.1513 -0.4243  0.2050
   12MOL   H120 2562   7.213   3.697   2.513  1.0061  0.3316 -0.5338
   12MOL   H121 2563   7.258   3.766   2.360 -0.0999  2.3186  1.9891
   12MOL   H122 2564   7.088   3.738   2.391 -0.0642 -1.3693 -0.4087
   12MOL   C123 2565   7.369   3.381   2.286 -0.6077 -0.1901 -0.1460
   12MOL   C124 2566   7.496   3.303   2.345 -0.0200  0.4744 -0.4997
   12MOL   C125 2567   7.582   3.404   2.424 -0.1057  0.0721  0.2563
   12MOL   O126 2568   7.589   3.522   2.390  0.3504  0.2295 -0.1841
   12MOL   C127 2569   7.655   3.355   2.554 -0.6228  0.1563 -0.1258
   12MOL   H128 2570   7.394   3.464   2.220 -1.7685  1.0772  0.9598
   12MOL   H129 2571   7.312   3.316   2.220 -0.8497 -1.5257  1.3523
   12MOL   H130 2572   7.463   3.230   2.419 -0.5815 -0.9264 -2.1094
   12MOL   H131 2573   7.667   3.247   2.545  2.2131  0.4893 -0.6168
   12MOL   H132 2574   7.603   3.389   2.644 -3.6573 -1.2903 -1.2551
   12MOL   H133 2575   7.757   3.392   2.547 -1.9197  3.5199 -3.7175
   12MOL   C134 2576   7.576   3.244   2.231  0.6077 -0.0543 -0.0665
   12MOL   C135 2577   7.679   3.139   2.278 -0.3461  0.7739 -0.1159
   12MOL   C136 2578   7.613   3.006   2.317  0.4485  0.3933  0.1702
   12MOL   O137 2579   7.630   2.943   2.426 -0.2567 -0.2450 -0.1631
   12MOL   C138 2580   7.525   2.941   2.208  0.4320 -0.4617  0.3134
   12MOL   H139 2581   7.631   3.317   2.173 -0.4018  0.3466 -0.5273
   12MOL   H140 2582   7.501   3.211   2.159  0.6538  1.5445 -0.8665
   12MOL   H141 2583   7.723   3.161   2.376 -0.6914 -0.5751  0.3516
   12MOL   H142 2584   7.554   2.836   2.198  0.0864 -0.6717  1.3811
   12MOL   H143 2585   7.538   2.974   2.105 -0.6048 -1.1485 -0.0464
   12MOL   H144 2586   7.418   2.950   2.226  0.0627 -1.0181 -1.5819
   12MOL   C145 2587   7.801   3.116   2.181  0.3718  0.0090 -0.3773
   12MOL   C146 2588   0.088   3.132   2.238  0.1846  0.3118 -0.3385
   12MOL   C147 2589   0.106   3.252   2.334  0.2171 -0.0596  0.1207
   12MOL   O148 2590   0.088   3.234   2.456  0.0327  0.2940  0.1740
   12MOL   C149 2591   0.160   3.387   2.279  0.3047  0.0287 -0.3291
   12MOL   H150 2592   7.801   3.193   2.104  0.6161  0.0787 -0.3078
   12MOL   H151 2593   7.783   3.029   2.118  1.3991  0.0555 -0.7444
   12MOL   H152 2594   0.149   3.160   2.153  0.2292  1.6772  0.1187
   12MOL   H153 2595   0.246   3.364   2.217 -0.0267  0.5663 -0.9897
   12MOL   H154 2596   0.091   3.435   2.209 -0.1150  1.8742  1.2852
   12MOL   H155 2597   0.175   3.466   2.353 -0.1778 -0.4091  0.2426
   12MOL   C156 2598   0.144   2.997   2.288 -0.4913  0.4265  0.3600
   12MOL   C157 2599   0.288   2.987   2.333 -0.3369  0.2181 -0.4060
   12MOL   C158 2600   0.390   3.060   2.243  0.1381  0.6373  0.9177
   12MOL   O159 2601   0.413   3.038   2.123  0.0433  0.1884  0.0690
   12MOL   C160 2602   0.451   3.184   2.304 -0.2397  0.0790  0.1747
   12MOL   H161 2603   0.076   2.951   2.360  0.7192 -0.7086  0.8053
   12MOL   H162 2604   0.135   2.935   2.199 -0.0716 -0.5054  0.9633
   12MOL   H163 2605   0.290   3.041   2.428 -1.4466 -0.1007 -0.1962
   12MOL   H164 2606   0.370   3.250   2.335 -0.1682  1.0556 -1.6283
   12MOL   H165 2607   0.504   3.233   2.222 -0.6316 -1.2682 -0.9122
   12MOL   H166 2608   0.528   3.142   2.369 -0.0344 -2.0970 -1.4117
   12MOL   C167 2609   0.324   2.837   2.342  0.8077  0.1221  0.8009
   12MOL   C168 2610   0.448   2.798   2.436  0.3024 -0.1240 -0.1166
   12MOL   C169 2611   0.446   2.864   2.572 -0.2586 -0.3518 -0.5529
   12MOL   O170 2612   0.505   2.972   2.584 -0.3849  0.0216 -0.4761
   12MOL   C171 2613   0.357   2.809   2.684  0.1448 -0.3259 -0.4672
   12MOL   H172 2614   0.242   2.787   2.394 -0.5445  0.0126 -1.3494
   12MOL   H173 2615   0.330   2.791   2.243  1.1825  0.3850  0.7024
   12MOL   H174 2616   0.436   2.693   2.464 -2.1399  0.3626  0.8108
   12MOL   H175 2617   0.315   2.890   2.743 -1.3951 -0.5569 -1.2089
   12MOL   H176 2618   0.410   2.751   2.759 -0.3252 -0.7256 -0.4401
   12MOL   H177 2619   0.270   2.754   2.647  0.3585 -0.9856  0.0072
   12MOL   C178 2620   0.588   2.808   2.358 -0.2959  0.2293 -0.3006
   12MOL   C179 2621   0.710   2.729   2.406  0.3717  0.5188 -0.2863
   12MOL   C180 2622   0.689   2.577   2.422  0.5828 -0.2217  0.8559
   12MOL   O181 2623   0.617   2.534   2.511 -0.3953  0.1736 -0.0185
   12MOL   C182 2624   0.768   2.485   2.339  0.2220  0.0501 -0.2581
   12MOL   H183 2625   0.577   2.779   2.254 -1.1264 -1.3198  0.2050
   12MOL   H184 2626   0.607   2.913   2.337  2.2072  0.0122  0.7307
   12MOL   H185 2627   0.789   2.741   2.332  1.1253 -2.0680  0.0614
   12MOL   H186 2628   0.816   2.533   2.254  0.0404 -0.0846 -0.4382
   12MOL   H187 2629   0.715   2.404   2.289  0.9083 -0.5949  0.0422
   12MOL   H188 2630   0.829   2.417   2.398  0.5204 -0.3816 -1.0557
   12MOL   C189 2631   0.763   2.784   2.540  0.4584  0.0158  0.0820
   12MOL   C190 2632   0.812   2.930   2.541  0.7639  0.1235  0.0945
   12MOL   C191 2633   0.850   2.968   2.686 -0.5883 -0.0903  0.3142
   12MOL   O192 2634   0.963   2.950   2.727 -0.1362  0.0689  0.2594
   12MOL   C193 2635   0.741   3.017   2.776  0.1054  0.3487 -0.0606
   12MOL   H194 2636   0.695   2.769   2.623  1.2984  0.8378  0.9194
   12MOL   H195 2637   0.838   2.716   2.580 -1.3126 -1.1109  1.5647
   12MOL   H196 2638   0.728   2.992   2.511  0.8747 -0.7592 -2.1354
   12MOL   H197 2639   0.684   3.105   2.743  0.5447  0.4374 -0.5815
   12MOL   H198 2640   0.665   2.939   2.781  0.8841 -0.5116 -1.4770
   12MOL   H199 2641   0.776   3.036   2.878 -2.8089  2.4428  0.6256
   12MOL   C200 2642   0.920   2.961   2.437  0.1762  0.5327 -0.7888
   12MOL   C201 2643   0.957   3.113   2.445 -0.2251  0.2065  0.4029
   12MOL   C202 2644   0.842   3.213   2.397  0.6887 -0.0698 -0.7015
   12MOL   O203 2645   0.827   3.239   2.280 -0.5635 -0.2777  0.2529
   12MOL   C204 2646   0.756   3.287   2.505  0.2085  0.5459  0.1064
   12MOL   H205 2647   1.010   2.901   2.455 -0.6670 -0.4156  0.3664
   12MOL   H206 2648   0.885   2.927   2.340 -0.0468  1.6894 -1.1214
   12MOL   H207 2649   0.979   3.142   2.548 -0.6207  0.6636  0.3641
   12MOL   H208 2650   0.807   3.253   2.595 -1.4702 -2.8077 -0.1672
   12MOL   H209 2651   0.767   3.394   2.484 -0.5764  0.9248  1.5815
   12MOL   H210 2652   0.652   3.257   2.495 -0.3827  2.3713  0.5117
   12MOL   C211 2653   1.082   3.132   2.356  0.2505  0.3786  0.4475
   12MOL   C212 2654   1.211   3.083   2.418 -0.0269  0.2732 -0.6280
   12MOL   C213 2655   1.251   3.131   2.557 -0.2157 -0.0599 -0.8359
   12MOL   O214 2656   1.240   3.247   2.584 -0.4012  0.0525 -0.1271
   12MOL   C215 2657   1.313   3.025   2.647 -0.0443 -0.6024  0.3048
   12MOL   H216 2658   1.067   3.102   2.253  0.2872  2.8769 -0.3212
   12MOL   H217 2659   1.094   3.240   2.346  0.3612  0.3642  0.4188
   12MOL   H218 2660   1.293   3.107   2.350  1.8515 -0.9624  1.1366
   12MOL   H219 2661   1.400   2.972   2.608 -0.6478 -0.3897 -1.3458
   12MOL   H220 2662   1.334   3.064   2.747 -0.6011 -1.2691  0.6883
   12MOL   H221 2663   1.235   2.951   2.665  1.7281 -2.3825  0.8861
   12MOL   H222 2664   1.217   2.974   2.418 -0.9078  0.1367  3.4361
   13MOL     C1 2665   1.493   5.200   2.758 -0.2328  0.3483  0.3020
   13MOL     C2 2666   1.576   5.291   2.847 -0.7799 -0.7818  0.8087
   13MOL     C3 2667   1.620   5.414   2.766  0.1107 -0.1317  0.1969
   13MOL     O4 2668   1.735   5.424   2.730  0.8465  0.1557  0.1754
   13MOL     C5 2669   1.521   5.525   2.733  0.4217 -0.0159 -0.4454
   13MOL     H6 2670   1.389   5.218   2.788 -0.7666 -2.8873  0.5265
   13MOL     H7 2671   1.510   5.093   2.764  1.1024  0.4190 -1.9281
   13MOL     H8 2672   1.669   5.239   2.872  0.4846  2.3873  2.9940
   13MOL     H9 2673   1.418   5.491   2.725  0.1317  0.9764 -1.0491
   13MOL    H10 2674   1.515   5.605   2.807 -0.4222  1.9407 -2.5390
   13MOL    H11 2675   1.552   5.574   2.640  1.1060  0.4924  0.0470
   13MOL    H12 2676   1.488   5.233   2.655 -0.6614 -2.1651 -0.5162
   13MOL    C13 2677   1.513   5.329   2.981  0.6482  0.2785 -1.0852
   13MOL    C14 2678   1.605   5.390   3.085 -0.8968 -0.0745 -0.5339
   13MOL    C15 2679   1.722   5.296   3.134  1.0559 -0.4259 -0.6463
   13MOL    O16 2680   1.699   5.197   3.196  0.5494  0.0538  0.1246
   13MOL    C17 2681   1.866   5.339   3.112 -0.0831  0.7958 -0.5803
   13MOL    H18 2682   1.423   5.390   2.976  0.8753  0.5616 -1.6193
   13MOL    H19 2683   1.470   5.235   3.017  1.8758  0.0376 -0.2246
   13MOL    H20 2684   1.659   5.468   3.032  0.8767 -1.7716 -1.3203
   13MOL    H21 2685   1.937   5.293   3.181  0.1363 -1.2818 -2.1211
   13MOL    H22 2686   1.892   5.303   3.012 -0.5728 -1.3720  0.0516
   13MOL    H23 2687   1.870   5.447   3.103 -0.2992  0.8294 -0.2663
   13MOL    C24 2688   1.532   5.448   3.211 -0.3160  0.0322 -0.1075
   13MOL    C25 2689   1.418   5.368   3.285  0.2612  0.2752 -0.2684
   13MOL    C26 2690   1.474   5.282   3.402  0.0189 -0.7992 -0.3510
   13MOL    O27 2691   1.526   5.336   3.500 -0.3466  0.6676  0.3768
   13MOL    C28 2692   1.454   5.130   3.401  0.2934  0.8234  0.3084
   13MOL    H29 2693   1.614   5.467   3.281 -2.3774 -0.9109  2.6375
   13MOL    H30 2694   1.503   5.551   3.187 -4.7334 -0.2782  3.2944
   13MOL    H31 2695   1.378   5.289   3.221 -0.1565 -1.6508  2.2862
   13MOL    H32 2696   1.406   5.083   3.316  1.4722  1.5448 -0.7706
   13MOL    H33 2697   1.550   5.081   3.420 -0.3260 -0.2153  0.7881
   13MOL    H34 2698   1.412   5.099   3.497  0.7325 -0.4167  0.1070
   13MOL    C35 2699   1.302   5.458   3.333  0.1703 -0.2610  1.0187
   13MOL    C36 2700   1.170   5.384   3.365 -0.6345 -0.4072  0.0101
   13MOL    C37 2701   1.099   5.443   3.480  0.4221  0.1235 -0.0520
   13MOL    O38 2702   0.981   5.482   3.477  0.1008  0.1194  0.1833
   13MOL    C39 2703   1.178   5.448   3.609  0.0184 -0.1385  0.2403
   13MOL    H40 2704   1.277   5.530   3.256  0.5976  0.5108  1.6038
   13MOL    H41 2705   1.333   5.524   3.414  0.1275  0.0888  0.7473
   13MOL    H42 2706   1.186   5.281   3.396 -0.1697 -0.0904  0.8322
   13MOL    H43 2707   1.117   5.451   3.699  0.1204  0.0296  0.3057
   13MOL    H44 2708   1.239   5.539   3.609  0.0657 -0.1575  2.3590
   13MOL    H45 2709   1.268   5.387   3.611  0.2254  0.1265 -0.4675
   13MOL    C46 2710   1.072   5.369   3.236  0.0256 -0.1002  0.2786
   13MOL    C47 2711   1.098   5.266   3.122  0.8042 -0.0455 -0.3083
   13MOL    C48 2712   1.083   5.122   3.179  0.2032 -0.1689  0.1881
   13MOL    O49 2713   1.073   5.100   3.301 -0.3872 -0.0967 -0.3858
   13MOL    C50 2714   1.095   5.016   3.077  0.0411  0.6195 -0.1443
   13MOL    H51 2715   1.057   5.473   3.208  2.1111  0.0112 -0.4854
   13MOL    H52 2716   0.984   5.331   3.288  0.5822 -2.0876 -0.1764
   13MOL    H53 2717   1.203   5.278   3.092  0.9058 -0.5410 -0.1618
   13MOL    H54 2718   1.144   4.933   3.128 -1.0727 -1.4755 -2.4181
   13MOL    H55 2719   0.998   4.990   3.036 -0.6920  1.0392  1.2669
   13MOL    H56 2720   1.158   5.056   2.998  1.3691 -0.2689  0.4422
   13MOL    C57 2721   1.006   5.283   2.999  0.2389 -0.6820 -0.1821
   13MOL    C58 2722   1.000   5.422   2.934  0.2963  0.1534  0.4755
   13MOL    C59 2723   1.137   5.461   2.893 -0.1701 -0.3973 -0.0404
   13MOL    O60 2724   1.202   5.392   2.816  0.9731 -0.2667  0.2701
   13MOL    C61 2725   1.197   5.578   2.956 -0.1723  0.5899 -0.1678
   13MOL    H62 2726   0.906   5.251   3.029 -0.5492  1.1632 -0.7835
   13MOL    H63 2727   1.040   5.209   2.926 -1.2585 -0.7029 -0.8997
   13MOL    H64 2728   0.984   5.497   3.011  0.9391  1.1902 -0.3845
   13MOL    H65 2729   1.121   5.649   2.989 -2.0351 -0.7987 -1.3717
   13MOL    H66 2730   1.247   5.546   3.048  1.1060 -0.6223 -1.2452
   13MOL    H67 2731   1.248   5.627   2.873 -0.3582 -0.3027 -0.8179
   13MOL    C68 2732   0.892   5.425   2.823  0.5840 -0.4764 -0.4494
   13MOL    C69 2733   0.895   5.539   2.721  0.4467  0.3532 -0.4015
   13MOL    C70 2734   0.871   5.681   2.789 -0.8027  0.7423 -0.2677
   13MOL    O71 2735   0.974   5.748   2.815  0.5798 -0.2419  0.2300
   13MOL    C72 2736   0.733   5.736   2.808  0.2960  0.0310  0.0164
   13MOL    H73 2737   0.893   5.324   2.782 -0.6164 -0.7684  0.2362
   13MOL    H74 2738   0.790   5.431   2.860 -0.1640  1.3907 -2.7025
   13MOL    H75 2739   0.994   5.551   2.676  1.5676 -3.0209  1.0706
   13MOL    H76 2740   0.676   5.719   2.717  1.8846 -1.2490 -0.7631
   13MOL    H77 2741   0.691   5.692   2.899  0.9187 -0.2104  0.1863
   13MOL    H78 2742   0.747   5.844   2.819  0.8519  0.0555 -0.9488
   13MOL    C79 2743   0.813   5.515   2.594  0.3307  0.2339 -0.4160
   13MOL    C80 2744   0.870   5.406   2.495 -0.8804 -0.2122  0.4219
   13MOL    C81 2745   1.002   5.461   2.428  0.1584  0.3792 -0.0481
   13MOL    O82 2746   1.015   5.575   2.393 -0.0931 -0.3786 -0.2565
   13MOL    C83 2747   1.112   5.360   2.424 -0.2165  0.0977 -0.4467
   13MOL    H84 2748   0.814   5.611   2.542  1.6224  0.8241  0.6621
   13MOL    H85 2749   0.713   5.486   2.625  1.3910 -0.5961  2.4380
   13MOL    H86 2750   0.872   5.321   2.563 -0.4301  0.0697  0.7645
   13MOL    H87 2751   1.196   5.399   2.367 -1.7913  0.3145 -2.6947
   13MOL    H88 2752   1.081   5.263   2.383 -3.0495  1.5148 -1.7659
   13MOL    H89 2753   1.145   5.340   2.526 -0.0108  0.8432 -0.3641
   13MOL    C90 2754   0.756   5.388   2.395 -0.0999 -0.3578 -0.5672
   13MOL    C91 2755   0.774   5.288   2.279  0.5677  0.5469  0.2910
   13MOL    C92 2756   0.645   5.213   2.246  0.1850  0.0761  0.2684
   13MOL    O93 2757   0.533   5.247   2.280 -0.2684 -0.7934 -0.3805
   13MOL    C94 2758   0.661   5.092   2.152 -1.0319  0.1206  0.3657
   13MOL    H95 2759   0.666   5.360   2.449  0.9583 -2.5840  0.1221
   13MOL    H96 2760   0.742   5.492   2.365 -0.8914 -0.1104  0.6392
   13MOL    H97 2761   0.847   5.223   2.327  2.8340  1.1930 -2.1711
   13MOL    H98 2762   0.759   5.046   2.156 -1.8287 -1.6497  0.0258
   13MOL    H99 2763   0.580   5.019   2.162 -0.4044 -0.5094  0.8181
   13MOL   H100 2764   0.657   5.111   2.044 -2.0982 -0.5532  0.2767
   13MOL   C101 2765   0.835   5.365   2.158 -0.5146 -0.1876 -0.4081
   13MOL   C102 2766   0.894   5.276   2.038 -0.5033  0.1842  0.1875
   13MOL   C103 2767   1.031   5.219   2.074 -0.3002 -0.2594 -0.1090
   13MOL   O104 2768   1.130   5.293   2.078  0.1263 -0.0817  0.5573
   13MOL   C105 2769   1.027   5.074   2.119  0.2254  0.2667  0.7087
   13MOL   H106 2770   0.765   5.438   2.115  0.7519  1.5783  0.5077
   13MOL   H107 2771   0.917   5.416   2.207 -1.0294  0.7004 -0.4551
   13MOL   H108 2772   0.830   5.189   2.022 -3.1513  1.7004  2.1781
   13MOL   H109 2773   0.989   5.065   2.221  1.0513  3.3539  1.3315
   13MOL   H110 2774   0.965   5.012   2.054  0.7145  1.2744 -0.7465
   13MOL   H111 2775   1.126   5.027   2.128  0.3609  0.0183 -1.6362
   13MOL   C112 2776   0.892   5.368   1.911  0.1564  0.4225 -0.1749
   13MOL   C113 2777   0.919   5.304   1.772 -0.3053 -0.5414 -0.3386
   13MOL   C114 2778   0.864   5.163   1.767 -0.0646  0.6868  0.0430
   13MOL   O115 2779   0.935   5.070   1.802 -0.5847  0.5585  0.1670
   13MOL   C116 2780   0.717   5.153   1.741  0.4784 -0.0758  0.2455
   13MOL   H117 2781   0.945   5.464   1.917 -0.7670  0.9058  0.3826
   13MOL   H118 2782   0.787   5.396   1.906 -0.0615  0.2279  2.7251
   13MOL   H119 2783   0.870   5.364   1.695 -1.4203 -1.5349 -0.4280
   13MOL   H120 2784   0.664   5.105   1.822 -0.1292 -0.8869 -0.6236
   13MOL   H121 2785   0.668   5.249   1.729  0.6414 -0.0045  0.1407
   13MOL   H122 2786   0.694   5.101   1.648  0.1114  2.0703 -0.9077
   13MOL   C123 2787   1.074   5.315   1.738  0.6291  0.2822  0.2104
   13MOL   C124 2788   1.110   5.281   1.592  0.4232  0.0503  0.8504
   13MOL   C125 2789   1.257   5.235   1.585  0.4945 -0.5332 -0.3779
   13MOL   O126 2790   1.345   5.326   1.603  0.0316  0.6359  0.3345
   13MOL   C127 2791   1.298   5.091   1.554 -0.8408  0.7677 -0.4711
   13MOL   H128 2792   1.140   5.265   1.809 -0.4807 -0.7660  0.5117
   13MOL   H129 2793   1.108   5.419   1.745  1.2605  0.2164 -1.4983
   13MOL   H130 2794   1.060   5.186   1.573  0.2073  0.7492 -2.4107
   13MOL   H131 2795   1.208   5.031   1.567  0.1020 -0.6674 -0.4562
   13MOL   H132 2796   1.366   5.047   1.626 -2.6152  0.0776  0.8226
   13MOL   H133 2797   1.351   5.099   1.459 -0.7434  1.3878 -0.3702
   13MOL   C134 2798   1.087   5.408   1.499  0.3918  0.1679 -0.8040
   13MOL   C135 2799   1.118   5.367   1.356  0.2939 -0.1086  0.0424
   13MOL   C136 2800   1.026   5.255   1.307 -0.0913 -0.1986  0.6724
   13MOL   O137 2801   0.926   5.217   1.366 -0.2518  0.1772 -0.1059
   13MOL   C138 2802   1.072   5.179   1.183 -0.2125  0.1815  0.3133
   13MOL   H139 2803   1.153   5.489   1.531 -1.1799  2.5102 -3.2325
   13MOL   H140 2804   0.983   5.438   1.509  0.5389  0.3352  0.3011
   13MOL   H141 2805   1.221   5.330   1.351 -0.2870 -1.7246 -0.1999
   13MOL   H142 2806   1.038   5.240   1.099  1.3542 -2.5795 -2.4412
   13MOL   H143 2807   1.025   5.085   1.152 -0.3797 -0.1215  1.4633
   13MOL   H144 2808   1.180   5.175   1.166 -0.1519 -1.2467  0.9179
   13MOL   C145 2809   1.115   5.493   1.264 -0.4390 -0.1742  0.0634
   13MOL   C146 2810   1.234   5.590   1.286 -0.0803  0.6973 -0.3480
   13MOL   C147 2811   1.345   5.562   1.181 -0.5462  0.3231  0.1610
   13MOL   O148 2812   1.342   5.625   1.080 -0.2320 -1.2435  0.3633
   13MOL   C149 2813   1.452   5.459   1.211 -0.3979 -0.3164 -0.1858
   13MOL   H150 2814   1.018   5.534   1.292  0.3834  1.6832  0.2925
   13MOL   H151 2815   1.108   5.457   1.162 -0.4318 -0.5966  0.2090
   13MOL   H152 2816   1.281   5.572   1.383 -1.0093 -1.2697 -0.2504
   13MOL   H153 2817   1.456   5.379   1.138 -1.8328  0.6112 -1.2862
   13MOL   H154 2818   1.549   5.508   1.223 -0.4459 -0.0347 -0.9391
   13MOL   H155 2819   1.435   5.415   1.310 -0.5910 -1.9776 -0.9544
   13MOL   C156 2820   1.183   5.736   1.282  0.2653  0.1451 -0.2659
   13MOL   C157 2821   1.280   5.845   1.314  0.7919  0.3361 -0.0659
   13MOL   C158 2822   1.297   5.863   1.466 -0.7456  0.7950 -0.2873
   13MOL   O159 2823   1.257   5.781   1.549 -0.0590 -0.3902 -0.4884
   13MOL   C160 2824   1.366   5.986   1.516 -0.4433 -0.2226  0.0696
   13MOL   H161 2825   1.144   5.751   1.181  0.0748 -1.1700 -0.4008
   13MOL   H162 2826   1.096   5.749   1.346 -0.0240  0.2619 -0.6828
   13MOL   H163 2827   1.378   5.813   1.280  0.9236 -0.6943  1.2459
   13MOL   H164 2828   1.407   5.973   1.616  0.0547  0.2820 -0.0711
   13MOL   H165 2829   1.298   6.068   1.537  2.6042  2.4020  0.0391
   13MOL   H166 2830   1.450   6.014   1.452  0.2777 -0.1729  1.0360
   13MOL   C167 2831   1.221   5.978   1.247  0.4137  0.7179  0.2817
   13MOL   C168 2832   1.324   6.070   1.171  0.7964  0.5950  0.2349
   13MOL   C169 2833   1.278   6.217   1.164  0.5532  0.1204  0.1890
   13MOL   O170 2834   1.238   6.271   1.058 -0.1475 -0.3261  0.2076
   13MOL   C171 2835   1.285   6.296   1.295 -0.1144  0.3345  0.4086
   13MOL   H172 2836   1.157   5.957   1.162 -0.7856 -0.6756  1.5194
   13MOL   H173 2837   1.156   6.031   1.317 -1.4856 -0.7265 -0.3855
   13MOL   H174 2838   1.418   6.086   1.224  0.4576 -0.6285  1.2197
   13MOL   H175 2839   1.302   6.403   1.288  0.6909  0.3183  1.9271
   13MOL   H176 2840   1.364   6.265   1.363  0.9282  1.2500 -0.3860
   13MOL   H177 2841   1.194   6.284   1.354 -1.3335 -2.0429 -1.8392
   13MOL   C178 2842   1.357   6.001   1.035 -0.1442 -0.8479 -0.1538
   13MOL   C179 2843   1.501   6.014   0.978  0.0263  0.6769 -0.1910
   13MOL   C180 2844   1.601   5.936   1.071 -0.1611  0.3444 -0.0170
   13MOL   O181 2845   1.634   5.981   1.180  0.0371 -0.7088 -0.3486
   13MOL   C182 2846   1.645   5.797   1.025 -0.3524 -0.1181 -0.4195
   13MOL   H183 2847   1.327   5.898   1.017 -0.1244 -1.0479  0.9259
   13MOL   H184 2848   1.287   6.046   0.965 -0.8201  0.7177  1.4823
   13MOL   H185 2849   1.510   5.975   0.877 -1.1030  1.3607 -0.5703
   13MOL   H186 2850   1.645   5.725   1.107 -0.1760 -0.6113 -0.8448
   13MOL   H187 2851   1.743   5.806   0.978  0.0083  3.3463  0.8947
   13MOL   H188 2852   1.585   5.766   0.939 -0.9061  0.4685 -0.2418
   13MOL   C189 2853   1.543   6.162   0.964 -0.2642  0.0140 -0.0167
   13MOL   C190 2854   1.668   6.177   0.878 -0.4799 -0.9429  0.0988
   13MOL   C191 2855   1.627   6.205   0.731 -0.1332  0.1008  0.1750
   13MOL   O192 2856   1.669   6.132   0.639  0.1594  0.0953  0.1506
   13MOL   C193 2857   1.536   6.324   0.697  0.1123 -0.4759  0.4004
   13MOL   H194 2858   1.460   6.221   0.925 -1.0849 -0.0161  1.6787
   13MOL   H195 2859   1.561   6.204   1.062  0.8643 -1.0876  0.2529
   13MOL   H196 2860   1.734   6.092   0.888  2.4500  1.2284 -0.0930
   13MOL   H197 2861   1.498   6.366   0.790 -1.3647  0.0559 -0.4209
   13MOL   H198 2862   1.594   6.397   0.640  0.3092 -0.4147  0.6766
   13MOL   H199 2863   1.460   6.298   0.623 -0.5015  2.7105 -0.1758
   13MOL   C200 2864   1.764   6.288   0.931  0.5217  0.1505 -0.5751
   13MOL   C201 2865   1.899   6.305   0.869  0.0407 -0.1015  0.6026
   13MOL   C202 2866   2.005   6.196   0.897 -0.4544 -0.3851 -0.1111
   13MOL   O203 2867   1.984   6.108   0.977  0.4531 -0.2869  0.7987
   13MOL   C204 2868   2.128   6.200   0.808  0.2179 -0.3080  0.0709
   13MOL   H205 2869   1.707   6.380   0.926 -1.9117 -1.2913  0.2158
   13MOL   H206 2870   1.781   6.285   1.039  1.4431 -1.4078 -0.7370
   13MOL   H207 2871   1.891   6.311   0.761 -1.1576  0.4343  0.7168
   13MOL   H208 2872   2.169   6.102   0.784  0.9159  0.5363 -2.2580
   13MOL   H209 2873   2.111   6.257   0.717 -0.1744 -0.6108 -0.0462
   13MOL   H210 2874   2.211   6.235   0.869  0.1433  1.1883 -0.6743
   13MOL   C211 2875   1.960   6.440   0.911 -0.2588  0.3879  0.4426
   13MOL   C212 2876   1.900   6.582   0.912  0.4055  0.6035 -0.5715
   13MOL   C213 2877   1.884   6.628   0.771 -0.3383 -0.0060  0.7916
   13MOL   O214 2878   1.777   6.624   0.713 -0.3759  0.0627 -0.1955
   13MOL   C215 2879   2.006   6.701   0.705  0.4801 -0.2304 -0.3211
   13MOL   H216 2880   1.985   6.427   1.017 -3.2183  1.6389  1.3820
   13MOL   H217 2881   2.056   6.453   0.862  0.4985 -0.9185  1.5333
   13MOL   H218 2882   1.954   6.661   0.964 -0.7463  0.2108  1.2660
   13MOL   H219 2883   2.083   6.625   0.702 -0.1365 -0.8595 -0.4017
   13MOL   H220 2884   1.984   6.735   0.604 -3.5483  0.4325  0.6701
   13MOL   H221 2885   2.026   6.781   0.776  0.0257  0.0897 -0.5451
   13MOL   H222 2886   1.801   6.566   0.955  1.7121 -2.5610  1.4130
   14MOL     C1 2887   6.023   7.854   3.049  0.1598  0.2805 -0.2745
   14MOL     C2 2888   6.146   7.810   2.964  0.0668 -0.2267 -0.6667
   14MOL     C3 2889   6.202   7.676   3.015  0.5549  0.3709  0.2430
   14MOL     O4 2890   6.170   7.567   2.970 -0.2244  0.3457  0.3623
   14MOL     C5 2891   6.296   7.683   3.137  0.0588  0.3009 -0.1613
   14MOL     H6 2892   5.939   7.787   3.032  1.6946 -1.8004  0.1296
   14MOL     H7 2893   6.000   0.100   3.026  0.4025 -0.3486 -3.5717
   14MOL     H8 2894   6.223   0.029   2.976  1.0736 -1.5470  1.4861
   14MOL     H9 2895   6.381   7.742   3.102  1.5213 -1.8273 -0.2904
   14MOL    H10 2896   6.244   7.735   3.218  1.7403 -0.1362  1.2084
   14MOL    H11 2897   6.336   7.587   3.167 -0.8069  0.5754  1.9153
   14MOL    H12 2898   6.037   7.842   3.156 -0.6581 -1.8057 -0.3866
   14MOL    C13 2899   6.115   7.810   2.818 -0.0004  0.0465  0.3949
   14MOL    C14 2900   6.223   7.753   2.728 -0.6727  0.2150  0.1318
   14MOL    C15 2901   6.361   7.823   2.746 -0.1015 -0.2245  0.8681
   14MOL    O16 2902   6.370   0.087   2.716  0.4516 -0.1302  0.0001
   14MOL    C17 2903   6.470   7.738   2.814 -0.5500  0.0075 -0.1607
   14MOL    H18 2904   6.026   7.755   2.788  0.8659 -0.0711 -2.0746
   14MOL    H19 2905   6.093   0.056   2.789 -0.8778 -0.6085 -1.4086
   14MOL    H20 2906   6.221   7.646   2.749 -0.3096 -0.2587 -2.0706
   14MOL    H21 2907   6.414   7.663   2.869  0.1504  0.1813  0.7985
   14MOL    H22 2908   6.539   7.697   2.740 -1.7162  1.0636 -1.8816
   14MOL    H23 2909   6.528   7.810   2.872 -1.4511  0.4700  0.1766
   14MOL    C24 2910   6.177   7.768   2.580 -0.1784 -0.3914 -0.2349
   14MOL    C25 2911   6.273   7.716   2.474  0.5125 -0.7692 -0.1371
   14MOL    C26 2912   6.302   7.565   2.497 -0.1303  0.8400  0.0143
   14MOL    O27 2913   6.223   7.487   2.556 -0.5543 -0.4099  0.1306
   14MOL    C28 2914   6.431   7.511   2.439 -0.0642  0.1157 -0.1001
   14MOL    H29 2915   6.073   7.736   2.572  0.2548 -2.7369  2.4450
   14MOL    H30 2916   6.152   0.014   2.560  1.1608 -0.2224 -1.1671
   14MOL    H31 2917   6.374   7.755   2.488 -0.2722  1.5204 -0.7400
   14MOL    H32 2918   6.453   7.413   2.481  2.4972  0.1219 -1.3540
   14MOL    H33 2919   6.421   7.496   2.331 -0.6284  0.6090 -0.1221
   14MOL    H34 2920   6.518   7.575   2.451 -0.2993  0.1108  1.6795
   14MOL    C35 2921   6.204   7.758   2.335  0.4113  0.5498  0.7532
   14MOL    C36 2922   6.245   7.691   2.202 -0.2595 -0.0192  0.0566
   14MOL    C37 2923   6.138   7.583   2.168 -0.0945  0.5111 -0.3990
   14MOL    O38 2924   6.034   7.623   2.116  0.5154  0.8887 -0.3355
   14MOL    C39 2925   6.158   7.433   2.215 -0.1759 -0.1471  0.4489
   14MOL    H40 2926   6.229   0.006   2.330 -1.8057  1.2322  3.0685
   14MOL    H41 2927   6.096   7.750   2.348 -0.0031 -2.0783 -3.3513
   14MOL    H42 2928   6.346   7.652   2.212 -0.0988 -0.0586 -1.5914
   14MOL    H43 2929   6.098   7.369   2.151  0.9006 -1.2899  0.5823
   14MOL    H44 2930   6.133   7.422   2.321 -0.0989  0.2643  0.5107
   14MOL    H45 2931   6.264   7.425   2.194 -0.2220 -0.4485  0.3222
   14MOL    C46 2932   6.270   7.790   2.088 -0.9084 -0.2532 -0.3877
   14MOL    C47 2933   6.356   7.733   1.966 -0.7186 -0.8871  0.5684
   14MOL    C48 2934   6.474   7.651   2.003 -1.0325 -0.5741  0.4005
   14MOL    O49 2935   6.475   7.526   2.010 -0.2095 -0.3992 -0.4225
   14MOL    C50 2936   6.601   7.729   2.044 -0.0101 -0.5891 -0.0925
   14MOL    H51 2937   6.322   0.019   2.130 -0.3355 -0.5917 -0.3954
   14MOL    H52 2938   6.176   7.830   2.048 -0.4575 -0.8493 -2.1069
   14MOL    H53 2939   6.400   7.820   1.917  0.9651 -1.7057  0.5963
   14MOL    H54 2940   6.569   7.825   2.086  2.6068  1.0878 -1.7987
   14MOL    H55 2941   6.663   7.681   2.120 -0.3183 -0.0892  0.4810
   14MOL    H56 2942   6.653   7.747   1.951 -0.8637  0.3634 -0.3976
   14MOL    C57 2943   6.262   7.671   1.853  0.2775  0.0136  0.1037
   14MOL    C58 2944   6.195   7.768   1.749 -0.0307  1.0835 -1.0555
   14MOL    C59 2945   6.298   7.804   1.632  0.4913  0.4976 -0.5992
   14MOL    O60 2946   6.326   7.712   1.555  0.4686 -0.4793  0.5933
   14MOL    C61 2947   6.348   0.086   1.603  0.1050 -0.4033  0.2380
   14MOL    H62 2948   6.182   7.608   1.891 -2.0269  2.7996 -0.0247
   14MOL    H63 2949   6.317   7.599   1.793 -1.2447 -1.8418  0.8919
   14MOL    H64 2950   6.174   7.857   1.808  1.8314  0.6313  0.3318
   14MOL    H65 2951   6.457   0.081   1.605  0.1747  1.1771  2.2341
   14MOL    H66 2952   6.303   0.114   1.508 -0.5993 -0.5320  0.5321
   14MOL    H67 2953   6.329   0.150   1.689 -0.9167  1.2070 -1.1557
   14MOL    C68 2954   6.055   7.710   1.710  0.1679  0.0005 -0.4170
   14MOL    C69 2955   5.975   7.774   1.598 -0.6974  0.0878  0.5509
   14MOL    C70 2956   5.943   0.061   1.618 -0.4096 -0.3049  0.1320
   14MOL    O71 2957   5.948   0.120   1.729  0.3823  0.8478  0.5733
   14MOL    C72 2958   5.888   0.141   1.498 -0.3222  0.5293 -0.3863
   14MOL    H73 2959   6.063   7.604   1.687 -0.2530 -0.4550  1.4363
   14MOL    H74 2960   5.991   7.707   1.798 -0.7463 -2.3878 -1.1231
   14MOL    H75 2961   6.041   7.767   1.511 -2.5386 -1.2082 -0.7948
   14MOL    H76 2962   5.800   0.084   1.467 -0.6712 -0.7693  2.8086
   14MOL    H77 2963   5.858   0.244   1.519 -0.8921  0.1658  0.6329
   14MOL    H78 2964   5.954   0.146   1.411  0.9098  4.4850  0.6631
   14MOL    C79 2965   5.861   7.684   1.554  0.1858 -0.2408  0.2856
   14MOL    C80 2966   5.718   7.718   1.610  0.1870  0.1650 -0.1975
   14MOL    C81 2967   5.701   7.661   1.753 -0.2238  0.1591  0.5187
   14MOL    O82 2968   5.643   7.554   1.770  0.4303 -0.0521 -0.1823
   14MOL    C83 2969   5.745   7.741   1.873 -0.3741 -0.5213 -0.0645
   14MOL    H84 2970   5.881   7.581   1.581 -2.1311 -0.8462 -0.2705
   14MOL    H85 2971   5.866   7.683   1.445 -2.2689 -2.2599  0.1602
   14MOL    H86 2972   5.708   7.827   1.614  0.0152  0.1851 -1.0534
   14MOL    H87 2973   5.821   7.683   1.925 -0.5097  0.2374  1.0045
   14MOL    H88 2974   5.662   7.745   1.945 -1.0646 -0.4967 -0.8498
   14MOL    H89 2975   5.782   7.842   1.856 -2.1209  0.0546 -0.6075
   14MOL    C90 2976   5.617   7.674   1.499  0.4066  1.0529 -0.0741
   14MOL    C91 2977   5.462   7.697   1.525  0.0317  0.9646  0.1846
   14MOL    C92 2978   5.431   7.843   1.571  0.2785 -0.1520  0.0880
   14MOL    O93 2979   5.512   0.072   1.550  0.1856  0.4416 -0.0942
   14MOL    C94 2980   5.303   0.024   1.635 -0.2865 -0.0207  0.0558
   14MOL    H95 2981   5.634   7.724   1.404  0.5299 -0.4525 -0.8638
   14MOL    H96 2982   5.651   7.572   1.479  0.2686  0.9648  0.1449
   14MOL    H97 2983   5.427   7.628   1.601 -3.2246  0.1845 -1.9187
   14MOL    H98 2984   5.255   7.791   1.672 -0.3243 -0.3792 -0.8715
   14MOL    H99 2985   5.318   0.089   1.721 -1.8738  0.4241  0.0210
   14MOL   H100 2986   5.242   0.077   1.562 -3.5523 -0.2419  2.4706
   14MOL   C101 2987   5.382   7.658   1.392  0.1417 -0.4608  0.3089
   14MOL   C102 2988   5.232   7.613   1.417  0.3840  0.3437 -0.4236
   14MOL   C103 2989   5.230   7.464   1.456 -0.2780  0.0666 -0.2097
   14MOL   O104 2990   5.266   7.375   1.379 -0.4847 -0.2324  0.5377
   14MOL   C105 2991   5.206   7.431   1.598  0.0541 -0.7692  0.1440
   14MOL   H106 2992   5.396   7.744   1.326  2.3339 -0.4068  0.8157
   14MOL   H107 2993   5.439   7.582   1.340  2.6830  0.8872  1.0593
   14MOL   H108 2994   5.193   7.665   1.504  1.5583 -1.3589  1.1724
   14MOL   H109 2995   5.278   7.357   1.634  1.1146 -0.4383 -1.2852
   14MOL   H110 2996   5.212   7.525   1.652 -3.1520 -0.2262 -0.3020
   14MOL   H111 2997   5.103   7.395   1.610  0.1011 -0.9290  0.0704
   14MOL   C112 2998   5.142   7.635   1.287  0.1876  0.2083  0.4675
   14MOL   C113 2999   5.005   7.702   1.312 -0.1653  0.2294  0.1669
   14MOL   C114 3000   5.007   7.843   1.353  0.8787  0.2945 -0.0705
   14MOL   O115 3001   4.960   0.025   1.460 -0.2192 -0.3790 -0.1550
   14MOL   C116 3002   5.066   0.082   1.257  0.1333 -0.1531  0.0803
   14MOL   H117 3003   5.119   7.540   1.240  0.2520  0.8668 -0.9142
   14MOL   H118 3004   5.195   7.700   1.217 -1.5683  0.4725 -0.6548
   14MOL   H119 3005   4.963   7.708   1.212 -1.8603 -0.1359  0.8223
   14MOL   H120 3006   5.048   0.184   1.292 -0.5350  0.5336 -2.1541
   14MOL   H121 3007   5.173   0.063   1.261  0.1227 -0.0629  0.9299
   14MOL   H122 3008   5.022   0.059   1.160 -0.0558  0.4990  0.0087
   14MOL   C123 3009   4.916   7.607   1.406 -0.7510  0.0659 -0.6966
   14MOL   C124 3010   4.759   7.614   1.389  0.8551  0.0159 -0.2582
   14MOL   C125 3011   4.694   7.581   1.522  0.9891 -0.0905 -0.3021
   14MOL   O126 3012   4.713   7.467   1.568 -0.3460  0.0199 -0.3959
   14MOL   C127 3013   4.598   7.682   1.586 -0.4728  0.2547  0.6541
   14MOL   H128 3014   4.945   7.625   1.510  0.9358  0.0131 -1.1451
   14MOL   H129 3015   4.951   7.507   1.382 -1.1565  0.4140 -2.8144
   14MOL   H130 3016   4.743   7.721   1.381  0.7242 -0.0418 -0.7629
   14MOL   H131 3017   4.505   7.643   1.628 -1.9387  1.0662 -1.7698
   14MOL   H132 3018   4.567   7.752   1.509  0.2671 -0.5444 -0.3933
   14MOL   H133 3019   4.648   7.726   1.672 -0.9407 -0.3868  1.2564
   14MOL   C134 3020   4.703   7.525   1.273 -0.0698 -0.0495 -0.0145
   14MOL   C135 3021   4.552   7.515   1.238 -0.4313 -0.5969 -0.3739
   14MOL   C136 3022   4.483   7.649   1.249  0.5335  0.2317  0.1927
   14MOL   O137 3023   4.548   7.752   1.231  0.0916 -0.1745 -0.1078
   14MOL   C138 3024   4.333   7.651   1.288 -0.8203 -0.3074 -0.0191
   14MOL   H139 3025   4.731   7.423   1.300  0.6078 -0.0618 -0.7590
   14MOL   H140 3026   4.770   7.546   1.189 -0.6298 -2.2622 -1.0294
   14MOL   H141 3027   4.499   7.458   1.314 -0.1780 -1.0659 -0.5502
   14MOL   H142 3028   4.275   7.661   1.196 -0.9257 -3.6184 -0.3803
   14MOL   H143 3029   4.309   7.738   1.348 -0.9901 -0.8277  0.6704
   14MOL   H144 3030   4.305   7.559   1.339  1.1297 -0.7373  0.3387
   14MOL   C145 3031   4.542   7.448   1.093 -0.3696 -0.5111 -0.2176
   14MOL   C146 3032   4.399   7.418   1.034 -0.2450  0.4312 -0.1352
   14MOL   C147 3033   4.418   7.347   0.896  0.1383 -0.3047  0.2790
   14MOL   O148 3034   4.373   7.238   0.869  0.2492  0.1462  0.1939
   14MOL   C149 3035   4.504   7.419   0.795 -0.4195  0.1129 -0.3135
   14MOL   H150 3036   4.581   7.348   1.113  0.6970  0.0218  0.3618
   14MOL   H151 3037   4.604   7.497   1.018  1.5924 -2.6857 -0.0593
   14MOL   H152 3038   4.345   7.510   1.010  1.0043  0.7697 -1.7986
   14MOL   H153 3039   4.443   7.423   0.705  0.3772  0.5573 -0.8383
   14MOL   H154 3040   4.507   7.523   0.827  1.0947  0.0617 -0.2840
   14MOL   H155 3041   4.603   7.374   0.791 -1.0336 -1.6664  2.3815
   14MOL   C156 3042   4.305   7.325   1.126 -0.2523 -0.6192 -0.6088
   14MOL   C157 3043   4.163   7.292   1.079  0.0967  0.0077 -0.7542
   14MOL   C158 3044   4.076   7.423   1.075 -0.5263 -0.5385  0.4648
   14MOL   O159 3045   4.085   7.510   1.159  0.3804 -0.3552 -0.2658
   14MOL   C160 3046   3.977   7.434   0.962 -0.6319  0.4822 -0.3273
   14MOL   H161 3047   4.365   7.236   1.146 -0.8522 -0.7014  0.8622
   14MOL   H162 3048   4.292   7.369   1.224  1.3794 -2.7881  0.6361
   14MOL   H163 3049   4.151   7.252   0.978 -1.4957 -2.2590  0.3067
   14MOL   H164 3050   4.000   7.506   0.883  0.7665  1.8557  1.3101
   14MOL   H165 3051   3.877   7.463   0.995 -0.2690  1.1705  0.1719
   14MOL   H166 3052   3.978   7.330   0.928 -1.2590  0.6348 -0.8385
   14MOL   C167 3053   4.099   7.189   1.179 -0.5559  0.0683  0.4047
   14MOL   C168 3054   3.969   7.121   1.121 -0.2307 -0.2931  0.4020
   14MOL   C169 3055   3.847   7.128   1.214 -0.3545 -0.2247 -0.4861
   14MOL   O170 3056   3.854   7.170   1.332  0.0307 -0.1173 -0.1337
   14MOL   C171 3057   3.712   7.080   1.161  0.6332 -0.0433  0.1177
   14MOL   H172 3058   4.173   7.112   1.201 -1.8527 -1.1811  0.4441
   14MOL   H173 3059   4.089   7.240   1.275 -1.1390 -2.1662  1.5490
   14MOL   H174 3060   3.934   7.159   1.025 -0.4413  0.1334  0.6479
   14MOL   H175 3061   3.713   7.054   1.055 -2.5603  0.9266 -0.1987
   14MOL   H176 3062   3.625   7.145   1.167  1.5602  1.2796 -0.4320
   14MOL   H177 3063   3.690   7.000   1.232 -0.8973  0.0918 -0.1989
   14MOL   C178 3064   3.998   6.968   1.086 -0.2266 -0.1465  0.0962
   14MOL   C179 3065   4.049   6.926   0.939  0.6008 -0.7931  0.1952
   14MOL   C180 3066   3.938   6.960   0.838 -0.5981 -0.2962 -0.5526
   14MOL   O181 3067   3.948   7.066   0.777  0.2491 -0.4763 -0.8033
   14MOL   C182 3068   3.808   6.889   0.856  0.5420  0.1978  0.3054
   14MOL   H183 3069   4.083   6.941   1.148 -1.3953 -0.7229  1.4884
   14MOL   H184 3070   3.920   6.899   1.119 -2.2933  2.7322  1.4577
   14MOL   H185 3071   4.131   6.996   0.921  0.7494 -0.3538  2.4151
   14MOL   H186 3072   3.729   6.962   0.875  2.6423  2.1923  1.4611
   14MOL   H187 3073   3.812   6.808   0.929 -0.6578 -0.3202 -0.1771
   14MOL   H188 3074   3.793   6.828   0.766  1.6497  0.8063 -0.2995
   14MOL   C189 3075   4.107   6.788   0.925 -0.0284 -0.2735 -0.2406
   14MOL   C190 3076   4.159   6.748   0.787 -0.4898 -0.1954 -0.2962
   14MOL   C191 3077   4.299   6.816   0.761  0.9037 -0.6513 -0.4203
   14MOL   O192 3078   4.395   6.767   0.805 -0.4306  0.2185 -0.4555
   14MOL   C193 3079   4.304   6.948   0.693 -0.3161 -0.9281 -0.3397
   14MOL   H194 3080   4.187   6.780   0.999  1.1439  1.5930 -1.2669
   14MOL   H195 3081   4.038   6.707   0.949  0.7213 -0.6033  0.8213
   14MOL   H196 3082   4.093   6.790   0.711 -3.0245 -0.9277  1.4259
   14MOL   H197 3083   4.335   7.038   0.745 -0.7705 -1.2727  0.5505
   14MOL   H198 3084   4.345   6.933   0.593  1.0744 -0.7149  0.1833
   14MOL   H199 3085   4.196   6.966   0.688 -0.0028  1.2826  0.4482
   14MOL   C200 3086   4.159   6.589   0.757 -0.3627  0.4887 -0.6973
   14MOL   C201 3087   4.165   6.547   0.602 -0.1177  0.5577  0.6227
   14MOL   C202 3088   4.027   6.549   0.529 -0.4283 -0.7447 -0.6780
   14MOL   O203 3089   3.934   6.592   0.594 -0.1482 -0.2195  0.0167
   14MOL   C204 3090   4.017   6.509   0.386 -0.1020  0.4301  0.5672
   14MOL   H205 3091   4.239   6.539   0.812  0.1668  1.3841 -0.6470
   14MOL   H206 3092   4.067   6.553   0.804  0.4382 -1.1097 -0.3013
   14MOL   H207 3093   4.223   6.625   0.552 -0.3808  0.9958  0.9942
   14MOL   H208 3094   4.086   6.558   0.317 -0.0897  2.6612  2.1401
   14MOL   H209 3095   4.034   6.402   0.370  2.2568  0.7544  0.7038
   14MOL   H210 3096   3.918   6.529   0.345  0.2468 -0.6414 -0.8558
   14MOL   C211 3097   4.230   6.407   0.585 -0.5190  0.0918 -0.1301
   14MOL   C212 3098   4.150   6.305   0.645 -0.1399  0.4052  0.1705
   14MOL   C213 3099   4.212   6.169   0.648  0.7824  0.8971  0.4299
   14MOL   O214 3100   4.334   6.149   0.621 -0.4925  0.2301  0.0631
   14MOL   C215 3101   4.122   6.044   0.688 -0.0802 -0.1308  0.0929
   14MOL   H216 3102   4.246   6.384   0.480 -5.1858 -2.6382 -0.4196
   14MOL   H217 3103   4.320   6.423   0.644  0.3022  0.5110 -1.4844
   14MOL   H218 3104   4.054   6.295   0.593  0.7829 -1.3637 -1.2429
   14MOL   H219 3105   4.089   5.979   0.606  0.0234  0.0152 -0.0646
   14MOL   H220 3106   4.170   5.969   0.752  0.2853 -2.8816 -3.2452
   14MOL   H221 3107   4.040   6.085   0.747 -0.0393  0.8801 -0.5545
   14MOL   H222 3108   4.120   6.340   0.744 -0.4695  4.2893 -1.1959
   15MOL     C1 3109   6.235   6.164   5.812 -0.2207  0.1058 -0.2072
   15MOL     C2 3110   6.240   6.274   5.930  0.0759  0.1813  0.1271
   15MOL     C3 3111   6.351   6.234   6.027 -0.5623 -0.2649 -0.9038
   15MOL     O4 3112   6.448   6.161   5.994 -0.2764 -0.5248  0.6262
   15MOL     C5 3113   6.349   6.298   6.163  0.3070  0.1633 -0.3393
   15MOL     H6 3114   6.180   6.076   5.844 -1.1417  0.6511 -0.2757
   15MOL     H7 3115   6.330   6.144   5.761  1.3578 -0.6192  2.9259
   15MOL     H8 3116   6.154   6.250   5.992 -1.0302 -3.2867 -2.5697
   15MOL     H9 3117   6.350   6.407   6.163  0.7509  0.1609 -0.5991
   15MOL    H10 3118   6.259   6.265   6.214 -0.8314  1.1818 -1.6395
   15MOL    H11 3119   6.431   6.266   6.228 -0.5683  0.2667  0.8249
   15MOL    H12 3120   6.160   6.196   5.740 -1.4031 -2.5876 -0.1935
   15MOL    C13 3121   6.251   6.416   5.892 -0.5764 -0.0964  0.0885
   15MOL    C14 3122   6.119   6.496   5.897 -0.3354 -0.5357 -0.6618
   15MOL    C15 3123   6.032   6.453   5.779 -0.0930 -0.1798 -0.1320
   15MOL    O16 3124   6.056   6.482   5.662  0.2383 -0.0303  0.4231
   15MOL    C17 3125   5.929   6.344   5.800  0.0981  0.3595  0.6034
   15MOL    H18 3126   6.319   6.471   5.958  0.4412 -2.1905  0.8264
   15MOL    H19 3127   6.303   6.430   5.797  1.4404 -3.0337  0.6792
   15MOL    H20 3128   6.067   6.461   5.987  0.3791  0.2904  0.0880
   15MOL    H21 3129   5.901   6.314   5.700 -0.5821 -0.0483  0.9132
   15MOL    H22 3130   5.968   6.253   5.845  0.9059 -0.0631 -0.9138
   15MOL    H23 3131   5.839   6.365   5.857 -0.7415  1.1340 -0.9888
   15MOL    C24 3132   6.135   6.653   5.899  0.4245 -0.0928  0.2811
   15MOL    C25 3133   6.010   6.745   5.893 -0.1301  0.0202 -0.4638
   15MOL    C26 3134   5.925   6.727   6.021  0.5102 -0.0504 -0.0546
   15MOL    O27 3135   5.982   6.721   6.132  0.3917 -0.3308 -0.0167
   15MOL    C28 3136   5.779   6.706   6.007 -0.2146  0.6380  0.1329
   15MOL    H29 3137   6.195   6.690   5.982  2.3321 -0.8567 -0.7295
   15MOL    H30 3138   6.206   6.682   5.822  2.9707 -2.5547  1.6154
   15MOL    H31 3139   5.962   6.700   5.807  1.3190 -0.1216 -1.2221
   15MOL    H32 3140   5.729   6.782   6.067 -1.6864  0.9025 -1.3810
   15MOL    H33 3141   5.745   6.721   5.905  2.1593  4.4608 -0.1451
   15MOL    H34 3142   5.761   6.602   6.037 -0.1376  1.0343  1.6145
   15MOL    C35 3143   6.035   6.889   5.848 -0.2355  0.2200 -0.1969
   15MOL    C36 3144   6.138   6.979   5.933 -0.0589 -0.2147  0.3023
   15MOL    C37 3145   6.232   7.064   5.843 -0.4508 -0.9113  0.8364
   15MOL    O38 3146   6.179   7.167   5.794  0.0378 -0.2198  0.2754
   15MOL    C39 3147   6.365   7.002   5.798 -0.0065  0.4036 -0.0812
   15MOL    H40 3148   5.944   6.945   5.827 -0.3154 -0.0896 -0.6849
   15MOL    H41 3149   6.071   6.875   5.746 -2.1545  0.9596 -1.0069
   15MOL    H42 3150   6.203   6.907   5.984  0.0798  0.7539  1.5076
   15MOL    H43 3151   6.385   7.032   5.695 -0.3186  0.0265 -0.2542
   15MOL    H44 3152   6.366   6.893   5.809  1.5816  0.3999 -0.1458
   15MOL    H45 3153   6.446   7.042   5.858  0.0816  1.1326 -0.6828
   15MOL    C46 3154   6.079   7.056   6.049 -0.6913 -0.0661  0.1675
   15MOL    C47 3155   6.097   7.009   6.189  0.1001 -0.0362  0.7244
   15MOL    C48 3156   6.244   6.959   6.213  0.4748  0.1111  0.1927
   15MOL    O49 3157   6.349   7.027   6.181  0.4611  0.4338  0.2944
   15MOL    C50 3158   6.260   6.822   6.280  0.5031 -1.0348 -0.0415
   15MOL    H51 3159   5.971   7.071   6.046 -0.7638 -0.7004 -0.6340
   15MOL    H52 3160   6.111   7.160   6.057  2.9136 -1.1894  1.3896
   15MOL    H53 3161   6.040   6.917   6.200 -2.5376  1.0889 -2.7065
   15MOL    H54 3162   6.214   6.828   6.379  1.0317 -0.8576  0.1951
   15MOL    H55 3163   6.208   6.744   6.225 -1.1980 -1.6273  2.3487
   15MOL    H56 3164   6.364   6.788   6.280  0.8793  0.0931 -0.6354
   15MOL    C57 3165   6.040   7.105   6.299  0.4436 -0.0462  0.7036
   15MOL    C58 3166   6.027   7.045   6.442 -0.2392 -0.9951  0.3718
   15MOL    C59 3167   6.027   7.149   6.554 -0.5319 -0.2817 -0.1106
   15MOL    O60 3168   6.096   7.145   6.651  0.1595  0.0785 -0.0367
   15MOL    C61 3169   5.934   7.261   6.535 -0.7225 -0.3610  0.3897
   15MOL    H62 3170   5.940   7.138   6.269  0.7563 -1.5530 -2.1221
   15MOL    H63 3171   6.102   7.195   6.307 -0.9073  1.1632 -1.9323
   15MOL    H64 3172   6.122   6.996   6.464 -0.8396 -2.0569  0.6335
   15MOL    H65 3173   5.890   7.281   6.633  1.2310 -1.9601  1.6213
   15MOL    H66 3174   6.002   7.340   6.502  0.0653 -1.0975  0.2260
   15MOL    H67 3175   5.863   7.235   6.457  0.1653 -3.0106  0.4145
   15MOL    C68 3176   5.903   6.951   6.448 -0.1216  0.2763  0.3167
   15MOL    C69 3177   5.869   6.887   6.585  0.4938 -0.5955  0.0418
   15MOL    C70 3178   5.975   6.788   6.627 -0.2226  0.8437  0.1637
   15MOL    O71 3179   6.031   6.712   6.543  0.2161 -0.8468 -0.1033
   15MOL    C72 3180   6.025   6.798   6.772 -0.2729  0.3572 -0.0560
   15MOL    H73 3181   5.817   7.015   6.426  0.9594  2.0655  1.1698
   15MOL    H74 3182   5.912   6.874   6.371 -0.8438  1.5884 -1.1233
   15MOL    H75 3183   5.872   6.961   6.666  0.0560 -0.6804  0.1386
   15MOL    H76 3184   6.002   6.707   6.828  3.6227 -1.4506 -1.2839
   15MOL    H77 3185   6.134   6.799   6.768 -0.3210  0.3681 -1.5422
   15MOL    H78 3186   5.987   6.888   6.820 -2.7549 -0.3954 -0.5365
   15MOL    C79 3187   5.731   6.826   6.579  0.2428 -0.6684 -0.0928
   15MOL    C80 3188   5.654   6.798   6.714  0.3153 -0.3603  0.0021
   15MOL    C81 3189   5.697   6.664   6.769  0.3507 -0.1859  0.2028
   15MOL    O82 3190   5.749   6.579   6.700 -0.2487 -0.1709 -0.6318
   15MOL    C83 3191   5.693   6.643   6.916  0.0333 -0.5860  0.9622
   15MOL    H84 3192   5.724   6.736   6.519 -0.0517 -0.0524 -0.9950
   15MOL    H85 3193   5.676   6.906   6.529 -1.6255 -2.4845 -1.0371
   15MOL    H86 3194   5.680   6.874   6.787 -0.7013 -0.9208  0.9673
   15MOL    H87 3195   5.769   6.689   6.979  0.4797 -0.1512  0.1032
   15MOL    H88 3196   5.707   6.537   6.938 -0.5458 -0.4503  2.0502
   15MOL    H89 3197   5.594   6.671   6.950  0.4576  1.3998  0.5834
   15MOL    C90 3198   5.505   6.824   6.706  0.3679  0.1804 -0.2786
   15MOL    C91 3199   5.429   6.755   6.588 -0.2195  0.2516 -0.0946
   15MOL    C92 3200   5.400   6.605   6.620  0.0838 -0.1480  0.1040
   15MOL    O93 3201   5.406   6.557   6.733 -0.0834 -0.0646 -0.5549
   15MOL    C94 3202   5.327   6.523   6.512  0.2851  0.5843 -0.6440
   15MOL    H95 3203   5.464   6.812   6.806 -1.1690  1.1973 -0.7575
   15MOL    H96 3204   5.497   6.932   6.700  1.1633  0.1675 -1.7542
   15MOL    H97 3205   5.496   6.770   6.504  0.5302 -0.1379  0.4319
   15MOL    H98 3206   5.326   6.417   6.540  0.1745  0.5172 -0.9039
   15MOL    H99 3207   5.228   6.565   6.503  0.7840  1.3294 -2.9459
   15MOL   H100 3208   5.380   6.522   6.416  2.5526 -1.1928  0.5484
   15MOL   C101 3209   5.294   6.817   6.547  0.3777 -0.4458 -0.3096
   15MOL   C102 3210   5.286   6.825   6.392  0.3505 -0.1089  0.0104
   15MOL   C103 3211   5.395   6.926   6.342  0.9527 -0.1333  1.0386
   15MOL   O104 3212   5.402   7.042   6.387  0.1951 -0.1644  0.2376
   15MOL   C105 3213   5.484   6.877   6.230  0.2121  0.1412 -0.0076
   15MOL   H106 3214   5.216   6.759   6.596 -1.5473  1.8891 -0.5491
   15MOL   H107 3215   5.291   6.915   6.594 -1.1247  0.6045 -2.5119
   15MOL   H108 3216   5.300   6.728   6.345 -1.5447  1.2798 -3.6110
   15MOL   H109 3217   5.580   6.922   6.257 -0.0728  0.1034  1.0964
   15MOL   H110 3218   5.489   6.768   6.235  1.0629  0.2685  3.1935
   15MOL   H111 3219   5.441   6.912   6.136  2.7635 -1.3932 -1.8224
   15MOL   C112 3220   5.144   6.861   6.337  0.2264 -0.0434  0.2038
   15MOL   C113 3221   5.074   6.994   6.381 -1.5792 -0.2894 -0.1715
   15MOL   C114 3222   4.937   6.970   6.441  0.2564 -0.1275 -0.1770
   15MOL   O115 3223   4.838   6.954   6.369  0.5199 -0.2402 -0.5348
   15MOL   C116 3224   4.914   6.976   6.591 -0.1742  0.5068  0.6561
   15MOL   H117 3225   5.080   6.776   6.363 -0.3817  0.7011  1.1674
   15MOL   H118 3226   5.147   6.861   6.228  1.5549  1.7520  0.2222
   15MOL   H119 3227   5.130   7.047   6.458  2.7497 -2.7499 -1.4931
   15MOL   H120 3228   4.982   6.902   6.633 -2.5789 -2.1505  0.0164
   15MOL   H121 3229   4.939   7.070   6.641 -0.2382  0.4809  0.7358
   15MOL   H122 3230   4.817   6.943   6.628 -0.0801  1.4046  1.7588
   15MOL   C123 3231   5.082   7.092   6.261  0.7934 -0.8367  0.0840
   15MOL   C124 3232   5.036   7.237   6.295  0.0760 -0.4233 -0.3837
   15MOL   C125 3233   4.985   7.314   6.168 -0.5736 -0.2352  0.2029
   15MOL   O126 3234   4.874   7.365   6.159  0.0853 -0.1516 -0.0712
   15MOL   C127 3235   5.085   7.322   6.055  0.4690 -0.4827  0.9137
   15MOL   H128 3236   5.032   7.054   6.171 -1.3236  1.9296  0.0153
   15MOL   H129 3237   5.188   7.111   6.239  0.3732 -0.0187 -1.3620
   15MOL   H130 3238   4.945   7.226   6.353 -0.7590 -0.5805 -1.6873
   15MOL   H131 3239   5.150   7.235   6.059  0.6482 -0.3002  2.1897
   15MOL   H132 3240   5.135   7.419   6.058 -0.5886  0.2336 -2.5446
   15MOL   H133 3241   5.028   7.311   5.963  1.7231  1.5995 -0.1352
   15MOL   C134 3242   5.141   7.325   6.365  0.3376 -1.1935  0.0054
   15MOL   C135 3243   5.090   7.469   6.424 -0.4608 -0.3367 -0.0374
   15MOL   C136 3244   4.979   7.456   6.538 -0.0761 -0.0330 -0.0423
   15MOL   O137 3245   5.020   7.459   6.657 -0.0822 -0.6320  0.2939
   15MOL   C138 3246   4.839   7.422   6.506  0.0488 -0.4328  0.4217
   15MOL   H139 3247   5.216   7.351   6.291  0.8152 -0.2960  0.7832
   15MOL   H140 3248   5.200   7.276   6.442  0.7123  1.0635  1.2107
   15MOL   H141 3249   5.034   7.517   6.344 -1.1532 -0.3096  0.4504
   15MOL   H142 3250   4.764   7.483   6.557  1.0211 -0.8830  2.4332
   15MOL   H143 3251   4.826   7.316   6.524  1.3400 -0.8141 -0.7981
   15MOL   H144 3252   4.823   7.452   6.402  1.3535  0.8972  0.5848
   15MOL   C145 3253   5.200   7.576   6.467  0.3485  0.3742 -0.1996
   15MOL   C146 3254   5.226   7.687   6.366  0.0861 -1.1083 -0.4214
   15MOL   C147 3255   5.322   7.631   6.258  0.3087  0.1481  0.6364
   15MOL   O148 3256   5.276   7.569   6.162 -0.1020  0.3205  0.4091
   15MOL   C149 3257   5.472   7.673   6.259  0.3372  0.3499 -0.1907
   15MOL   H150 3258   5.296   7.526   6.484 -0.4654 -1.0946  0.1357
   15MOL   H151 3259   5.174   7.625   6.561  1.6089  1.5967 -0.4615
   15MOL   H152 3260   5.283   7.767   6.415  0.0084  1.4739 -4.3265
   15MOL   H153 3261   5.534   7.601   6.313  1.2537 -0.0732 -1.7747
   15MOL   H154 3262   5.509   7.688   6.158 -0.6020  0.2057 -0.5596
   15MOL   H155 3263   5.468   7.773   6.301 -2.2326  0.5794 -0.8904
   15MOL   C156 3264   5.103   7.756   6.305  0.0313  0.6124  0.4748
   15MOL   C157 3265   5.113   0.003   6.191 -0.1864 -0.3017 -0.1553
   15MOL   C158 3266   5.221   0.102   6.232  0.2012  0.1826  0.5060
   15MOL   O159 3267   5.215   0.169   6.333  0.5444 -0.2566 -0.0378
   15MOL   C160 3268   5.330   0.141   6.132  0.3690 -0.6756  0.1937
   15MOL   H161 3269   5.037   7.682   6.260  1.8234 -0.1392 -0.9666
   15MOL   H162 3270   5.049   7.819   6.376  0.2447  0.7151  0.5446
   15MOL   H163 3271   5.148   7.809   6.101  0.4151 -2.0865  1.0701
   15MOL   H164 3272   5.428   0.098   6.152 -0.9032 -3.1289  1.3161
   15MOL   H165 3273   5.339   0.250   6.136  0.4768 -0.6651 -0.3683
   15MOL   H166 3274   5.309   0.101   6.033 -0.5917 -1.5030  0.7266
   15MOL   C167 3275   4.969   0.062   6.157  0.2630 -0.0752 -0.1230
   15MOL   C168 3276   4.881   7.815   6.092 -0.5925 -0.1248  0.6118
   15MOL   C169 3277   4.922   7.759   5.949  0.6016 -0.3407 -0.1545
   15MOL   O170 3278   5.000   7.826   5.882  0.0488  0.2737  0.7413
   15MOL   C171 3279   4.865   7.628   5.912 -0.6959  0.9577  0.7721
   15MOL   H172 3280   4.922   0.117   6.239  1.1763 -1.3182  1.2653
   15MOL   H173 3281   4.990   0.138   6.082  0.0477 -0.8714 -0.9954
   15MOL   H174 3282   4.879   7.728   6.158 -0.7092 -0.0003  0.7692
   15MOL   H175 3283   4.943   7.558   5.883 -0.4746  0.7367  1.8736
   15MOL   H176 3284   4.791   7.633   5.832  0.0005 -0.0363  0.0426
   15MOL   H177 3285   4.820   7.594   6.005  1.5242  0.9378  1.8769
   15MOL   C178 3286   4.731   7.857   6.078  0.0940  0.7028 -0.1274
   15MOL   C179 3287   4.630   7.784   6.174  0.0249 -0.1578 -0.3290
   15MOL   C180 3288   4.673   7.812   6.314  0.0734 -0.8253  0.2269
   15MOL   O181 3289   4.745   7.737   6.373 -0.3524 -0.0384 -0.3093
   15MOL   C182 3290   4.627   0.087   6.370 -0.3822  0.8613  0.1607
   15MOL   H183 3291   4.724   0.106   6.099  1.5782  1.0072 -1.0846
   15MOL   H184 3292   4.697   7.855   5.975 -2.1294  0.5687  0.5802
   15MOL   H185 3293   4.534   7.835   6.174 -0.2810 -0.7326 -0.6089
   15MOL   H186 3294   4.670   0.174   6.321 -2.4618  0.4655 -2.4869
   15MOL   H187 3295   4.658   0.095   6.474 -1.6764 -1.0208  0.7180
   15MOL   H188 3296   4.519   0.098   6.380 -0.7612 -1.5372 -0.9720
   15MOL   C189 3297   4.607   7.637   6.133  0.2354 -0.5443  0.0405
   15MOL   C190 3298   4.496   7.566   6.211 -0.1689 -0.3368 -0.3091
   15MOL   C191 3299   4.362   7.639   6.211 -0.5248 -0.4088  0.2432
   15MOL   O192 3300   4.319   7.689   6.310 -0.2714  0.3067 -0.5501
   15MOL   C193 3301   4.286   7.662   6.081  0.8014  0.2920  1.0203
   15MOL   H194 3302   4.583   7.616   6.029 -1.2343  0.6971  0.1203
   15MOL   H195 3303   4.695   7.577   6.159  0.9116  0.4669  0.1157
   15MOL   H196 3304   4.538   7.554   6.311 -0.2808  2.0144  0.0542
   15MOL   H197 3305   4.178   7.663   6.095  0.4485 -1.6726 -1.2054
   15MOL   H198 3306   4.311   7.764   6.053  0.7464 -0.1142 -0.5372
   15MOL   H199 3307   4.317   7.598   5.998  0.8978 -1.0556  2.0664
   15MOL   C200 3308   4.486   7.421   6.167 -0.1583  0.3336 -0.4308
   15MOL   C201 3309   4.375   7.339   6.229  0.8887  0.3108 -0.1083
   15MOL   C202 3310   4.396   7.328   6.388 -0.0137 -0.2461 -0.0169
   15MOL   O203 3311   4.502   7.321   6.441  0.1879  0.0858 -0.3714
   15MOL   C204 3312   4.274   7.315   6.477  0.3726 -0.6612 -0.3793
   15MOL   H205 3313   4.466   7.421   6.060  1.0425  1.4480 -0.6675
   15MOL   H206 3314   4.585   7.377   6.177 -0.7882 -1.2509 -0.9300
   15MOL   H207 3315   4.279   7.390   6.222 -0.3192 -1.9785 -0.9298
   15MOL   H208 3316   4.313   7.318   6.579 -0.3044  0.7953 -0.1425
   15MOL   H209 3317   4.199   7.394   6.473 -0.7358 -1.7754 -2.4124
   15MOL   H210 3318   4.230   7.219   6.450 -1.6791 -0.1701  1.0454
   15MOL   C211 3319   4.365   7.195   6.167 -0.6086 -0.2558 -0.0076
   15MOL   C212 3320   4.483   7.101   6.191  0.3113 -0.1919  0.1092
   15MOL   C213 3321   4.440   6.952   6.172 -0.2605 -0.1179 -0.3493
   15MOL   O214 3322   4.439   6.905   6.057 -0.5673 -0.4594 -0.4430
   15MOL   C215 3323   4.400   6.874   6.298 -0.1397  0.5106 -0.2055
   15MOL   H216 3324   4.276   7.152   6.214  2.4269 -2.3689  4.0815
   15MOL   H217 3325   4.343   7.209   6.062 -0.6458 -4.3946 -0.6285
   15MOL   H218 3326   4.530   7.113   6.289 -0.5261 -1.1022  0.6343
   15MOL   H219 3327   4.418   6.769   6.277  2.0611  0.6116  1.0549
   15MOL   H220 3328   4.462   6.901   6.383 -0.6438 -1.6727  0.8859
   15MOL   H221 3329   4.294   6.895   6.313  0.1815  1.7172  0.4106
   15MOL   H222 3330   4.565   7.112   6.121 -0.2417 -2.9665 -1.0493
   16MOL     C1 3331   1.404   5.834   7.732  0.3664  0.2470 -0.4234
   16MOL     C2 3332   1.526   5.916   7.708 -0.1866  0.0422  0.2382
   16MOL     C3 3333   1.606   5.928   7.833 -0.3003 -0.1381 -0.6221
   16MOL     O4 3334   1.698   5.850   0.002 -0.3187 -0.2979  0.6322
   16MOL     C5 3335   1.565   6.046   0.063  0.8743  0.0028  0.1163
   16MOL     H6 3336   1.324   5.887   7.784  0.6783 -0.0433  0.3557
   16MOL     H7 3337   1.430   5.746   7.791  0.6878 -0.2798 -1.3429
   16MOL     H8 3338   1.483   6.012   7.678 -3.0946 -1.1794  0.2969
   16MOL     H9 3339   1.651   6.084   0.119  0.3120  2.7318 -0.7903
   16MOL    H10 3340   1.519   6.124   0.003 -2.8681 -1.9259  0.3535
   16MOL    H11 3341   1.495   6.013   0.140 -0.1805 -2.8743 -2.0006
   16MOL    H12 3342   1.367   5.792   7.638 -2.3661  0.6322  0.4183
   16MOL    C13 3343   1.601   5.841   7.592  0.4884  0.1937 -0.3673
   16MOL    C14 3344   1.750   5.899   7.570 -0.8163  0.5106 -0.6130
   16MOL    C15 3345   1.754   6.056   7.550  0.0455 -0.2968 -0.1439
   16MOL    O16 3346   1.656   6.117   7.508 -0.2421 -0.2392  0.0575
   16MOL    C17 3347   1.871   6.138   7.595 -0.2539 -0.4723 -0.6781
   16MOL    H18 3348   1.621   5.737   7.621  1.4355  0.1559 -1.1221
   16MOL    H19 3349   1.548   5.841   7.497  1.5432  3.0201 -0.9911
   16MOL    H20 3350   1.821   5.876   7.650 -2.4071  1.5129  1.1429
   16MOL    H21 3351   1.851   6.236   7.551 -2.0800 -0.6494 -0.3108
   16MOL    H22 3352   1.867   6.151   7.703 -0.5390  0.7343 -0.8289
   16MOL    H23 3353   1.967   6.097   7.565  0.0791  0.9100 -1.5373
   16MOL    C24 3354   1.808   5.826   7.450 -0.6450 -0.4661 -0.1598
   16MOL    C25 3355   1.953   5.835   7.418 -0.3582 -1.2300 -0.3337
   16MOL    C26 3356   2.049   5.807   7.538  0.3598  0.1471  0.0353
   16MOL    O27 3357   2.113   5.896   7.590  0.0701  0.3486  0.2863
   16MOL    C28 3358   2.057   5.665   7.594  0.0989 -0.6120  1.3623
   16MOL    H29 3359   1.769   5.724   7.454 -0.9998 -0.3413 -0.4214
   16MOL    H30 3360   1.750   5.879   7.374  0.5980  1.5632  0.2902
   16MOL    H31 3361   1.977   5.933   7.376  2.1238 -1.4572  0.4560
   16MOL    H32 3362   2.044   5.664   7.702 -1.5959  1.1873  1.1877
   16MOL    H33 3363   1.972   5.607   7.558  0.6590  1.2515 -3.3279
   16MOL    H34 3364   2.154   5.622   7.565 -0.9479 -0.4491 -2.6208
   16MOL    C35 3365   1.989   5.742   7.300 -0.0358 -0.0924  0.2978
   16MOL    C36 3366   2.004   5.796   7.159  0.3487 -0.9047 -0.2304
   16MOL    C37 3367   1.873   5.861   7.109  0.1698  0.6289  0.4956
   16MOL    O38 3368   1.849   5.980   7.142  0.0212 -0.2277  0.4504
   16MOL    C39 3369   1.766   5.792   7.020  0.8923 -0.1139  0.7561
   16MOL    H40 3370   1.917   5.661   7.308 -1.3309  0.9648 -0.3266
   16MOL    H41 3371   2.083   5.690   7.318  0.0804  0.6889  2.1050
   16MOL    H42 3372   2.021   5.710   7.094  0.7693 -2.2384  1.5985
   16MOL    H43 3373   1.798   5.744   6.928 -0.3254  1.8865 -0.7485
   16MOL    H44 3374   1.679   5.857   7.010  2.5750  2.2803  1.1592
   16MOL    H45 3375   1.721   5.710   7.077  1.9831  0.2913  2.2315
   16MOL    C46 3376   2.128   5.896   7.152 -0.3231  0.5599  0.0249
   16MOL    C47 3377   2.192   5.919   7.011 -0.0644 -0.3924 -0.7075
   16MOL    C48 3378   2.296   5.809   6.986  0.7634  0.4821 -0.2779
   16MOL    O49 3379   2.270   5.703   6.931 -0.1189  0.5036  0.0128
   16MOL    C50 3380   2.435   5.843   7.028  0.1010  0.0418 -0.3972
   16MOL    H51 3381   2.204   5.859   7.221  0.9948  1.9128 -0.6649
   16MOL    H52 3382   2.109   5.997   7.189  1.6508  1.4512 -1.3173
   16MOL    H53 3383   2.243   6.014   6.998 -1.8854  0.5144 -1.3985
   16MOL    H54 3384   2.423   5.927   7.096 -2.0388  0.8916 -1.7539
   16MOL    H55 3385   2.478   5.757   7.078  0.1453  0.0007 -0.5075
   16MOL    H56 3386   2.490   5.858   6.936  2.6173 -2.7460  0.5767
   16MOL    C57 3387   2.084   5.915   6.896  0.3936  0.3915  0.0953
   16MOL    C58 3388   2.114   5.977   6.761 -0.8890 -0.2926  0.1232
   16MOL    C59 3389   2.206   5.882   6.678  0.6915 -0.4478 -0.1297
   16MOL    O60 3390   2.168   5.774   6.623  0.1962  0.6722  0.3592
   16MOL    C61 3391   2.352   5.933   6.658  0.4105  0.8187  0.4019
   16MOL    H62 3392   1.996   5.972   6.926 -1.6468 -2.2400 -0.7067
   16MOL    H63 3393   2.048   5.813   6.893  2.9203 -0.6374  2.4450
   16MOL    H64 3394   2.158   6.074   6.784 -0.4007 -0.0438 -1.7495
   16MOL    H65 3395   2.414   5.858   6.706 -0.7302  0.0516  0.7169
   16MOL    H66 3396   2.368   5.959   6.554 -1.4147  2.2675  0.4505
   16MOL    H67 3397   2.369   6.020   6.722 -1.4221  0.4407  1.4462
   16MOL    C68 3398   1.979   6.007   6.687 -0.1686  0.1639  0.2079
   16MOL    C69 3399   1.964   6.154   6.639  0.0984  0.4076 -0.1684
   16MOL    C70 3400   1.961   6.261   6.756  0.1515 -0.4166 -0.6372
   16MOL    O71 3401   1.935   6.231   6.868  0.0954  0.2300 -0.2259
   16MOL    C72 3402   1.982   6.407   6.715 -0.1364  0.2300 -0.0400
   16MOL    H73 3403   1.957   5.929   6.614  0.3667 -0.9596  1.2427
   16MOL    H74 3404   1.897   5.991   6.756  1.2398  0.4486  1.9824
   16MOL    H75 3405   2.057   6.171   6.585 -0.4882  0.5785 -1.1398
   16MOL    H76 3406   1.911   6.480   6.753 -0.1089  1.1725 -1.7645
   16MOL    H77 3407   2.078   6.443   6.751 -0.1528  0.7346 -0.4846
   16MOL    H78 3408   1.988   6.402   6.606  0.3217  0.2909 -0.0175
   16MOL    C79 3409   1.844   6.173   6.554  0.0299 -0.9802 -0.2833
   16MOL    C80 3410   1.707   6.168   6.621  0.6181  0.0282 -0.2285
   16MOL    C81 3411   1.634   6.030   6.609  0.4902  0.4143 -0.1472
   16MOL    O82 3412   1.655   5.950   6.514 -0.2958  0.1918 -0.3806
   16MOL    C83 3413   1.543   5.984   6.724  0.5866 -0.0489  0.1316
   16MOL    H84 3414   1.854   6.112   6.464 -0.1306  0.4393 -1.2759
   16MOL    H85 3415   1.867   6.270   6.512 -1.7615 -0.8172 -0.9402
   16MOL    H86 3416   1.719   6.183   6.728 -0.7824  0.4036 -0.1076
   16MOL    H87 3417   1.507   5.882   6.713 -0.1090  0.0715  1.3269
   16MOL    H88 3418   1.447   6.036   6.721 -0.5410 -2.0835 -0.0897
   16MOL    H89 3419   1.583   5.999   6.824  0.2946  0.0184  0.2389
   16MOL    C90 3420   1.626   6.285   6.570 -0.2689 -0.7211 -0.5832
   16MOL    C91 3421   1.526   6.274   6.445 -0.4049  0.0357  0.0554
   16MOL    C92 3422   1.377   6.281   6.500 -0.2151  0.2825 -0.0851
   16MOL    O93 3423   1.292   6.189   6.495 -0.1391  0.2794  0.3405
   16MOL    C94 3424   1.337   6.408   6.570  0.2977  0.0736  0.1936
   16MOL    H95 3425   1.567   6.316   6.656  2.5490  0.5877  0.9736
   16MOL    H96 3426   1.686   6.375   6.554  0.5541 -1.0273  0.6826
   16MOL    H97 3427   1.543   6.178   6.397 -1.5729  0.3203 -0.9426
   16MOL    H98 3428   1.310   6.376   6.671 -2.8631  1.5628 -0.1301
   16MOL    H99 3429   1.411   6.487   6.576 -1.6802  1.9636  0.5002
   16MOL   H100 3430   1.244   6.448   6.530  0.9540 -2.1741 -3.8879
   16MOL   C101 3431   1.553   6.389   6.341 -0.4279 -0.0039 -0.8060
   16MOL   C102 3432   1.694   6.365   6.280  0.0913 -0.2617  0.1395
   16MOL   C103 3433   1.787   6.481   6.305  0.0289 -0.0401 -0.1800
   16MOL   O104 3434   1.891   6.465   6.365 -0.3895  0.5896 -0.3703
   16MOL   C105 3435   1.755   6.613   6.237 -0.1625  0.4606  0.0293
   16MOL   H106 3436   1.484   6.392   6.256  0.4886  0.0829 -1.5586
   16MOL   H107 3437   1.544   6.488   6.384 -2.3276  0.4076 -2.0439
   16MOL   H108 3438   1.741   6.289   6.341  0.2577  1.3814  2.1303
   16MOL   H109 3439   1.830   6.684   6.272  1.9128 -1.5502 -0.1851
   16MOL   H110 3440   1.767   6.604   6.129 -1.1889  0.9765 -0.1279
   16MOL   H111 3441   1.659   6.654   6.267 -0.9959 -2.1495  1.1130
   16MOL   C112 3442   1.706   6.325   6.133 -0.3436 -0.3550  0.2768
   16MOL   C113 3443   1.650   6.190   6.080  0.4932 -0.5480  0.7156
   16MOL   C114 3444   1.505   6.174   6.086 -0.2019 -0.1627 -0.4924
   16MOL   O115 3445   1.442   6.107   6.164  0.1890  0.0283 -0.7195
   16MOL   C116 3446   1.433   6.256   5.989 -0.2923 -0.5370  0.2356
   16MOL   H117 3447   1.813   6.321   6.114 -0.5441  0.0152 -0.9250
   16MOL   H118 3448   1.664   6.397   6.063  0.1409 -1.4295 -1.1489
   16MOL   H119 3449   1.670   6.193   5.973 -1.1604  0.9147  0.4138
   16MOL   H120 3450   1.492   6.285   5.902  1.8148 -0.8359  1.5270
   16MOL   H121 3451   1.340   6.216   5.949 -0.6399 -0.1194  0.6193
   16MOL   H122 3452   1.413   6.354   6.033 -3.8218 -0.5404 -1.1376
   16MOL   C123 3453   1.739   6.069   6.135 -0.3177  0.2482 -0.9281
   16MOL   C124 3454   1.686   5.928   6.094  0.4288 -0.3827 -0.2623
   16MOL   C125 3455   1.769   5.813   6.149 -0.8282  0.2416  0.2882
   16MOL   O126 3456   1.880   5.782   6.090 -0.7666 -0.2752  0.1969
   16MOL   C127 3457   1.723   5.743   6.277 -0.0487 -0.6785  0.2675
   16MOL   H128 3458   1.718   6.077   6.241 -0.1613  1.3378 -0.9795
   16MOL   H129 3459   1.847   6.071   6.125 -0.0943 -0.7059  1.0644
   16MOL   H130 3460   1.582   5.919   6.124  0.0134 -0.3139 -1.6529
   16MOL   H131 3461   1.634   5.790   6.320  0.2767  0.1227  0.0736
   16MOL   H132 3462   1.807   5.725   6.345  0.8567 -1.9534 -1.1692
   16MOL   H133 3463   1.693   5.641   6.253 -0.1203 -0.1986 -1.7138
   16MOL   C134 3464   1.684   5.918   5.939  0.2599 -0.5231  0.3837
   16MOL   C135 3465   1.589   5.810   5.876  0.3584 -0.5908  0.3424
   16MOL   C136 3466   1.435   5.829   5.923  0.1070  0.2794 -0.0077
   16MOL   O137 3467   1.364   5.910   5.862  0.1781  0.1498 -0.2808
   16MOL   C138 3468   1.383   5.762   6.047 -0.2736 -0.1619 -0.2457
   16MOL   H139 3469   1.785   5.899   5.902  0.0954  0.4527 -0.5760
   16MOL   H140 3470   1.673   6.015   5.891  1.4738 -0.5842 -0.0440
   16MOL   H141 3471   1.637   5.722   5.919 -0.6477 -2.0452 -1.4305
   16MOL   H142 3472   1.351   5.660   6.027 -1.2440 -0.0309  0.5616
   16MOL   H143 3473   1.299   5.814   6.093 -0.8726 -0.0695 -1.4219
   16MOL   H144 3474   1.464   5.770   6.119 -0.8372 -0.8252  0.4727
   16MOL   C145 3475   1.609   5.798   5.720 -0.5181 -0.0708 -0.7453
   16MOL   C146 3476   1.569   5.657   5.671  0.4499  0.3231  0.2842
   16MOL   C147 3477   1.549   5.655   5.519  0.0647 -0.2637  0.1282
   16MOL   O148 3478   1.619   5.730   5.449  0.2087 -0.0060 -0.6974
   16MOL   C149 3479   1.452   5.569   5.456  1.0480  0.5899  0.3437
   16MOL   H150 3480   1.710   5.811   5.681 -0.1240 -1.1117 -0.0860
   16MOL   H151 3481   1.544   5.868   5.665  1.1753  3.1832  1.2409
   16MOL   H152 3482   1.468   5.649   5.710 -0.3551  1.5238 -1.4995
   16MOL   H153 3483   1.386   5.526   5.531 -0.1985 -0.3646 -1.2734
   16MOL   H154 3484   1.391   5.622   5.384  0.8023  1.3862  1.1289
   16MOL   H155 3485   1.514   5.491   5.411 -0.9464 -1.7296  1.4941
   16MOL   C156 3486   1.660   5.537   5.728 -0.4053 -0.3449 -0.4316
   16MOL   C157 3487   1.574   5.414   5.748 -0.6542  0.7072 -0.1981
   16MOL   C158 3488   1.478   5.433   5.864 -0.3717  0.8252 -0.2607
   16MOL   O159 3489   1.507   5.501   5.965  0.0497 -0.5389 -0.0106
   16MOL   C160 3490   1.349   5.347   5.857 -0.0259 -0.2212  0.1705
   16MOL   H161 3491   1.745   5.524   5.661  1.3277 -1.5236  1.9179
   16MOL   H162 3492   1.706   5.559   5.825 -0.0776 -0.5997 -0.5296
   16MOL   H163 3493   1.511   5.400   5.660  2.4527 -1.9473 -2.1218
   16MOL   H164 3494   1.297   5.338   5.952  0.0099  2.6865  0.5066
   16MOL   H165 3495   1.363   5.250   5.808  0.3842 -0.9305  1.6746
   16MOL   H166 3496   1.283   5.401   5.789  1.3265  1.6671  0.3485
   16MOL   C167 3497   1.655   5.279   5.741 -0.0935  0.3526 -0.2627
   16MOL   C168 3498   1.734   5.226   5.870  0.3945 -0.1578  0.8483
   16MOL   C169 3499   1.848   5.326   5.883  0.8691 -0.2180 -0.6075
   16MOL   O170 3500   1.926   5.356   5.795  0.4122  0.3213 -0.1496
   16MOL   C171 3501   1.867   5.379   6.025 -0.0669  0.5951 -0.1326
   16MOL   H172 3502   1.575   5.208   5.725  0.7336 -0.5837 -0.2663
   16MOL   H173 3503   1.712   5.277   5.649 -0.7613 -0.9094 -0.6591
   16MOL   H174 3504   1.667   5.227   5.956  0.7359 -0.4773  1.1240
   16MOL   H175 3505   1.961   5.434   6.031  0.4333 -0.0086 -2.0284
   16MOL   H176 3506   1.876   5.296   6.095  0.5882  0.8644  0.1082
   16MOL   H177 3507   1.788   5.445   6.060  1.0160  1.2898  1.0419
   16MOL   C178 3508   1.804   5.091   5.846 -0.3833 -0.8922 -0.5690
   16MOL   C179 3509   1.709   4.970   5.863 -0.4572 -0.3854  0.4067
   16MOL   C180 3510   1.659   4.968   6.015 -0.0175  0.2775  0.1138
   16MOL   O181 3511   1.730   4.924   6.104 -0.4149 -0.7644  0.0179
   16MOL   C182 3512   1.513   5.009   6.043  0.3898 -0.6676 -0.0585
   16MOL   H183 3513   1.842   5.077   5.745  0.3838 -2.0336 -0.1266
   16MOL   H184 3514   1.890   5.086   5.913 -1.6756  1.4245  1.3503
   16MOL   H185 3515   1.628   4.974   5.790  0.1317 -1.2251 -0.3038
   16MOL   H186 3516   1.485   4.944   6.126  2.0169 -2.1262 -0.6155
   16MOL   H187 3517   1.454   4.994   5.953  1.9613  0.6850 -1.3428
   16MOL   H188 3518   1.504   5.114   6.071  1.8849 -0.7293  0.7215
   16MOL   C189 3519   1.788   4.844   5.825  1.1509 -0.0480 -0.4920
   16MOL   C190 3520   1.717   4.706   5.845 -0.6885 -0.7076  0.3578
   16MOL   C191 3521   1.592   4.694   5.761 -0.3715 -1.0809 -1.0073
   16MOL   O192 3522   1.480   4.715   5.811 -0.2196 -0.8417  0.8860
   16MOL   C193 3523   1.613   4.663   5.612 -0.5606 -0.4529 -0.6821
   16MOL   H194 3524   1.847   4.842   5.734  0.0715  1.6464 -1.2553
   16MOL   H195 3525   1.875   4.838   5.891  0.7250 -2.8395 -0.1029
   16MOL   H196 3526   1.685   4.707   5.949 -0.2839  1.0454  0.4781
   16MOL   H197 3527   1.525   4.695   5.557  0.5075  1.5637 -1.2711
   16MOL   H198 3528   1.708   4.702   5.577  0.6313 -3.7706 -1.2291
   16MOL   H199 3529   1.620   4.557   5.590  0.2273 -0.4273 -0.5694
   16MOL   C200 3530   1.818   4.592   5.833 -0.0758  0.3072  0.6269
   16MOL   C201 3531   1.763   4.452   5.828 -0.0071  0.2400  0.1804
   16MOL   C202 3532   1.686   4.428   5.961 -0.0658 -0.0384  0.5010
   16MOL   O203 3533   1.739   4.447   6.069 -0.5266 -0.2795  0.3344
   16MOL   C204 3534   1.542   4.384   5.949  0.4403 -0.5130  0.5020
   16MOL   H205 3535   1.898   4.604   5.760 -2.0214  0.3619 -1.5315
   16MOL   H206 3536   1.880   4.592   5.923 -0.2669 -1.0020  0.7689
   16MOL   H207 3537   1.705   4.439   5.736 -0.3333 -1.6187  0.6197
   16MOL   H208 3538   1.499   4.416   5.854  2.9834  0.0930 -0.4753
   16MOL   H209 3539   1.534   4.275   5.955  1.2743 -0.5461  1.1431
   16MOL   H210 3540   1.486   4.423   6.034 -1.1584  0.2310 -0.8841
   16MOL   C211 3541   1.880   4.349   5.809  0.4856 -0.2681  0.1600
   16MOL   C212 3542   1.823   4.203   5.790  0.3745  0.5518 -0.4725
   16MOL   C213 3543   1.901   4.115   5.693 -0.6026  0.1226  0.1158
   16MOL   O214 3544   2.017   4.138   5.657  0.1961  0.1013 -0.1163
   16MOL   C215 3545   1.833   3.996   5.633  0.5470  0.1204  0.6911
   16MOL   H216 3546   1.921   4.382   5.714 -0.3232 -0.3635 -0.2295
   16MOL   H217 3547   1.957   4.353   5.886 -0.5110  2.6687  1.0454
   16MOL   H218 3548   1.721   4.210   5.752  0.1130 -1.5153 -0.2407
   16MOL   H219 3549   1.793   3.921   5.702 -0.9601  0.3457  0.0999
   16MOL   H220 3550   1.739   4.020   5.583  1.3146  2.3643  0.2865
   16MOL   H221 3551   1.905   3.950   5.566 -0.7933  1.3306 -1.6392
   16MOL   H222 3552   1.817   4.155   5.888  3.8659  2.1942  0.5989
   17MOL     C1 3553   2.789   0.261   3.952 -0.5247 -0.0337  0.2442
   17MOL     C2 3554   2.928   0.195   3.942  0.0110 -0.1293 -0.2821
   17MOL     C3 3555   2.907   0.045   3.979 -0.8180 -0.0924  0.0512
   17MOL     O4 3556   2.807   7.845   3.935  0.2406  0.0690 -0.1481
   17MOL     C5 3557   3.017   7.832   4.058 -0.8260 -0.5066 -0.2683
   17MOL     H6 3558   2.789   0.365   3.986  1.9273  0.2337 -0.5235
   17MOL     H7 3559   2.725   0.219   4.030  0.3281 -0.9953  0.4474
   17MOL     H8 3560   2.987   0.238   4.023  0.0995 -1.7159  0.5146
   17MOL     H9 3561   3.069   0.033   4.135  2.2093 -0.8298 -1.9949
   17MOL    H10 3562   2.986   7.735   4.097  0.4490 -1.5985 -1.8720
   17MOL    H11 3563   3.086   7.801   3.979  0.0376  0.1992  0.1966
   17MOL    H12 3564   2.732   0.260   3.860 -0.2155 -0.1417  0.0546
   17MOL    C13 3565   3.006   0.218   3.807 -0.4390 -0.4334 -0.5979
   17MOL    C14 3566   3.157   0.229   3.828 -0.0063  0.8677 -0.1963
   17MOL    C15 3567   3.195   0.352   3.903  0.7319 -0.1179  0.3269
   17MOL    O16 3568   3.127   0.455   3.896  0.6920 -0.0757  0.1601
   17MOL    C17 3569   3.319   0.358   3.991 -0.1262 -0.6681 -0.0945
   17MOL    H18 3570   2.974   0.136   3.743  1.2264  1.1602 -3.5900
   17MOL    H19 3571   2.979   0.315   3.766  1.6710 -0.4071 -1.9930
   17MOL    H20 3572   3.189   0.148   3.894  1.2428 -0.2912 -2.1401
   17MOL    H21 3573   3.406   0.386   3.933 -1.7135  2.0842 -1.2492
   17MOL    H22 3574   3.312   0.447   4.055  0.1703 -0.0138 -0.9713
   17MOL    H23 3575   3.341   0.275   4.058  0.3976  1.4465  2.4528
   17MOL    C24 3576   3.243   0.228   3.695  0.0029  0.0470  0.1957
   17MOL    C25 3577   3.396   0.203   3.695 -0.0266  0.1500 -0.8185
   17MOL    C26 3578   3.439   0.055   3.722 -0.3625 -0.7204 -0.5630
   17MOL    O27 3579   3.422   7.831   3.636  0.0188 -0.2077  0.5521
   17MOL    C28 3580   3.485   0.022   3.869 -0.0232 -0.2425 -0.7074
   17MOL    H29 3581   3.189   0.153   3.637  0.4081 -1.5897  1.8910
   17MOL    H30 3582   3.212   0.317   3.640 -0.5340 -0.8869 -1.0335
   17MOL    H31 3583   3.432   0.271   3.772  3.6433 -0.7477 -1.6698
   17MOL    H32 3584   3.399   7.837   3.921 -0.8152  1.7236 -0.3851
   17MOL    H33 3585   3.553   7.795   3.866 -1.4443 -1.5955  2.5548
   17MOL    H34 3586   3.530   0.107   3.920 -0.5976 -0.1306 -0.3782
   17MOL    C35 3587   3.450   0.240   3.551  0.5530  0.8637 -0.4067
   17MOL    C36 3588   3.590   0.207   3.502  0.7544  0.2636  0.4235
   17MOL    C37 3589   3.622   0.263   3.364 -0.3443 -0.9001 -0.4036
   17MOL    O38 3590   3.627   0.384   3.352 -0.1962 -0.2494  0.3356
   17MOL    C39 3591   3.660   0.175   3.245  0.1320 -1.3922 -0.3876
   17MOL    H40 3592   3.426   0.346   3.550 -0.8575  0.5449 -1.0266
   17MOL    H41 3593   3.383   0.215   3.469  0.0756  2.0344 -0.3791
   17MOL    H42 3594   3.594   0.099   3.490  1.2809  0.4832 -1.6161
   17MOL    H43 3595   3.567   0.137   3.203 -0.2388 -0.5983 -0.3045
   17MOL    H44 3596   3.729   0.096   3.273  2.2375  0.1781 -1.0536
   17MOL    H45 3597   3.705   0.245   3.174 -0.8879 -1.9017 -1.5552
   17MOL    C46 3598   3.699   0.249   3.604 -0.1318  0.4481  0.3257
   17MOL    C47 3599   3.802   0.140   3.643  0.1036  0.2797 -0.1500
   17MOL    C48 3600   3.891   0.091   3.527  0.7197  0.4428 -0.8039
   17MOL    O49 3601   3.954   0.168   3.460 -0.6803 -0.0051  0.2441
   17MOL    C50 3602   3.886   7.793   3.521 -0.0429 -0.8547 -0.4336
   17MOL    H51 3603   3.645   0.289   3.690 -2.2307  1.0053 -1.2366
   17MOL    H52 3604   3.752   0.340   3.576  0.7958 -0.1024  0.2860
   17MOL    H53 3605   3.748   0.051   3.675  1.7684 -0.7192 -0.0809
   17MOL    H54 3606   3.985   7.750   3.531  0.8337  1.3726  0.8527
   17MOL    H55 3607   3.819   7.738   3.587  1.3096 -0.5715  1.1962
   17MOL    H56 3608   3.857   7.764   3.420 -0.1677 -0.7327 -0.4340
   17MOL    C57 3609   3.888   0.184   3.758 -0.0620  0.2731 -1.0642
   17MOL    C58 3610   3.987   0.076   3.815  0.1790 -0.1116 -1.0070
   17MOL    C59 3611   4.074   0.147   3.923  0.0484 -0.1300 -0.6164
   17MOL    O60 3612   4.022   0.185   4.025 -0.5855  0.2278 -0.0927
   17MOL    C61 3613   4.223   0.136   3.905 -0.3977  0.0320 -0.1134
   17MOL    H62 3614   3.832   0.235   3.836  0.4002 -0.7112 -0.0796
   17MOL    H63 3615   3.938   0.271   3.717 -1.1912  1.4820  0.0837
   17MOL    H64 3616   4.052   0.023   3.744  2.3596 -1.4151  1.8263
   17MOL    H65 3617   4.272   0.148   4.001 -1.8523 -2.4845  1.0043
   17MOL    H66 3618   4.248   0.044   3.852  1.7023 -0.0884  1.0675
   17MOL    H67 3619   4.259   0.217   3.842  2.4935 -0.6767  0.5887
   17MOL    C68 3620   3.912   7.811   3.875 -0.7531  0.3267  0.5463
   17MOL    C69 3621   3.998   7.710   3.966  0.3161 -0.2466 -0.7257
   17MOL    C70 3622   4.091   7.629   3.880  0.2966  0.3243  0.0179
   17MOL    O71 3623   4.061   7.605   3.763  0.0844 -0.0157 -0.2891
   17MOL    C72 3624   4.212   7.569   3.948 -0.2631 -0.3833  0.1226
   17MOL    H73 3625   3.819   7.835   3.926 -1.4069  0.8026 -0.8648
   17MOL    H74 3626   3.873   7.750   3.793 -0.0604 -0.0832  0.5205
   17MOL    H75 3627   4.066   7.769   4.027 -0.5813 -1.6577  1.7070
   17MOL    H76 3628   4.212   7.463   3.973  0.6647  0.2904  3.3271
   17MOL    H77 3629   4.303   7.582   3.890 -1.0756  1.0537 -0.8654
   17MOL    H78 3630   4.220   7.618   4.046 -2.8897 -0.3529  0.3669
   17MOL    C79 3631   3.910   7.619   4.054 -0.0452 -0.1981 -0.0501
   17MOL    C80 3632   3.866   7.678   4.195 -0.3104 -0.1262 -0.1975
   17MOL    C81 3633   3.979   7.720   4.285  0.0066 -0.0075 -0.3093
   17MOL    O82 3634   4.092   7.675   4.286  0.0487  0.1601  0.0695
   17MOL    C83 3635   3.955   7.843   4.377 -1.2340  0.3560 -0.0906
   17MOL    H84 3636   3.963   7.526   4.076 -1.3554 -1.5017 -2.1521
   17MOL    H85 3637   3.818   7.589   4.003 -0.0462 -0.9281  0.3694
   17MOL    H86 3638   3.807   7.762   4.161  0.4222  0.3489 -0.3195
   17MOL    H87 3639   3.848   0.003   4.389 -1.7486 -1.8903 -1.0275
   17MOL    H88 3640   4.001   0.075   4.336 -0.2546 -0.1735 -0.1614
   17MOL    H89 3641   3.996   7.818   4.475 -0.5640 -0.5658 -0.5937
   17MOL    C90 3642   3.769   7.573   4.254  0.0707 -0.2904  0.4314
   17MOL    C91 3643   3.669   7.615   4.360  1.0875 -0.2659 -0.1771
   17MOL    C92 3644   3.579   7.727   4.299  0.5149 -0.3362  0.5358
   17MOL    O93 3645   3.597   7.844   4.331 -0.3684 -0.7522 -0.4333
   17MOL    C94 3646   3.470   7.688   4.194  0.2304  0.2397 -0.3774
   17MOL    H95 3647   3.722   7.524   4.169  0.4840  0.4292 -0.2239
   17MOL    H96 3648   3.827   7.490   4.293 -0.9484 -1.0958  0.2561
   17MOL    H97 3649   3.711   7.678   4.439 -1.3627  0.5627  0.4914
   17MOL    H98 3650   3.403   7.615   4.240 -0.7340  0.3991 -1.5044
   17MOL    H99 3651   3.411   7.775   4.166 -0.6473 -0.3519 -0.4101
   17MOL   H100 3652   3.514   7.648   4.103 -0.2604 -0.5918 -0.2574
   17MOL   C101 3653   3.589   7.504   4.424  0.0432 -0.3194 -0.3840
   17MOL   C102 3654   3.643   7.481   4.579  0.1558  0.3722 -0.5661
   17MOL   C103 3655   3.779   7.428   4.592 -0.2422 -0.5907  0.4719
   17MOL   O104 3656   3.812   7.331   4.515  0.5584 -0.0883 -0.1645
   17MOL   C105 3657   3.874   7.475   4.696  0.8937 -0.3314  0.1093
   17MOL   H106 3658   3.487   7.542   4.429 -0.4328 -1.0596 -3.7951
   17MOL   H107 3659   3.576   7.414   4.364  0.3172 -0.0521 -0.8451
   17MOL   H108 3660   3.645   7.583   4.618  0.5794 -0.1047  0.6849
   17MOL   H109 3661   3.972   7.428   4.683  0.4990 -1.2097  0.3348
   17MOL   H110 3662   3.898   7.577   4.666 -0.2708 -0.0466  0.1197
   17MOL   H111 3663   3.845   7.473   4.801 -0.4433  2.2640 -0.1579
   17MOL   C112 3664   3.531   7.407   4.660 -0.3907  0.5007  0.0981
   17MOL   C113 3665   3.525   7.252   4.657 -0.3179 -0.3556 -0.4393
   17MOL   C114 3666   3.481   7.188   4.527  0.0089 -0.2895  0.1377
   17MOL   O115 3667   3.369   7.199   4.477 -0.2351 -0.7702 -0.3123
   17MOL   C116 3668   3.583   7.094   4.464 -0.5443  0.3878  0.5232
   17MOL   H117 3669   3.431   7.441   4.635 -0.7421 -1.3621 -1.1692
   17MOL   H118 3670   3.519   7.452   4.758 -1.4284  0.3902  0.0216
   17MOL   H119 3671   3.623   7.210   4.678 -0.4900 -0.1159  0.9146
   17MOL   H120 3672   3.533   7.049   4.378  1.0216 -1.6404  0.6167
   17MOL   H121 3673   3.668   7.150   4.425 -1.6193  2.3383  0.9466
   17MOL   H122 3674   3.637   7.023   4.526 -0.2201  0.1888  0.0189
   17MOL   C123 3675   3.434   7.198   4.771 -1.1026 -0.1420  0.3180
   17MOL   C124 3676   3.440   7.043   4.811 -0.5101 -0.5077 -0.3440
   17MOL   C125 3677   3.334   6.986   4.912 -0.0079 -0.1768  0.3524
   17MOL   O126 3678   3.350   7.002   5.033  0.5989  0.2790  0.4352
   17MOL   C127 3679   3.215   6.909   4.858  0.1210  0.3944  0.1089
   17MOL   H128 3680   3.335   7.228   4.738 -1.3536 -0.6958  0.5644
   17MOL   H129 3681   3.472   7.252   4.858  3.3606  0.3799 -1.8150
   17MOL   H130 3682   3.424   6.991   4.716 -3.5402 -1.0768  0.4008
   17MOL   H131 3683   3.190   6.923   4.753 -1.1031 -1.8649  0.0631
   17MOL   H132 3684   3.127   6.927   4.919 -0.1011 -0.2195 -0.0293
   17MOL   H133 3685   3.246   6.805   4.867 -2.9070 -0.8616 -2.9126
   17MOL   C134 3686   3.583   7.007   4.863 -0.3649 -0.5318  0.4580
   17MOL   C135 3687   3.619   6.855   4.900 -0.2160  0.0930  0.5980
   17MOL   C136 3688   3.585   6.749   4.793 -0.1682  0.2883 -0.0598
   17MOL   O137 3689   3.555   6.777   4.679  0.0549  0.2882  0.4063
   17MOL   C138 3690   3.589   6.600   4.822 -0.4668 -0.4233  0.0508
   17MOL   H139 3691   3.609   7.065   4.951  0.2896  0.4031 -0.3297
   17MOL   H140 3692   3.653   7.049   4.790 -0.6828 -0.8217 -0.0203
   17MOL   H141 3693   3.559   6.828   4.986 -1.4640 -1.0315 -0.6076
   17MOL   H142 3694   3.689   6.560   4.842 -0.4253  0.6115  1.9878
   17MOL   H143 3695   3.552   6.545   4.735 -0.8060  1.0795 -0.7608
   17MOL   H144 3696   3.522   6.584   4.907 -0.9539 -2.1156 -0.6416
   17MOL   C145 3697   3.775   6.827   4.944  0.2578  0.9211  0.4061
   17MOL   C146 3698   3.883   6.853   4.833  0.1003 -0.3536 -0.3965
   17MOL   C147 3699   3.927   7.002   4.826 -0.1371 -0.2106  0.5125
   17MOL   O148 3700   3.948   7.058   4.930 -0.0169 -0.1956 -0.2852
   17MOL   C149 3701   3.928   7.081   4.696  0.5307 -0.4063 -0.0884
   17MOL   H150 3702   3.785   6.725   4.982 -0.8819  0.6201 -0.0847
   17MOL   H151 3703   3.791   6.889   5.032  0.7614  0.0697  0.9193
   17MOL   H152 3704   3.841   6.824   4.736  1.3726 -2.7384 -0.2697
   17MOL   H153 3705   3.896   7.182   4.723 -0.1413 -0.4702 -0.6468
   17MOL   H154 3706   4.031   7.069   4.661  0.7271  2.2004 -0.4838
   17MOL   H155 3707   3.861   7.035   4.624  1.8662  0.0753 -1.6884
   17MOL   C156 3708   4.011   6.769   4.837 -0.3680 -0.2700  0.7062
   17MOL   C157 3709   4.050   6.709   4.703 -0.7556  0.4017 -0.0598
   17MOL   C158 3710   3.983   6.581   4.660 -0.4106  0.0680 -0.3441
   17MOL   O159 3711   3.929   6.514   4.746  0.1969 -0.0841 -0.1484
   17MOL   C160 3712   3.997   6.532   4.514 -0.3157 -0.0191 -0.2219
   17MOL   H161 3713   4.096   6.836   4.847  0.2310 -0.9000 -0.1005
   17MOL   H162 3714   4.014   6.699   4.921 -0.4145 -0.3601  0.6328
   17MOL   H163 3715   4.027   6.787   4.631  3.1259  1.4736 -0.2552
   17MOL   H164 3716   4.022   6.611   4.444 -1.2981  1.0700  0.6280
   17MOL   H165 3717   3.906   6.484   4.479 -0.6708 -0.5196  1.3681
   17MOL   H166 3718   4.065   6.448   4.502  0.7868  0.5984  1.5857
   17MOL   C167 3719   4.206   6.689   4.684 -0.2633  0.1908 -0.2150
   17MOL   C168 3720   4.281   6.560   4.722  0.5510  0.2870  0.2620
   17MOL   C169 3721   4.284   6.544   4.875  0.0971  0.4961 -0.5354
   17MOL   O170 3722   4.339   6.627   4.949  0.4888  0.2734 -0.1193
   17MOL   C171 3723   4.193   6.447   4.939 -0.8097  0.5027 -0.1566
   17MOL   H172 3724   4.222   6.718   4.580  1.3329  0.0308 -0.0228
   17MOL   H173 3725   4.259   6.769   4.736  1.1962  0.4000 -1.9708
   17MOL   H174 3726   4.239   6.466   4.686  1.2858  0.4635 -1.0803
   17MOL   H175 3727   4.103   6.493   4.981 -0.1217  0.4552  1.4063
   17MOL   H176 3728   4.246   6.385   5.011 -1.3422  1.5722  1.1737
   17MOL   H177 3729   4.145   6.386   4.862 -1.2401  0.9300 -0.2255
   17MOL   C178 3730   4.429   6.578   4.675 -0.9810 -0.3162  0.3109
   17MOL   C179 3731   4.485   6.453   4.605 -0.2532 -1.0427 -0.0861
   17MOL   C180 3732   4.437   6.441   4.463 -0.3989  0.0437 -0.0258
   17MOL   O181 3733   4.314   6.431   4.441 -0.0670 -0.1366  0.0296
   17MOL   C182 3734   4.535   6.448   4.351  0.2144  0.4170 -0.1380
   17MOL   H183 3735   4.447   6.667   4.615  0.1061 -1.5525 -1.2495
   17MOL   H184 3736   4.495   6.603   4.758 -1.1925 -1.7929  0.9481
   17MOL   H185 3737   4.591   6.480   4.602 -0.5246  0.1568  0.7209
   17MOL   H186 3738   4.630   6.408   4.387 -0.3674 -0.9633 -0.1064
   17MOL   H187 3739   4.565   6.543   4.307 -0.0000 -0.0049 -1.2213
   17MOL   H188 3740   4.506   6.386   4.266  0.7997  1.2809 -0.9742
   17MOL   C189 3741   4.474   6.318   4.680  0.5666  0.3937 -0.0383
   17MOL   C190 3742   4.571   6.214   4.622  0.6463 -0.1578  0.4881
   17MOL   C191 3743   4.703   6.210   4.697 -0.1316  0.3363  0.7758
   17MOL   O192 3744   4.809   6.238   4.640 -0.2150 -0.0144 -0.1074
   17MOL   C193 3745   4.691   6.155   4.841 -0.0708 -0.6313 -1.1724
   17MOL   H194 3746   4.495   6.332   4.786  2.0924 -2.0625  0.0270
   17MOL   H195 3747   4.372   6.280   4.672  0.0691  1.4997  0.8390
   17MOL   H196 3748   4.592   6.240   4.518  1.1044 -0.3280  0.5354
   17MOL   H197 3749   4.623   6.070   4.844  0.0026 -0.6703 -0.5493
   17MOL   H198 3750   4.792   6.122   4.868  0.1606  0.4618 -0.6761
   17MOL   H199 3751   4.660   6.222   4.921  0.0116  0.0509 -1.7073
   17MOL   C200 3752   4.504   6.069   4.606 -0.3695 -0.7015  0.4554
   17MOL   C201 3753   4.590   5.959   4.544 -0.2455  0.3196  0.0352
   17MOL   C202 3754   4.631   6.006   4.397 -0.0541  0.3753 -0.1360
   17MOL   O203 3755   4.577   6.091   4.324 -0.4115  0.7115 -0.9039
   17MOL   C204 3756   4.753   5.932   4.340 -0.3877 -0.9148 -0.3953
   17MOL   H205 3757   4.465   6.045   4.705 -1.3068 -1.8861 -0.1877
   17MOL   H206 3758   4.421   6.084   4.537  0.3077 -1.5125 -0.5486
   17MOL   H207 3759   4.676   5.935   4.606 -1.4573 -2.9628  0.5060
   17MOL   H208 3760   4.742   5.916   4.232 -0.8071  0.6304 -0.5952
   17MOL   H209 3761   4.849   5.983   4.347 -1.3044  0.8201 -0.1820
   17MOL   H210 3762   4.760   5.837   4.393 -0.0626 -0.8890 -0.3890
   17MOL   C211 3763   4.508   5.834   4.526 -0.6788  0.8989  0.4579
   17MOL   C212 3764   4.432   5.788   4.650  0.1992  0.7828  0.8215
   17MOL   C213 3765   4.522   5.736   4.771 -0.3049 -0.4261  0.7331
   17MOL   O214 3766   4.603   5.810   4.832  0.3273 -0.4976  0.4801
   17MOL   C215 3767   4.497   5.595   4.816  0.5448  0.1579  0.5995
   17MOL   H216 3768   4.431   5.849   4.450  0.1192  1.3454 -0.2737
   17MOL   H217 3769   4.574   5.760   4.481  0.8386  1.6365  1.4178
   17MOL   H218 3770   4.359   5.713   4.621  0.9665  0.5875 -0.6881
   17MOL   H219 3771   4.441   5.590   4.910  0.3761  0.6790  0.5304
   17MOL   H220 3772   4.450   5.540   4.735  0.6403  0.1601  0.5432
   17MOL   H221 3773   4.587   5.540   4.843 -0.8206 -2.4670 -0.0507
   17MOL   H222 3774   4.370   5.872   4.681 -0.0645  0.7765  0.3107
   18MOL     C1 3775   5.374   1.485   0.186  0.1119 -0.2629 -0.4881
   18MOL     C2 3776   5.401   1.389   0.301 -0.0684  0.0867  0.4532
   18MOL     C3 3777   5.521   1.421   0.387 -0.7755 -0.5460 -1.3178
   18MOL     O4 3778   5.507   1.462   0.506 -0.1349 -0.9239  0.6450
   18MOL     C5 3779   5.651   1.396   0.319  0.2915  1.2344 -0.5816
   18MOL     H6 3780   5.304   1.443   0.113  2.8118 -1.2621 -2.5753
   18MOL     H7 3781   5.466   1.496   0.129 -1.5928  1.0927 -3.1221
   18MOL     H8 3782   5.416   1.292   0.254 -0.0438 -0.5754  1.8182
   18MOL     H9 3783   5.684   1.456   0.234  1.9157  3.5579  1.6399
   18MOL    H10 3784   5.729   1.388   0.394 -2.1732 -0.8780  1.8498
   18MOL    H11 3785   5.637   1.294   0.282 -0.5705  1.1722 -0.0792
   18MOL    H12 3786   5.350   1.583   0.228 -0.0614 -1.5087  2.4570
   18MOL    C13 3787   5.266   1.376   0.375 -0.0332 -0.5715  0.5566
   18MOL    C14 3788   5.254   1.271   0.491  0.2019 -0.4467 -0.3267
   18MOL    C15 3789   5.269   1.128   0.449  0.0881 -0.0810  0.3967
   18MOL    O16 3790   5.261   1.095   0.329  0.1989  0.4585  0.4049
   18MOL    C17 3791   5.273   1.026   0.555 -0.2095  0.3107 -0.1965
   18MOL    H18 3792   5.235   1.474   0.412  0.3395  0.1639 -1.0267
   18MOL    H19 3793   5.196   1.354   0.294  0.0656  1.0583  0.0115
   18MOL    H20 3794   5.334   1.289   0.564 -1.4433 -1.2970  1.7387
   18MOL    H21 3795   5.302   0.929   0.514 -1.2197  0.0863 -0.3885
   18MOL    H22 3796   5.354   1.059   0.620  0.5702  3.0145 -2.4220
   18MOL    H23 3797   5.183   0.997   0.608  0.6785 -0.0940  1.1101
   18MOL    C24 3798   5.123   1.290   0.568  0.2027  0.2033 -0.0440
   18MOL    C25 3799   5.093   1.429   0.636  0.1428 -0.3438  0.6824
   18MOL    C26 3800   4.949   1.447   0.683 -0.5990 -0.5961  0.8301
   18MOL    O27 3801   4.918   1.403   0.795  0.7092  0.3737  0.4500
   18MOL    C28 3802   4.843   1.510   0.588  0.0704  0.8306 -0.3558
   18MOL    H29 3803   5.036   1.260   0.509  0.1616  2.8084 -1.3722
   18MOL    H30 3804   5.113   1.210   0.641 -4.1451  0.1791 -0.5154
   18MOL    H31 3805   5.105   1.501   0.555 -0.0137 -2.5466 -1.3702
   18MOL    H32 3806   4.766   1.439   0.558 -0.2374 -0.3783  3.0462
   18MOL    H33 3807   4.795   1.593   0.642  1.4829  0.8433  0.9243
   18MOL    H34 3808   4.895   1.548   0.500  0.9054 -0.8610 -0.6144
   18MOL    C35 3809   5.194   1.468   0.748 -0.4480 -1.0079  0.1789
   18MOL    C36 3810   5.204   1.622   0.775  0.5029  0.1900  0.8661
   18MOL    C37 3811   5.190   1.659   0.923  0.5696  0.2864 -0.2248
   18MOL    O38 3812   5.101   1.738   0.959  0.0078 -0.2804 -0.2147
   18MOL    C39 3813   5.289   1.596   1.026 -0.0077  0.1493  0.3699
   18MOL    H40 3814   5.291   1.427   0.720  0.0690 -1.9192  3.1761
   18MOL    H41 3815   5.167   1.418   0.840 -2.2473 -2.6446 -1.1933
   18MOL    H42 3816   5.111   1.657   0.731  1.2554 -0.2781 -1.1750
   18MOL    H43 3817   5.251   1.498   1.055 -0.8238  0.2571 -0.2949
   18MOL    H44 3818   5.308   1.664   1.108  0.9218  1.1955 -0.7025
   18MOL    H45 3819   5.375   1.597   0.959  0.4146  0.1004  0.9109
   18MOL    C46 3820   5.340   1.667   0.704 -0.1758  0.3794  0.0564
   18MOL    C47 3821   5.371   1.818   0.709  0.3892  0.4442  0.4365
   18MOL    C48 3822   5.515   1.862   0.703 -0.5189  0.2385 -0.5264
   18MOL    O49 3823   5.576   1.867   0.592 -0.4813  0.1050  0.3918
   18MOL    C50 3824   5.582   1.900   0.830  0.4276 -0.2978  0.5901
   18MOL    H51 3825   5.354   1.653   0.597 -3.0088 -0.5603 -0.2365
   18MOL    H52 3826   5.425   1.604   0.732  0.5844  1.4144  0.0823
   18MOL    H53 3827   5.359   1.851   0.813  1.6792  0.6665  0.5178
   18MOL    H54 3828   5.682   1.859   0.825 -0.2691 -1.9283 -0.5763
   18MOL    H55 3829   5.584   2.009   0.840  1.6164 -0.3997  1.4853
   18MOL    H56 3830   5.526   1.861   0.915 -0.9373 -1.3156 -0.7528
   18MOL    C57 3831   5.265   1.912   0.643 -0.3257 -0.5541 -0.1745
   18MOL    C58 3832   5.266   2.057   0.672  0.1643  0.0799  0.2771
   18MOL    C59 3833   5.203   2.143   0.557 -0.3492  0.0214  0.5584
   18MOL    O60 3834   5.085   2.157   0.549 -0.7001  0.2980  0.2044
   18MOL    C61 3835   5.301   2.197   0.457 -0.3759  0.1993  0.6524
   18MOL    H62 3836   5.165   1.874   0.663 -0.3196 -1.0094 -0.9762
   18MOL    H63 3837   5.279   1.902   0.535  1.8602  3.5757 -0.4159
   18MOL    H64 3838   5.367   2.098   0.677 -0.0472  0.6740 -0.3049
   18MOL    H65 3839   5.270   2.205   0.353 -0.2370 -0.4837  0.5571
   18MOL    H66 3840   5.315   2.299   0.494  1.2836  1.6615 -3.7171
   18MOL    H67 3841   5.393   2.140   0.466 -0.1890  0.2540 -0.7606
   18MOL    C68 3842   5.206   2.084   0.809 -0.5453 -0.0847 -0.4322
   18MOL    C69 3843   5.226   2.230   0.871  0.2726  0.4312  1.1056
   18MOL    C70 3844   5.377   2.255   0.910  0.0117 -0.1716 -0.4892
   18MOL    O71 3845   5.438   2.168   0.974  0.0332  0.2865  0.0823
   18MOL    C72 3846   5.437   2.394   0.900 -0.0785 -0.0509  0.4715
   18MOL    H73 3847   5.103   2.048   0.813 -0.8287  0.6138 -1.2622
   18MOL    H74 3848   5.243   2.009   0.879  1.8135  0.2505 -1.2828
   18MOL    H75 3849   5.202   2.313   0.806  0.0337 -0.6416 -0.1955
   18MOL    H76 3850   5.543   2.375   0.881 -0.5662 -1.8853 -0.5947
   18MOL    H77 3851   5.415   2.431   0.800 -3.1257 -2.4601  0.1491
   18MOL    H78 3852   5.428   2.467   0.980 -0.8666 -0.2592  0.5721
   18MOL    C79 3853   5.143   2.245   1.000  0.1068  0.1981 -0.3184
   18MOL    C80 3854   5.155   2.368   1.092  0.3638  0.2350 -0.4332
   18MOL    C81 3855   5.089   2.344   1.228  0.4244 -0.3383 -0.3799
   18MOL    O82 3856   5.147   2.281   1.313 -0.1470  0.0283  0.3683
   18MOL    C83 3857   4.948   2.392   1.261 -0.6102 -0.3510  0.1805
   18MOL    H84 3858   5.153   2.155   1.060  1.2408  0.8963  0.5533
   18MOL    H85 3859   5.037   2.254   0.975  0.1427 -0.0313 -0.5483
   18MOL    H86 3860   5.259   2.379   1.122  0.4163  0.5135 -0.7147
   18MOL    H87 3861   4.939   2.501   1.263  1.0054 -0.2283  1.0327
   18MOL    H88 3862   4.920   2.341   1.353 -0.0382  0.2824  0.7094
   18MOL    H89 3863   4.876   2.346   1.193 -2.0522  2.0220  0.0485
   18MOL    C90 3864   5.113   2.501   1.019 -0.1599 -0.4170 -0.1649
   18MOL    C91 3865   5.132   2.632   1.108  0.6161 -0.8879 -0.4038
   18MOL    C92 3866   5.282   2.675   1.120 -0.3219  0.7577 -0.2803
   18MOL    O93 3867   5.330   2.740   1.022 -0.2565 -0.0452 -0.1163
   18MOL    C94 3868   5.357   2.632   1.241  0.0810 -0.2892  0.0432
   18MOL    H95 3869   5.161   2.506   0.921  1.6355  0.0920  0.7237
   18MOL    H96 3870   5.006   2.487   1.009 -0.4312 -2.7206  4.5766
   18MOL    H97 3871   5.094   2.606   1.207 -2.0196  0.8909 -0.8790
   18MOL    H98 3872   5.422   2.712   1.277  0.3727 -0.7133  0.4672
   18MOL    H99 3873   5.290   2.589   1.316 -1.3397  1.7053 -0.0376
   18MOL   H100 3874   5.414   2.539   1.230  2.8908  1.5194 -1.3872
   18MOL   C101 3875   5.046   2.744   1.045  0.0144 -0.4806  0.5501
   18MOL   C102 3876   5.035   2.872   1.133  0.4278  0.8410 -0.3984
   18MOL   C103 3877   4.946   2.843   1.254 -0.8628  0.7336 -0.0145
   18MOL   O104 3878   4.824   2.850   1.254  0.3641  0.4444  0.1632
   18MOL   C105 3879   5.000   2.786   1.387  0.2773 -0.0880  0.7109
   18MOL   H106 3880   5.086   2.772   0.948 -1.0510 -2.0175 -0.3518
   18MOL   H107 3881   4.945   2.712   1.019 -0.3203  2.1513 -1.5680
   18MOL   H108 3882   5.129   2.892   1.186  0.0109 -0.1268  0.7142
   18MOL   H109 3883   5.079   2.848   1.428  0.9727 -0.0355 -0.6673
   18MOL   H110 3884   4.923   2.780   1.464 -0.8838 -1.6322 -0.5193
   18MOL   H111 3885   5.035   2.683   1.384 -0.8817 -0.5037  0.9778
   18MOL   C112 3886   4.979   2.981   1.045  0.0862  0.1244  0.9255
   18MOL   C113 3887   5.065   3.036   0.933  0.5632  0.0991  0.0474
   18MOL   C114 3888   5.203   3.080   0.978  0.0254  0.5906  0.6766
   18MOL   O115 3889   5.220   3.128   1.091 -0.1027  0.2212  0.6660
   18MOL   C116 3890   5.323   3.078   0.885  0.3134  0.3393 -0.6296
   18MOL   H117 3891   4.948   3.065   1.107  0.4308  0.8814  0.0937
   18MOL   H118 3892   4.882   2.947   1.009  1.8108 -1.5750 -2.3272
   18MOL   H119 3893   5.083   2.949   0.868 -2.3255 -0.5358  0.0365
   18MOL   H120 3894   5.348   3.180   0.855  0.9769  0.1052 -0.8936
   18MOL   H121 3895   5.409   3.026   0.929 -1.2432  0.2742  2.4841
   18MOL   H122 3896   5.297   3.024   0.794  0.8515 -1.6992  0.4114
   18MOL   C123 3897   4.999   3.150   0.840 -0.4103 -0.5899  0.1447
   18MOL   C124 3898   4.927   3.261   0.919  0.1329 -0.1478 -0.2145
   18MOL   C125 3899   4.775   3.226   0.938 -0.5444  0.1196  0.0669
   18MOL   O126 3900   4.713   3.170   0.847  0.4320 -0.7025  0.3349
   18MOL   C127 3901   4.717   3.273   1.072 -0.0091  0.0019  0.7951
   18MOL   H128 3902   4.928   3.105   0.771  0.5618 -0.3595 -1.0188
   18MOL   H129 3903   5.079   3.185   0.775 -0.1341  1.0360  1.3180
   18MOL   H130 3904   4.971   3.272   1.018 -1.1007  0.1853  0.3168
   18MOL   H131 3905   4.770   3.352   1.125 -0.6146 -0.0767  1.5394
   18MOL   H132 3906   4.695   3.195   1.145 -1.8112  0.8369  1.1744
   18MOL   H133 3907   4.618   3.313   1.052 -0.4871 -0.9436  1.2124
   18MOL   C134 3908   4.939   3.402   0.856 -0.2293 -0.2105  0.2507
   18MOL   C135 3909   5.073   3.471   0.882  0.1163 -0.6500  0.6567
   18MOL   C136 3910   5.108   3.588   0.782  0.1604 -0.8227  0.1559
   18MOL   O137 3911   5.087   3.704   0.814  0.2873  0.0777 -0.4477
   18MOL   C138 3912   5.155   3.548   0.646 -0.0045 -0.2605  0.4236
   18MOL   H139 3913   4.856   3.455   0.903  2.5381  0.9527  4.0191
   18MOL   H140 3914   4.921   3.390   0.749  1.6860  0.5232 -0.1801
   18MOL   H141 3915   5.149   3.395   0.866  0.4348  0.2865 -2.7078
   18MOL   H142 3916   5.074   3.574   0.578 -1.2554 -0.0125  1.9667
   18MOL   H143 3917   5.175   3.441   0.640  0.1214 -0.1945 -0.2636
   18MOL   H144 3918   5.243   3.605   0.617  1.4364 -2.7194 -0.1536
   18MOL   C145 3919   5.076   3.520   1.037 -0.6066 -0.6397 -0.0128
   18MOL   C146 3920   5.224   3.560   1.086  0.1459  0.4379 -0.1925
   18MOL   C147 3921   5.217   3.677   1.179  0.0660  0.4862  0.2898
   18MOL   O148 3922   5.178   3.666   1.297 -1.2650 -0.7032  0.3978
   18MOL   C149 3923   5.237   3.814   1.119 -0.4401  0.4364  0.0654
   18MOL   H150 3924   5.043   3.440   1.104  2.4583 -2.3207 -0.4241
   18MOL   H151 3925   5.006   3.604   1.042  0.2280  0.0234  0.7069
   18MOL   H152 3926   5.285   3.595   1.002  0.5327  1.7247  0.6096
   18MOL   H153 3927   5.212   3.873   1.208  1.9848  3.1866 -1.0095
   18MOL   H154 3928   5.337   3.839   1.085  0.0377  0.6517  1.5597
   18MOL   H155 3929   5.157   3.823   1.046  0.3485  1.0002 -0.7338
   18MOL   C156 3930   5.299   3.438   1.145 -0.2099 -0.0932 -0.0687
   18MOL   C157 3931   5.428   3.461   1.227 -0.7484 -0.6842  0.1244
   18MOL   C158 3932   5.536   3.528   1.144  0.2614 -0.0510 -0.0005
   18MOL   O159 3933   5.563   3.646   1.168 -0.1081 -0.3734 -0.2385
   18MOL   C160 3934   5.618   3.439   1.049  0.0505 -0.3637 -0.6177
   18MOL   H161 3935   5.226   3.395   1.214  2.2166 -1.3731  1.7439
   18MOL   H162 3936   5.308   3.368   1.061 -1.3359  0.5246 -0.7237
   18MOL   H163 3937   5.418   3.534   1.307  1.1405  2.0616 -2.0520
   18MOL   H164 3938   5.696   3.389   1.106 -0.9466  0.2571  1.3633
   18MOL   H165 3939   5.667   3.497   0.971 -0.4702 -0.1174 -0.7694
   18MOL   H166 3940   5.550   3.368   1.002 -0.2025  0.8034 -2.0797
   18MOL   C167 3941   5.475   3.332   1.290 -0.3253 -0.5708  0.2817
   18MOL   C168 3942   5.582   3.343   1.403  0.6573  0.6501  0.3264
   18MOL   C169 3943   5.656   3.210   1.431  0.0555 -0.4155  0.9423
   18MOL   O170 3944   5.618   3.111   1.377  0.8375  0.7115 -0.2018
   18MOL   C171 3945   5.752   3.198   1.545 -0.1958 -0.4082 -0.5080
   18MOL   H172 3946   5.394   3.280   1.341 -0.0324 -0.3031  1.0330
   18MOL   H173 3947   5.503   3.264   1.210  0.1571 -0.5536  0.4358
   18MOL   H174 3948   5.658   3.410   1.364  0.0507  0.6626 -0.8673
   18MOL   H175 3949   5.721   3.261   1.629  1.8825 -1.2097  0.8790
   18MOL   H176 3950   5.852   3.235   1.523 -0.4256  0.4964 -0.0534
   18MOL   H177 3951   5.758   3.096   1.582  1.3592  0.4256  1.6175
   18MOL   C178 3952   5.520   3.408   1.530 -0.2953 -0.6971 -0.7264
   18MOL   C179 3953   5.576   3.558   1.545 -0.4654  0.3139  0.1613
   18MOL   C180 3954   5.692   3.558   1.649 -0.0401 -0.1779  0.0519
   18MOL   O181 3955   5.679   3.538   1.769 -0.1370  0.4958 -0.5621
   18MOL   C182 3956   5.830   3.555   1.586  0.5131 -0.0193  0.3285
   18MOL   H183 3957   5.411   3.409   1.530 -0.3005  0.9661  1.1899
   18MOL   H184 3958   5.549   3.355   1.621 -1.1774  1.4206  0.8208
   18MOL   H185 3959   5.623   3.589   1.452  1.0416 -1.2712  0.3678
   18MOL   H186 3960   5.900   3.633   1.616  1.4112 -0.3053 -0.9862
   18MOL   H187 3961   5.828   3.557   1.477  3.1117 -0.8204  0.2321
   18MOL   H188 3962   5.882   3.461   1.602  0.6301 -0.0380 -0.1566
   18MOL   C189 3963   5.466   3.655   1.574  0.1853 -0.1951  0.3312
   18MOL   C190 3964   5.497   3.809   1.578 -0.0158  0.1738 -0.4171
   18MOL   C191 3965   5.553   3.852   1.714  0.3001  0.0560 -0.3236
   18MOL   O192 3966   5.677   3.875   1.721  0.4491  0.4007 -0.6632
   18MOL   C193 3967   5.459   3.846   1.834 -0.2428 -0.4070 -0.0872
   18MOL   H194 3968   5.376   3.647   1.514  0.5199 -0.5866 -0.1274
   18MOL   H195 3969   5.425   3.623   1.670 -1.8084  1.1442 -0.0587
   18MOL   H196 3970   5.404   3.866   1.587  0.4378  0.8006  0.5046
   18MOL   H197 3971   5.368   3.881   1.786 -0.8782 -1.3178  0.4590
   18MOL   H198 3972   5.445   3.747   1.878 -0.3708 -0.2233  0.2779
   18MOL   H199 3973   5.491   3.914   1.913  0.7129  0.2290 -1.0006
   18MOL   C200 3974   5.564   3.857   1.447 -0.1025 -0.0718 -0.0422
   18MOL   C201 3975   5.586   4.011   1.433 -0.5600  0.2737 -0.1879
   18MOL   C202 3976   5.475   4.080   1.351  0.1335 -0.0577 -0.6912
   18MOL   O203 3977   5.502   4.142   1.250  0.1335 -0.5790  0.1751
   18MOL   C204 3978   5.332   4.061   1.394  0.7457 -0.3617 -0.6918
   18MOL   H205 3979   5.659   3.804   1.441  1.5300  2.6062  1.2200
   18MOL   H206 3980   5.498   3.827   1.366  1.2188 -1.6192 -0.5880
   18MOL   H207 3981   5.578   4.067   1.527  0.3921  0.0945  0.0064
   18MOL   H208 3982   5.274   4.011   1.316  1.2654 -0.0802 -1.2607
   18MOL   H209 3983   5.315   4.012   1.490 -0.6270  2.5493  0.6176
   18MOL   H210 3984   5.281   4.155   1.414 -0.3684 -1.4131  1.6138
   18MOL   C211 3985   5.726   4.045   1.376  0.1037  0.1963 -0.9421
   18MOL   C212 3986   5.759   4.190   1.394 -0.6439  0.2543 -0.2422
   18MOL   C213 3987   5.836   4.206   1.524  0.3782  0.2334  0.2773
   18MOL   O214 3988   5.963   4.203   1.515 -0.0116 -0.0888  0.4617
   18MOL   C215 3989   5.753   4.227   1.651 -0.1055  0.1155 -0.5147
   18MOL   H216 3990   5.801   3.977   1.418 -0.9444  0.0519  0.7042
   18MOL   H217 3991   5.724   4.019   1.270 -0.1183 -1.0904 -0.6411
   18MOL   H218 3992   5.674   4.258   1.394 -1.4198 -0.7023  0.4360
   18MOL   H219 3993   5.786   4.310   1.714 -1.4800  0.7068 -0.5487
   18MOL   H220 3994   5.648   4.236   1.626  0.1236 -0.1496 -1.5854
   18MOL   H221 3995   5.763   4.139   1.715  0.8030  1.0374  0.6663
   18MOL   H222 3996   5.813   4.234   1.310 -0.2366 -0.7379 -0.5002
   19MOL     C1 3997   4.691   3.159   0.061 -0.1169  0.4928 -0.6795
   19MOL     C2 3998   4.546   3.164   0.025  1.0504  0.4792  0.2589
   19MOL     C3 3999   4.516   3.207   7.734  0.0376  1.0224  0.1936
   19MOL     O4 4000   4.602   3.199   7.650 -0.5047 -0.1550 -0.2437
   19MOL     C5 4001   4.379   3.251   7.698 -0.3551 -0.0863  0.2529
   19MOL     H6 4002   4.737   3.084   7.855 -1.2124  2.0449 -3.4030
   19MOL     H7 4003   4.709   3.141   0.167 -2.3845 -1.6968 -0.6372
   19MOL     H8 4004   4.508   3.247   0.084 -2.8849 -1.6933  0.9370
   19MOL     H9 4005   4.370   3.359   7.684 -0.2006  0.0828  1.3543
   19MOL    H10 4006   4.343   3.206   7.605  0.8587  1.4472 -0.9715
   19MOL    H11 4007   4.310   3.222   7.778  0.0568 -0.7006  0.3880
   19MOL    H12 4008   4.746   3.244   0.019  0.2433  0.1452 -0.9164
   19MOL    C13 4009   4.484   3.019   0.051 -0.9598  0.3078  0.5125
   19MOL    C14 4010   4.333   2.991   0.052  0.1184  0.9180 -0.3820
   19MOL    C15 4011   4.261   3.078   0.161 -0.0446 -0.3579  0.3695
   19MOL    O16 4012   4.174   3.157   0.126  0.3973 -0.1707 -0.6103
   19MOL    C17 4013   4.306   3.083   0.305 -0.1555 -0.3659 -0.3293
   19MOL    H18 4014   4.533   2.959   7.832 -1.8716  1.5224 -1.0500
   19MOL    H19 4015   4.526   2.977   0.142 -1.9461 -2.9811 -0.4789
   19MOL    H20 4016   4.292   3.024   7.814  1.6458  2.0904 -0.6654
   19MOL    H21 4017   4.391   3.148   0.322 -0.6447  0.6852 -1.8443
   19MOL    H22 4018   4.227   3.129   0.364 -0.7906 -1.0345 -0.6455
   19MOL    H23 4019   4.333   2.985   0.345  2.6554 -0.0064 -1.2378
   19MOL    C24 4020   4.306   2.837   0.070  0.4410  0.4645 -0.6915
   19MOL    C25 4021   4.215   2.773   7.814 -0.3632 -0.1221  0.0358
   19MOL    C26 4022   4.287   2.800   7.684 -0.0209  0.4818 -0.2713
   19MOL    O27 4023   4.407   2.772   7.671  0.7081  0.4431 -0.2712
   19MOL    C28 4024   4.218   2.884   7.581  0.5777  0.5544  0.1784
   19MOL    H29 4025   4.407   2.797   0.075  0.6713  1.4070  3.2828
   19MOL    H30 4026   4.263   2.821   0.168  1.0343  1.7499 -0.2100
   19MOL    H31 4027   4.118   2.822   7.806 -0.6714 -0.9589 -1.8046
   19MOL    H32 4028   4.113   2.853   7.577  0.6640  0.2544  0.2649
   19MOL    H33 4029   4.212   2.991   7.604  0.8715  1.1868 -2.5084
   19MOL    H34 4030   4.260   2.859   7.484  0.7922  0.0546  0.3964
   19MOL    C35 4031   4.183   2.625   7.830  0.7835  0.0478 -0.2950
   19MOL    C36 4032   4.304   2.533   0.009 -0.1386  0.3102  0.4518
   19MOL    C37 4033   4.297   2.497   0.156  0.0504  0.1307  0.9148
   19MOL    O38 4034   4.211   2.422   0.197 -0.2691 -0.6358 -0.3035
   19MOL    C39 4035   4.396   2.559   0.250 -0.3507 -0.4390 -0.0578
   19MOL    H40 4036   4.133   2.600   7.736  2.1329  3.2215 -1.9323
   19MOL    H41 4037   4.105   2.616   0.047  0.4137 -0.7512 -0.7639
   19MOL    H42 4038   4.395   2.590   7.847 -1.3456  1.8886 -0.6907
   19MOL    H43 4039   4.434   2.658   0.227 -0.4863 -0.4284 -0.2359
   19MOL    H44 4040   4.474   2.493   0.290 -0.6354  0.4084  1.9348
   19MOL    H45 4041   4.344   2.574   0.345 -2.3183 -0.4451 -1.1128
   19MOL    C46 4042   4.315   2.412   7.780  0.3765 -0.6911  0.1169
   19MOL    C47 4043   4.442   2.318   7.784 -0.4153 -0.1070 -0.0532
   19MOL    C48 4044   4.402   2.175   7.738  0.2640 -0.2305  0.5507
   19MOL    O49 4045   4.305   2.152   7.671  0.3702 -0.3816  0.0271
   19MOL    C50 4046   4.479   2.059   7.792  0.0223  0.0931  0.0103
   19MOL    H51 4047   4.319   2.452   7.678 -1.0615  0.6429  0.5543
   19MOL    H52 4048   4.222   2.354   7.777  0.2046 -0.4321  0.4086
   19MOL    H53 4049   4.477   2.298   0.027 -0.2436  0.0486 -0.0822
   19MOL    H54 4050   4.547   2.021   7.716  0.8193 -0.7323  1.1352
   19MOL    H55 4051   4.537   2.084   0.023  1.2545  0.1143 -0.7902
   19MOL    H56 4052   4.418   1.971   7.815 -0.3217  0.3278  0.0046
   19MOL    C57 4053   4.567   2.370   7.702 -0.1901  0.4641  0.8330
   19MOL    C58 4054   4.644   2.488   7.767 -0.3622  0.4975  0.1287
   19MOL    C59 4055   4.680   2.469   0.054  0.3092  0.4123 -0.8774
   19MOL    O60 4056   4.702   2.356   0.101  0.4982  0.0583  0.3119
   19MOL    C61 4057   4.695   2.591   0.145  0.1479 -0.0945  0.2206
   19MOL    H62 4058   4.548   2.404   7.600 -3.3822 -1.8521  0.5873
   19MOL    H63 4059   4.632   2.284   7.689  0.0253  0.9050 -1.0931
   19MOL    H64 4060   4.585   2.580   7.763 -0.5764  0.3442 -0.2838
   19MOL    H65 4061   4.614   2.662   0.130  0.6248  0.1095 -1.4437
   19MOL    H66 4062   4.688   2.548   0.245  0.4230 -1.4703 -0.3373
   19MOL    H67 4063   4.789   2.645   0.130 -0.6781  0.9825 -1.1801
   19MOL    C68 4064   4.769   2.515   7.683  0.0531 -0.3256 -0.4242
   19MOL    C69 4065   4.851   2.644   7.698 -0.5582  0.4523  0.1798
   19MOL    C70 4066   4.777   2.777   7.699 -0.0855  0.0606  0.3487
   19MOL    O71 4067   4.754   2.831   7.803  0.0384  0.0711  0.1687
   19MOL    C72 4068   4.726   2.832   7.567 -0.4769 -0.4291  0.3227
   19MOL    H73 4069   4.846   2.439   7.696  1.3680  1.0131 -0.3143
   19MOL    H74 4070   4.730   2.512   7.581  0.5794 -0.8837 -0.6138
   19MOL    H75 4071   4.885   2.647   7.802  0.8907 -1.6570 -0.2082
   19MOL    H76 4072   4.806   2.882   7.513  1.1053 -3.0135  0.2110
   19MOL    H77 4073   4.680   2.755   7.505 -3.0749  0.7584  0.6955
   19MOL    H78 4074   4.653   2.911   7.588 -0.8952  0.3884 -3.7157
   19MOL    C79 4075   4.974   2.650   7.609  0.2301  0.0145 -0.0671
   19MOL    C80 4076   5.107   2.605   7.676  0.0684  0.3361 -0.0042
   19MOL    C81 4077   5.173   2.702   7.781 -0.7738  0.7464 -0.1220
   19MOL    O82 4078   5.118   2.811   7.808 -0.6271 -0.7385  0.0299
   19MOL    C83 4079   5.298   2.664   7.840 -0.2086 -0.9284 -0.5961
   19MOL    H84 4080   4.989   2.751   7.572 -0.9580 -0.2220 -1.2267
   19MOL    H85 4081   4.955   2.590   7.520 -0.9537 -0.7267  0.6742
   19MOL    H86 4082   5.082   2.523   7.742 -1.0960  0.2158 -0.5832
   19MOL    H87 4083   5.303   2.557   0.000 -2.5057 -1.2578 -1.7104
   19MOL    H88 4084   5.312   2.715   0.078  0.6282  0.9212 -1.6705
   19MOL    H89 4085   5.388   2.694   7.787  0.0653  0.0646  0.3934
   19MOL    C90 4086   5.207   2.533   7.576 -0.3219 -0.0484 -0.1214
   19MOL    C91 4087   5.267   2.630   7.465 -0.4869  0.2384  0.0630
   19MOL    C92 4088   5.378   2.722   7.513 -0.7809  0.4202  0.0149
   19MOL    O93 4089   5.492   2.680   7.543  0.5924 -0.6807  0.3728
   19MOL    C94 4090   5.346   2.867   7.524  1.0976 -0.1640  0.6670
   19MOL    H95 4091   5.286   2.492   7.638 -1.4957 -0.4622  1.1282
   19MOL    H96 4092   5.163   2.443   7.532 -1.1120  0.0478  0.4539
   19MOL    H97 4093   5.195   2.699   7.421 -0.6530 -0.2849 -0.4830
   19MOL    H98 4094   5.316   2.885   7.627  2.2888  1.1958  0.7905
   19MOL    H99 4095   5.433   2.930   7.500  1.7595 -1.8197 -1.4356
   19MOL   H100 4096   5.267   2.886   7.451  0.0623  0.4891  1.9385
   19MOL   C101 4097   5.324   2.529   7.358 -0.0660  0.0053  0.6474
   19MOL   C102 4098   5.371   2.596   7.233  0.0736 -0.2674 -0.0454
   19MOL   C103 4099   5.256   2.665   7.155  0.4540  0.3136 -0.2456
   19MOL   O104 4100   5.170   2.604   7.097 -0.3118  0.5686  0.3686
   19MOL   C105 4101   5.265   2.816   7.145 -0.6589  0.4546  0.5810
   19MOL   H106 4102   5.407   2.471   7.399 -0.0701 -1.4273 -1.2791
   19MOL   H107 4103   5.247   2.459   7.326  2.0378 -1.8344 -0.5552
   19MOL   H108 4104   5.452   2.667   7.253 -0.8577  0.1482  2.3882
   19MOL   H109 4105   5.167   2.863   7.152 -0.4396  1.2973 -1.7298
   19MOL   H110 4106   5.328   2.859   7.224 -0.3492  2.2546 -0.6143
   19MOL   H111 4107   5.297   2.837   7.043 -1.3392  0.4763  0.3712
   19MOL   C112 4108   5.421   2.480   7.141 -0.1514  0.1942  0.2634
   19MOL   C113 4109   5.561   2.418   7.178  0.4513  0.3019  0.3886
   19MOL   C114 4110   5.671   2.524   7.161  0.9955  0.0591 -0.2124
   19MOL   O115 4111   5.698   2.560   7.047  0.1014 -0.0030  0.3123
   19MOL   C116 4112   5.711   2.614   7.287 -0.3431 -0.5321  0.2936
   19MOL   H117 4113   5.432   2.527   7.044  2.2524 -0.1299  0.3356
   19MOL   H118 4114   5.342   2.406   7.127 -2.2624  2.0305  2.0647
   19MOL   H119 4115   5.542   2.397   7.284 -0.1591 -0.1688  0.1844
   19MOL   H120 4116   5.652   2.583   7.374  1.7104 -2.0719  1.1938
   19MOL   H121 4117   5.814   2.586   7.307 -0.1523  0.1424  0.2484
   19MOL   H122 4118   5.693   2.720   7.273  0.5624 -0.6565 -1.9504
   19MOL   C123 4119   5.617   2.290   7.102  0.3864 -0.0974  0.1606
   19MOL   C124 4120   5.696   2.189   7.189 -0.4285 -0.2443 -0.1224
   19MOL   C125 4121   5.606   2.107   7.275 -0.4801 -0.2223 -0.5855
   19MOL   O126 4122   5.576   2.149   7.382  0.2560  0.1936 -0.1540
   19MOL   C127 4123   5.538   1.984   7.218  0.1932  0.1156  0.8306
   19MOL   H128 4124   5.666   2.317   7.009  0.6065 -0.7719  0.0853
   19MOL   H129 4125   5.527   2.237   7.071  0.0906 -0.7060  1.9933
   19MOL   H130 4126   5.734   2.115   7.119  2.2471  0.8993  0.0463
   19MOL   H131 4127   5.555   1.994   7.110  2.6652 -2.1670  0.9230
   19MOL   H132 4128   5.436   2.010   7.243  0.0107 -1.6911  2.0588
   19MOL   H133 4129   5.568   1.886   7.256 -2.2235 -0.6214  0.9086
   19MOL   C134 4130   5.815   2.254   7.262  0.0750  0.5461 -0.2635
   19MOL   C135 4131   5.927   2.165   7.316 -0.9687  0.1804 -0.7468
   19MOL   C136 4132   5.999   2.075   7.209  1.4476  0.2144 -0.1314
   19MOL   O137 4133   6.010   2.109   7.087  0.4489 -0.0868  0.1760
   19MOL   C138 4134   6.063   1.950   7.257 -0.4041  0.7627  0.0585
   19MOL   H139 4135   5.772   2.318   7.339  0.1087  1.1612 -0.7580
   19MOL   H140 4136   5.854   2.320   7.185 -0.0475  0.6197 -0.2622
   19MOL   H141 4137   5.904   2.081   7.382  1.4221 -0.4343 -0.6294
   19MOL   H142 4138   6.076   1.956   7.365 -0.1444 -1.0677  0.1422
   19MOL   H143 4139   6.159   1.938   7.208 -1.5362  0.4106 -2.1597
   19MOL   H144 4140   6.004   1.860   7.239  0.1198 -0.0353  2.1865
   19MOL   C145 4141   6.031   2.254   7.392  0.5964  0.8999  0.7152
   19MOL   C146 4142   5.990   2.294   7.532 -0.3980  0.6004 -0.4899
   19MOL   C147 4143   5.987   2.181   7.639 -0.6974 -0.3289  0.6152
   19MOL   O148 4144   6.089   2.138   7.688 -0.3383 -0.2654 -0.0557
   19MOL   C149 4145   5.853   2.122   7.683  0.1869 -0.1634  0.0191
   19MOL   H150 4146   6.059   2.342   7.335 -0.3776  0.4384 -0.5171
   19MOL   H151 4147   6.125   2.200   7.400  0.1358  0.2119  1.5893
   19MOL   H152 4148   5.889   2.336   7.528 -0.1356  1.3438  0.5614
   19MOL   H153 4149   5.872   2.062   7.772 -2.6467  1.8872  2.1272
   19MOL   H154 4150   5.792   2.209   7.708  0.9544  0.4146 -0.1124
   19MOL   H155 4151   5.800   2.053   7.617  2.4784 -2.9616  0.9919
   19MOL   C156 4152   6.081   2.407   7.583  0.9067  0.5977  0.1101
   19MOL   C157 4153   6.019   2.511   7.681  0.1347 -0.1430  0.2719
   19MOL   C158 4154   5.908   2.599   7.621  0.0544  0.3890  1.2227
   19MOL   O159 4155   5.922   2.651   7.511  0.1182 -0.4033 -0.5087
   19MOL   C160 4156   5.777   2.630   7.700 -0.8702 -0.0270  0.5137
   19MOL   H161 4157   6.170   2.368   7.632 -0.3083  0.2130  2.0453
   19MOL   H162 4158   6.120   2.465   7.499  0.7430 -0.1991 -0.5282
   19MOL   H163 4159   5.959   2.450   7.748 -0.2790  0.3795  0.3809
   19MOL   H164 4160   5.793   2.667   7.801 -0.2657 -1.2320  0.8671
   19MOL   H165 4161   5.723   2.536   7.713 -0.0579 -0.8552 -1.8778
   19MOL   H166 4162   5.714   2.709   7.658  0.8507  1.5177  0.7673
   19MOL   C167 4163   6.126   2.597   7.750  0.0367 -0.0835 -0.5263
   19MOL   C168 4164   6.217   2.528   7.855 -0.2953  0.1511 -0.2642
   19MOL   C169 4165   6.135   2.482   0.121 -0.3841  0.3961  0.1844
   19MOL   O170 4166   6.059   2.559   0.173  0.1856  0.2173  0.4567
   19MOL   C171 4167   6.157   2.344   0.184 -0.0999 -0.5721  0.4390
   19MOL   H172 4168   6.193   2.630   7.670 -1.0411  0.8293 -1.0582
   19MOL   H173 4169   6.078   2.681   7.799 -1.7045  0.4748 -3.0621
   19MOL   H174 4170   6.263   2.439   7.811  1.8584  0.3714  1.4802
   19MOL   H175 4171   6.180   2.283   0.097  0.6278 -1.0612  0.9610
   19MOL   H176 4172   6.083   2.290   0.243  0.2142  0.2779  1.6283
   19MOL   H177 4173   6.245   2.354   0.248  0.1617  0.3763 -0.0713
   19MOL   C178 4174   6.337   2.625   0.034 -0.0687  0.1762  0.3682
   19MOL   C179 4175   6.439   2.584   0.148 -0.1790 -0.1840 -0.5376
   19MOL   C180 4176   6.476   2.702   0.243 -0.1459  0.9742 -0.0240
   19MOL   O181 4177   6.590   2.755   0.246  0.3113 -0.1639 -0.3152
   19MOL   C182 4178   6.358   2.753   0.335  1.0836 -0.2347  0.0794
   19MOL   H183 4179   6.396   2.652   7.804  1.5515 -0.6164  1.2004
   19MOL   H184 4180   6.291   2.723   0.052 -2.6476 -0.5469 -1.8985
   19MOL   H185 4181   6.377   2.519   0.210  1.2040  2.0281  3.3682
   19MOL   H186 4182   6.401   2.754   0.435 -0.3198 -0.3526  0.6948
   19MOL   H187 4183   6.276   2.682   0.345  0.7229  0.3658  1.5226
   19MOL   H188 4184   6.329   2.853   0.300 -0.5143 -0.6405  0.2106
   19MOL   C189 4185   6.565   2.506   0.098 -0.0873  0.5671  0.0797
   19MOL   C190 4186   6.641   2.412   0.193 -0.3511  0.1239 -0.2727
   19MOL   C191 4187   6.546   2.308   0.256  0.0739  0.7744 -0.8061
   19MOL   O192 4188   6.492   2.223   0.185  0.0942 -0.1828  0.2280
   19MOL   C193 4189   6.521   2.316   0.407  0.7556 -0.1034  0.3014
   19MOL   H194 4190   6.537   2.443   0.014 -0.0267  0.3988  0.1836
   19MOL   H195 4191   6.628   2.584   0.057 -0.2634  1.7380  1.9709
   19MOL   H196 4192   6.682   2.475   0.272 -0.0726 -1.0441  0.5253
   19MOL   H197 4193   6.591   2.389   0.447  1.3914 -0.2643 -0.5157
   19MOL   H198 4194   6.422   2.362   0.418  0.6289 -0.0613 -0.9829
   19MOL   H199 4195   6.523   2.227   0.470  0.8208  0.7682  1.5678
   19MOL   C200 4196   6.754   2.342   0.121 -0.2970  0.0181  0.4934
   19MOL   C201 4197   6.823   2.217   0.184  0.3763  0.5020  0.3854
   19MOL   C202 4198   6.874   2.234   0.328  0.1370  0.6653  0.2557
   19MOL   O203 4199   6.880   2.344   0.383  0.2460  0.0461 -0.3770
   19MOL   C204 4200   6.918   2.113   0.402  0.4523 -0.1218  0.3274
   19MOL   H205 4201   6.725   2.313   0.020  3.3941 -0.9016 -0.3720
   19MOL   H206 4202   6.828   2.420   0.106 -1.6435  0.8256 -2.2534
   19MOL   H207 4203   6.744   2.143   0.194  0.1610  0.4239 -1.7860
   19MOL   H208 4204   6.870   2.092   0.497  0.0888  0.6053  0.3058
   19MOL   H209 4205   6.901   2.023   0.343  0.0157 -1.2918  2.1997
   19MOL   H210 4206   7.026   2.107   0.413  0.6603 -3.1769 -2.5169
   19MOL   C211 4207   6.931   2.164   0.083  0.4040 -1.0185  0.7247
   19MOL   C212 4208   7.000   2.024   0.109  0.4281 -0.2176  0.4290
   19MOL   C213 4209   7.035   1.949   7.837  0.1303 -0.4197 -0.1942
   19MOL   O214 4210   7.069   2.012   7.737 -0.0755  0.2948  0.4005
   19MOL   C215 4211   7.030   1.795   7.829 -0.2168  0.1538 -0.5790
   19MOL   H216 4212   6.882   2.173   7.844  1.2858  1.8479  0.4948
   19MOL   H217 4213   7.007   2.242   0.084 -1.6693  1.0616  0.4141
   19MOL   H218 4214   6.945   1.952   0.171  1.5559  0.4645  2.2565
   19MOL   H219 4215   7.009   1.768   7.725  0.8723 -0.8084 -0.5638
   19MOL   H220 4216   7.137   1.779   7.843  0.4564  2.5726 -2.6754
   19MOL   H221 4217   6.974   1.738   0.046 -2.7564  0.1179 -2.4436
   19MOL   H222 4218   7.090   2.031   0.169  0.5707  0.2419  0.1636
   20MOL     C1 4219   3.929   1.546   4.184 -0.0858 -0.5797  0.5148
   20MOL     C2 4220   4.004   1.452   4.099  0.6428  0.5988 -0.2206
   20MOL     C3 4221   3.919   1.332   4.074 -0.0710 -0.1839 -0.4593
   20MOL     O4 4222   3.829   1.333   3.994 -0.6453 -0.2225  0.3192
   20MOL     C5 4223   3.968   1.200   4.135  0.2589 -0.1564  0.0450
   20MOL     H6 4224   3.989   1.635   4.201  1.2613 -1.2717 -0.4957
   20MOL     H7 4225   3.913   1.506   4.284  2.5287 -0.0826  1.1678
   20MOL     H8 4226   4.097   1.417   4.144  0.5603 -1.8045 -1.8534
   20MOL     H9 4227   4.059   1.175   4.081  0.2665  3.1728 -1.6034
   20MOL    H10 4228   3.984   1.215   4.242 -2.4158  1.1618  0.2913
   20MOL    H11 4229   3.897   1.127   4.098  0.2071  0.8138 -1.8604
   20MOL    H12 4230   3.829   1.572   4.147 -0.4521  0.8331  2.4633
   20MOL    C13 4231   4.064   1.514   3.968 -0.2082 -0.0205  0.4890
   20MOL    C14 4232   4.155   1.425   3.873 -0.5380 -0.0605  0.0973
   20MOL    C15 4233   4.288   1.393   3.937  0.2973  0.1568  0.3696
   20MOL    O16 4234   4.308   1.283   3.985 -0.0039 -0.5247 -0.0981
   20MOL    C17 4235   4.394   1.502   3.955  0.4249 -0.7359  0.5592
   20MOL    H18 4236   3.982   1.552   3.908  2.4293  2.7136 -1.4900
   20MOL    H19 4237   4.111   1.609   3.992 -1.4456  0.2657  1.8409
   20MOL    H20 4238   4.118   1.327   3.843  2.2644 -0.3385 -2.7655
   20MOL    H21 4239   4.367   1.580   4.026 -1.9110  0.9782 -2.1121
   20MOL    H22 4240   4.483   1.456   3.999  0.8521  0.0061  0.4805
   20MOL    H23 4241   4.423   1.545   3.859 -2.0497 -1.6313 -0.6183
   20MOL    C24 4242   4.171   1.513   3.744 -0.1990  0.1712  0.7798
   20MOL    C25 4243   4.255   1.456   3.629 -0.4941  0.0011 -0.2520
   20MOL    C26 4244   4.188   1.321   3.590  0.0564  0.5343  0.2289
   20MOL    O27 4245   4.068   1.297   3.597 -0.3549  0.5189  0.5072
   20MOL    C28 4246   4.287   1.211   3.545  0.3278  0.0291  0.0921
   20MOL    H29 4247   4.076   1.544   3.702  0.3534  1.6674  0.6151
   20MOL    H30 4248   4.222   1.603   3.777  0.8158 -0.1419  0.0892
   20MOL    H31 4249   4.354   1.420   3.655 -0.1351 -0.9589 -2.7419
   20MOL    H32 4250   4.389   1.246   3.527  0.5389 -0.6256  0.0186
   20MOL    H33 4251   4.291   1.139   3.626 -2.8154 -0.6460 -0.3104
   20MOL    H34 4252   4.253   1.156   3.457 -2.6125  2.8013 -0.5871
   20MOL    C35 4253   4.271   1.538   3.499 -0.5365 -0.1176 -0.9990
   20MOL    C36 4254   4.397   1.636   3.486  0.1222 -0.2809 -0.3487
   20MOL    C37 4255   4.439   1.699   3.621 -0.5929  0.4356 -0.0912
   20MOL    O38 4256   4.547   1.670   3.681  0.2637  0.3639 -0.5541
   20MOL    C39 4257   4.365   1.821   3.676 -0.1129  0.9961 -0.3122
   20MOL    H40 4258   4.185   1.596   3.468  1.7842  3.1606 -1.5460
   20MOL    H41 4259   4.279   1.471   3.413 -3.2326  1.4179 -2.4987
   20MOL    H42 4260   4.363   1.711   3.414 -0.4639 -1.1243 -0.9664
   20MOL    H43 4261   4.416   1.857   3.765 -0.0929  0.3170 -0.0460
   20MOL    H44 4262   4.264   1.792   3.704 -1.0537  0.8108 -3.6840
   20MOL    H45 4263   4.357   1.901   3.601  0.7655  1.6298  0.2600
   20MOL    C46 4264   4.507   1.557   3.413 -0.2461 -0.8249 -0.5322
   20MOL    C47 4265   4.633   1.640   3.371 -0.7440  0.4613 -0.3292
   20MOL    C48 4266   4.743   1.551   3.317 -0.2423  0.2185 -0.2630
   20MOL    O49 4267   4.798   1.573   3.208  0.0097  0.1215  0.2721
   20MOL    C50 4268   4.791   1.431   3.401  0.0455 -0.3245 -0.1665
   20MOL    H51 4269   4.469   1.508   3.324  0.3273  0.6007 -1.5824
   20MOL    H52 4270   4.542   1.479   3.481 -0.1208  0.4501  0.9009
   20MOL    H53 4271   4.672   1.688   3.461  0.0372 -0.4554 -0.1725
   20MOL    H54 4272   4.883   1.400   3.350 -0.0392  0.6905 -0.9527
   20MOL    H55 4273   4.827   1.459   3.500 -0.2366  2.1468 -0.7099
   20MOL    H56 4274   4.710   1.360   3.413 -0.9212  0.9714  1.0315
   20MOL    C57 4275   4.591   1.762   3.282  0.3442  0.3884  0.1375
   20MOL    C58 4276   4.594   1.904   3.348 -0.2856 -0.1817 -0.0748
   20MOL    C59 4277   4.727   1.949   3.398 -0.5635  0.0799  0.7204
   20MOL    O60 4278   4.730   2.008   3.503 -0.1518 -0.1251  0.3566
   20MOL    C61 4279   4.850   1.939   3.304  0.0386 -0.1658 -0.5987
   20MOL    H62 4280   4.495   1.734   3.239 -1.3002  2.2758  2.4073
   20MOL    H63 4281   4.660   1.773   3.199  0.0921  0.5485 -0.0555
   20MOL    H64 4282   4.524   1.897   3.432  0.0540  0.6296  0.2856
   20MOL    H65 4283   4.905   1.847   3.325  1.3602  0.7742  0.0920
   20MOL    H66 4284   4.817   1.941   3.200  1.3257  1.7146 -0.9979
   20MOL    H67 4285   4.912   2.027   3.320  1.7850 -1.7569  1.8253
   20MOL    C68 4286   4.533   2.017   3.249  0.0678 -0.5357 -0.1633
   20MOL    C69 4287   4.490   2.142   3.334  0.1990  0.6735  0.2077
   20MOL    C70 4288   4.394   2.124   3.456 -0.5427 -0.3148 -0.2529
   20MOL    O71 4289   4.285   2.076   3.435  0.5246  0.5722  0.7199
   20MOL    C72 4290   4.439   2.178   3.590  0.8400 -0.1688  0.0411
   20MOL    H73 4291   4.608   2.047   3.175  0.4333 -0.2482  0.3187
   20MOL    H74 4292   4.446   1.980   3.195 -1.9531  0.5793  2.2704
   20MOL    H75 4293   4.582   2.193   3.365  0.0626  0.8588  0.3069
   20MOL    H76 4294   4.364   2.252   3.620  0.6464 -0.6110  0.6493
   20MOL    H77 4295   4.453   2.098   3.662 -2.1529  0.7857  1.7679
   20MOL    H78 4296   4.530   2.238   3.582 -0.1355  1.4218  0.7469
   20MOL    C79 4297   4.418   2.237   3.240 -0.8312 -0.5043 -0.3084
   20MOL    C80 4298   4.473   2.266   3.098  0.4334  0.1335 -0.7587
   20MOL    C81 4299   4.591   2.362   3.103  0.1851  0.1472 -0.1830
   20MOL    O82 4300   4.593   2.451   3.187  1.0274 -0.0672  0.2617
   20MOL    C83 4301   4.712   2.328   3.014 -0.0263  0.2854 -0.2830
   20MOL    H84 4302   4.400   2.331   3.293  0.2039  0.2422 -1.2329
   20MOL    H85 4303   4.315   2.209   3.223 -0.7745 -1.7989  1.4313
   20MOL    H86 4304   4.501   2.174   3.046 -2.4328  0.0764 -2.2683
   20MOL    H87 4305   4.675   2.260   2.937 -1.8841 -1.9615  2.5029
   20MOL    H88 4306   4.793   2.277   3.066  0.4026 -1.3611 -2.4782
   20MOL    H89 4307   4.753   2.417   2.966  1.0769  0.3475  0.7366
   20MOL    C90 4308   4.362   2.335   3.012 -0.4099 -0.1347  0.5681
   20MOL    C91 4309   4.390   2.355   2.865  0.4289 -0.0205  0.5807
   20MOL    C92 4310   4.311   2.258   2.770 -0.1240 -0.1550  0.4149
   20MOL    O93 4311   4.191   2.270   2.761 -0.5263  0.2479 -0.2400
   20MOL    C94 4312   4.397   2.156   2.695 -0.1900  0.4149  0.8440
   20MOL    H95 4313   4.276   2.271   3.030 -0.3097 -0.7797 -1.1434
   20MOL    H96 4314   4.333   2.427   3.062  0.2408  1.6889 -2.2838
   20MOL    H97 4315   4.489   2.315   2.846 -0.1538 -0.7145 -1.1057
   20MOL    H98 4316   4.407   2.179   2.589 -0.3041  0.7950  0.9141
   20MOL    H99 4317   4.498   2.141   2.733  0.0314  0.8868  0.4515
   20MOL   H100 4318   4.345   2.061   2.704  1.7814 -0.9025 -1.3014
   20MOL   C101 4319   4.379   2.503   2.832  0.0701 -0.3420 -1.1618
   20MOL   C102 4320   4.435   2.550   2.697 -0.1623 -0.0210  0.6124
   20MOL   C103 4321   4.587   2.521   2.675  0.3649 -0.7205  0.0169
   20MOL   O104 4322   4.666   2.496   2.768 -0.2687 -0.0937 -0.1998
   20MOL   C105 4323   4.644   2.522   2.535 -0.2752 -0.0552  0.0345
   20MOL   H106 4324   4.272   2.522   2.843  0.1712 -0.0248 -0.6986
   20MOL   H107 4325   4.429   2.556   2.913  1.6605  0.9955 -2.9661
   20MOL   H108 4326   4.385   2.486   2.624  3.2599 -0.4026 -1.5119
   20MOL   H109 4327   4.608   2.613   2.486 -0.7860 -0.0101  0.4884
   20MOL   H110 4328   4.753   2.521   2.539 -0.2903 -0.6955  0.3992
   20MOL   H111 4329   4.608   2.431   2.486 -1.0005 -0.9737  2.2245
   20MOL   C112 4330   4.399   2.698   2.660  0.0818 -0.6227  0.2440
   20MOL   C113 4331   4.500   2.804   2.715 -0.0185 -0.5025 -0.1267
   20MOL   C114 4332   4.513   2.804   2.869 -0.2900 -0.1512 -0.2756
   20MOL   O115 4333   4.421   2.832   2.941  0.4202  0.0213  0.0154
   20MOL   C116 4334   4.655   2.781   2.921 -0.6123  0.1829  0.1398
   20MOL   H117 4335   4.296   2.719   2.690 -0.4801  1.1832 -2.7723
   20MOL   H118 4336   4.390   2.717   2.553  1.5236  2.1391  0.5735
   20MOL   H119 4337   4.599   2.786   2.672 -0.0586 -0.1411 -0.3711
   20MOL   H120 4338   4.709   2.875   2.928 -1.8187  0.8700  0.2569
   20MOL   H121 4339   4.642   2.732   3.018 -0.4769 -1.2252 -0.5361
   20MOL   H122 4340   4.707   2.718   2.849  1.1335  1.1832  0.4999
   20MOL   C123 4341   4.487   2.958   2.666  0.6346 -0.2866 -0.0648
   20MOL   C124 4342   4.604   3.023   2.597  0.6916 -0.0159  0.3008
   20MOL   C125 4343   4.726   3.046   2.684 -0.9733  0.4073 -0.0493
   20MOL   O126 4344   4.718   3.131   2.772 -0.7043 -0.0687 -0.8210
   20MOL   C127 4345   4.849   2.951   2.683  0.4504 -0.1294 -0.3201
   20MOL   H128 4346   4.463   3.029   2.745  0.2180 -1.3295  0.7524
   20MOL   H129 4347   4.401   2.977   2.600 -0.0911  1.3702  1.3140
   20MOL   H130 4348   4.634   2.952   2.520  2.2465  0.8852  0.0489
   20MOL   H131 4349   4.935   2.991   2.627  0.3985 -0.8327 -0.9043
   20MOL   H132 4350   4.809   2.856   2.648 -0.2606 -0.8377  2.3398
   20MOL   H133 4351   4.894   2.917   2.776 -0.3436  1.9641  0.8615
   20MOL   C134 4352   4.555   3.150   2.523 -0.1904 -0.4481 -0.6800
   20MOL   C135 4353   4.661   3.216   2.435  0.0722  0.4825 -0.1486
   20MOL   C136 4354   4.674   3.140   2.303 -0.1819 -0.1970 -0.5492
   20MOL   O137 4355   4.612   3.030   2.280  0.3520 -0.0079  0.0209
   20MOL   C138 4356   4.761   3.190   2.193 -0.2442 -0.4431 -0.3446
   20MOL   H139 4357   4.511   3.207   2.605  2.1477 -1.8741  1.6558
   20MOL   H140 4358   4.469   3.129   2.460 -2.3457 -0.2275  2.0580
   20MOL   H141 4359   4.760   3.209   2.481 -0.0930  3.1599  0.7513
   20MOL   H142 4360   4.804   3.106   2.137  1.1321  0.1565 -0.2009
   20MOL   H143 4361   4.840   3.258   2.227 -0.3891  0.2976 -1.4787
   20MOL   H144 4362   4.695   3.246   2.128 -0.2592 -1.2405 -1.0335
   20MOL   C145 4363   4.628   3.365   2.410 -0.7533  0.1115  0.3458
   20MOL   C146 4364   4.653   3.452   2.541 -0.0245 -0.4097 -0.5652
   20MOL   C147 4365   4.531   3.484   2.631 -0.8091  0.0303 -0.0456
   20MOL   O148 4366   4.525   3.466   2.754 -0.0810  0.1832  0.0626
   20MOL   C149 4367   4.432   3.578   2.563  0.0208  0.3942  0.2837
   20MOL   H150 4368   4.525   3.378   2.376  0.0601  1.8453 -1.5572
   20MOL   H151 4369   4.700   3.403   2.338 -1.1103 -1.4637 -0.8704
   20MOL   H152 4370   4.668   3.552   2.500  0.2318 -0.1999  0.0321
   20MOL   H153 4371   4.377   3.641   2.633  2.9269  2.7253  0.5491
   20MOL   H154 4372   4.492   3.643   2.500 -0.5111  3.6452  2.9673
   20MOL   H155 4373   4.359   3.527   2.501  2.3072 -0.7730 -1.5277
   20MOL   C156 4374   4.791   3.429   2.624  0.0479  0.4142 -0.3256
   20MOL   C157 4375   4.854   3.562   2.678 -0.3281 -0.4097  0.1863
   20MOL   C158 4376   4.923   3.645   2.571  0.0877  0.9987  0.2660
   20MOL   O159 4377   4.960   3.601   2.465  0.1464  0.2234 -0.2031
   20MOL   C160 4378   4.961   3.787   2.610  0.0162 -0.2818 -0.8250
   20MOL   H161 4379   4.771   3.365   2.710  0.1011  1.7030  0.6694
   20MOL   H162 4380   4.871   3.372   2.578  0.5405  0.5526  0.3572
   20MOL   H163 4381   4.770   3.626   2.705 -1.7127 -0.8614 -2.8290
   20MOL   H164 4382   4.931   3.814   2.711 -0.9759  1.5277 -1.5767
   20MOL   H165 4383   4.930   3.861   2.536 -2.6423 -0.2773  0.2515
   20MOL   H166 4384   5.068   3.791   2.631 -0.0252  2.3008 -0.9838
   20MOL   C167 4385   4.942   3.548   2.804  0.7440  0.0523  0.6042
   20MOL   C168 4386   4.884   3.469   2.925  0.4339 -0.5767 -1.0295
   20MOL   C169 4387   4.791   3.553   3.009 -0.3581 -0.1567 -0.7378
   20MOL   O170 4388   4.788   3.675   3.002  0.3925  0.7229  0.0133
   20MOL   C171 4389   4.683   3.485   3.095  0.0469  0.4617  0.0955
   20MOL   H172 4390   5.036   3.500   2.778  0.1838  0.0180 -1.4862
   20MOL   H173 4391   4.973   3.645   2.842 -0.4875  0.4078  0.7296
   20MOL   H174 4392   4.824   3.383   2.894  1.0769 -1.4760  0.1817
   20MOL   H175 4393   4.657   3.553   3.177  3.1036  0.4366  1.1689
   20MOL   H176 4394   4.724   3.396   3.143 -1.6180  0.8094  2.2340
   20MOL   H177 4395   4.596   3.451   3.039 -0.2476 -0.0247  0.8419
   20MOL   C178 4396   4.995   3.422   3.032  1.0595 -0.7424  0.7398
   20MOL   C179 4397   5.114   3.335   2.999 -0.5233  0.5156 -0.2279
   20MOL   C180 4398   5.076   3.194   2.953 -0.6585 -0.2162  0.3806
   20MOL   O181 4399   5.127   3.143   2.850 -0.1731 -0.4575 -0.1617
   20MOL   C182 4400   5.003   3.108   3.049 -0.2635 -0.1448 -0.1079
   20MOL   H183 4401   5.031   3.510   3.084 -0.7945 -0.7241  2.0423
   20MOL   H184 4402   4.938   3.369   3.108 -1.6635 -1.7160 -1.8596
   20MOL   H185 4403   5.173   3.385   2.923  1.4302 -0.5386  0.5492
   20MOL   H186 4404   4.918   3.079   2.989  0.1051  0.1389 -0.7724
   20MOL   H187 4405   4.973   3.159   3.141 -3.0450 -0.3147 -0.9054
   20MOL   H188 4406   5.054   3.017   3.083 -0.3994 -0.2539 -0.2002
   20MOL   C189 4407   5.209   3.347   3.118 -0.1459  0.5764  1.0010
   20MOL   C190 4408   5.338   3.253   3.102  0.0270 -0.6353  0.6991
   20MOL   C191 4409   5.434   3.284   2.984 -0.4819 -0.1645  0.3513
   20MOL   O192 4410   5.517   3.378   2.987 -0.1286 -0.0868  0.2154
   20MOL   C193 4411   5.445   3.184   2.869 -0.4945 -0.3034 -0.6506
   20MOL   H194 4412   5.242   3.450   3.130 -4.5185  2.1512  0.6551
   20MOL   H195 4413   5.159   3.338   3.215 -0.9248  2.6038  0.8155
   20MOL   H196 4414   5.312   3.150   3.082 -1.0947 -0.3338  0.5649
   20MOL   H197 4415   5.424   3.238   2.776 -1.5070 -0.0882 -0.2984
   20MOL   H198 4416   5.540   3.131   2.869 -0.6444 -0.5821 -1.3071
   20MOL   H199 4417   5.370   3.105   2.870  1.2563 -1.9898  0.7525
   20MOL   C200 4418   5.419   3.258   3.234  0.7298 -0.0664  0.0471
   20MOL   C201 4419   5.354   3.195   3.369  0.0448 -0.0265 -0.7495
   20MOL   C202 4420   5.461   3.195   3.482  0.4558  0.1269 -0.7841
   20MOL   O203 4421   5.508   3.094   3.537  0.3108 -0.5947  0.6052
   20MOL   C204 4422   5.505   3.330   3.528  0.6853  0.1940 -0.2995
   20MOL   H205 4423   5.502   3.192   3.208 -0.2338 -1.4382  0.4513
   20MOL   H206 4424   5.451   3.361   3.253 -1.9503  1.3309 -2.7102
   20MOL   H207 4425   5.268   3.253   3.402 -1.1173 -2.0988 -0.0937
   20MOL   H208 4426   5.603   3.366   3.497  0.8168 -0.0394 -0.1532
   20MOL   H209 4427   5.437   3.408   3.493  0.1396 -0.2961 -0.3208
   20MOL   H210 4428   5.491   3.337   3.636 -1.4149  0.7906 -0.5868
   20MOL   C211 4429   5.298   3.054   3.348  0.0248  0.7543  0.6296
   20MOL   C212 4430   5.245   2.985   3.488  0.3136 -0.3801 -0.3755
   20MOL   C213 4431   5.183   2.849   3.468 -0.6691 -0.1249  0.8179
   20MOL   O214 4432   5.168   2.814   3.355 -0.0931 -0.1218 -0.7716
   20MOL   C215 4433   5.145   2.761   3.589  0.9748 -0.0492  0.1053
   20MOL   H216 4434   5.221   3.042   3.271  0.1231  1.5209  0.4142
   20MOL   H217 4435   5.383   2.996   3.312 -0.4403  0.2115  0.3927
   20MOL   H218 4436   5.170   3.044   3.541  0.6960 -0.0808 -0.1689
   20MOL   H219 4437   5.089   2.672   3.561 -1.6692  1.0136  1.7555
   20MOL   H220 4438   5.238   2.731   3.638  0.8511  1.8389  1.5583
   20MOL   H221 4439   5.078   2.825   3.647  1.6439 -0.4510  1.3441
   20MOL   H222 4440   5.318   2.965   3.567 -1.1360 -1.1257  0.8118
   21MOL     C1 4441   5.157   7.484   5.726 -0.0205  0.4648 -0.0890
   21MOL     C2 4442   5.239   7.595   5.655  0.1101  0.0190  0.5923
   21MOL     C3 4443   5.358   7.636   5.743 -0.2235  0.0381  0.0494
   21MOL     O4 4444   5.456   7.571   5.743 -0.2282  0.0826 -0.2354
   21MOL     C5 4445   5.347   7.760   5.826 -1.1219 -0.1609 -0.1850
   21MOL     H6 4446   5.199   7.385   5.709  1.3384  1.3525 -2.1371
   21MOL     H7 4447   5.053   7.494   5.694  0.3437  0.0277 -1.4199
   21MOL     H8 4448   5.164   7.673   5.639  1.2115  0.6196 -1.7818
   21MOL     H9 4449   5.347   7.849   5.763 -0.2515 -0.4583 -0.6126
   21MOL    H10 4450   5.266   7.762   5.898 -2.1847  1.0539 -1.3931
   21MOL    H11 4451   5.438   7.772   5.884 -0.6935 -3.9208  0.0552
   21MOL    H12 4452   5.149   7.501   5.833  2.3156  1.5609 -0.0675
   21MOL    C13 4453   5.291   7.545   5.516  0.4556  0.0850  0.5892
   21MOL    C14 4454   5.364   7.659   5.433  0.1507  0.3669  0.0898
   21MOL    C15 4455   5.277   7.786   5.406 -0.1833 -0.3673 -0.2192
   21MOL    O16 4456   5.158   7.792   5.409 -0.1859  0.0835 -0.1800
   21MOL    C17 4457   5.353   0.053   5.377  0.5022  0.0851  0.1114
   21MOL    H18 4458   5.359   7.461   5.530 -0.4351 -0.6222  0.7491
   21MOL    H19 4459   5.205   7.504   5.464 -0.4541  1.5727  0.8793
   21MOL    H20 4460   5.447   7.699   5.490 -0.6043  0.5802  1.0475
   21MOL    H21 4461   5.278   0.122   5.338  2.8590  3.0783  0.6752
   21MOL    H22 4462   5.382   0.109   5.466  0.2659  0.2700  0.0736
   21MOL    H23 4463   5.433   0.031   5.307  2.2153 -0.4931  2.2071
   21MOL    C24 4464   5.427   7.596   5.306  0.3354  0.1074  0.6261
   21MOL    C25 4465   5.336   7.514   5.209 -0.2850 -0.2647  0.3295
   21MOL    C26 4466   5.257   7.608   5.108 -0.4336  0.0796 -0.1183
   21MOL    O27 4467   5.317   7.678   5.022  0.2650 -0.6124 -0.1864
   21MOL    C28 4468   5.108   7.614   5.129  0.1753  0.1978  1.0173
   21MOL    H29 4469   5.481   7.678   5.259 -0.5321  0.2728 -0.1078
   21MOL    H30 4470   5.506   7.527   5.335 -0.5871 -1.7183 -1.0134
   21MOL    H31 4471   5.268   7.444   5.258 -0.9523  2.0783  2.8280
   21MOL    H32 4472   5.078   7.607   5.233  1.2633 -1.0358  1.2586
   21MOL    H33 4473   5.081   7.702   5.070  0.6144 -1.1700 -1.3332
   21MOL    H34 4474   5.065   7.531   5.072  0.6556  1.4328 -1.2351
   21MOL    C35 4475   5.431   7.432   5.116 -0.3534 -0.3181 -0.7421
   21MOL    C36 4476   5.486   7.304   5.180 -0.1267 -0.0985 -0.0518
   21MOL    C37 4477   5.370   7.207   5.220  0.4982  0.1008 -0.6023
   21MOL    O38 4478   5.276   7.184   5.143  0.4553 -0.4636  0.2836
   21MOL    C39 4479   5.381   7.137   5.350 -0.2840  0.0910  0.2644
   21MOL    H40 4480   5.516   7.487   5.077 -1.2391  2.3619  0.9253
   21MOL    H41 4481   5.383   7.413   5.020 -1.3671  1.3543 -0.5851
   21MOL    H42 4482   5.540   7.328   5.272  0.3546  1.5432 -0.7347
   21MOL    H43 4483   5.329   7.042   5.355  0.8339 -0.4735  1.2098
   21MOL    H44 4484   5.345   7.204   5.428  1.2374  1.6461 -0.3199
   21MOL    H45 4485   5.487   7.123   5.368 -0.5011 -0.3434  1.2203
   21MOL    C46 4486   5.592   7.226   5.094 -0.1125 -0.4492 -0.3279
   21MOL    C47 4487   5.552   7.213   4.949  0.4542  0.3438  0.2513
   21MOL    C48 4488   5.598   7.335   4.855 -0.7395 -0.0424 -0.4315
   21MOL    O49 4489   5.685   7.417   4.885  0.1436 -0.6312  0.2939
   21MOL    C50 4490   5.522   7.345   4.729  0.2067  1.1092  0.2620
   21MOL    H51 4491   5.601   7.131   5.147 -0.3176  1.1485  2.6426
   21MOL    H52 4492   5.687   7.277   5.103 -0.3207  0.0050 -0.6875
   21MOL    H53 4493   5.445   7.202   4.933  0.6888 -1.3855 -0.3146
   21MOL    H54 4494   5.417   7.341   4.758  0.4541  0.2298  1.0422
   21MOL    H55 4495   5.543   7.441   4.680  2.3951  0.6524  0.2556
   21MOL    H56 4496   5.554   7.272   4.655 -0.8952  1.5134 -0.6399
   21MOL    C57 4497   5.614   7.087   4.887 -0.3518 -0.4097 -0.0941
   21MOL    C58 4498   5.529   6.958   4.910 -0.4563  0.2094 -0.1189
   21MOL    C59 4499   5.442   6.939   4.785  0.1354  0.1827 -0.0549
   21MOL    O60 4500   5.472   6.863   4.690 -0.3036 -0.0425 -0.0032
   21MOL    C61 4501   5.311   7.012   4.792  0.1038  0.5677 -0.5348
   21MOL    H62 4502   5.718   7.072   4.917 -0.4467 -2.0341 -0.5597
   21MOL    H63 4503   5.640   7.110   4.784 -1.1322 -1.2143 -0.4695
   21MOL    H64 4504   5.472   6.984   4.999 -2.7649  0.3248 -1.5849
   21MOL    H65 4505   5.297   7.086   4.712  0.7366  2.0177  0.6736
   21MOL    H66 4506   5.229   6.941   4.787  1.1405 -0.5964 -1.1430
   21MOL    H67 4507   5.298   7.058   4.890 -1.9634 -0.1967 -0.4325
   21MOL    C68 4508   5.619   6.835   4.945 -0.2090 -0.1018 -0.4394
   21MOL    C69 4509   5.550   6.698   4.971  0.4957 -0.1152 -0.1963
   21MOL    C70 4510   5.437   6.702   5.080 -0.1360 -0.3184 -1.0022
   21MOL    O71 4511   5.464   6.691   5.204 -0.3471 -0.5059  0.0557
   21MOL    C72 4512   5.294   6.713   5.034 -0.4165  0.4474 -0.4865
   21MOL    H73 4513   5.689   6.826   4.861 -0.8935 -1.2641 -0.9048
   21MOL    H74 4514   5.682   6.862   5.029 -0.1629  2.1486 -1.1663
   21MOL    H75 4515   5.497   6.674   4.878 -1.4290  1.1185  0.5420
   21MOL    H76 4516   5.281   6.650   4.947 -1.2622  0.1480 -0.1407
   21MOL    H77 4517   5.225   6.688   5.114  0.4318 -0.7798 -0.1166
   21MOL    H78 4518   5.277   6.819   5.014 -1.3365  0.9159  2.4481
   21MOL    C79 4519   5.660   6.589   4.984  0.1459 -0.1814  0.2329
   21MOL    C80 4520   5.606   6.448   5.000 -0.8619  1.0114  0.5891
   21MOL    C81 4521   5.561   6.404   5.139 -0.1293 -0.7114  0.0093
   21MOL    O82 4522   5.633   6.421   5.243 -0.3958 -0.3235 -0.0738
   21MOL    C83 4523   5.448   6.305   5.158  0.0409 -0.3330 -0.3262
   21MOL    H84 4524   5.718   6.618   5.072 -2.0226 -0.6339  1.8627
   21MOL    H85 4525   5.732   6.593   4.903 -0.7343  0.0173 -0.5482
   21MOL    H86 4526   5.517   6.438   4.938 -0.5481  2.6052 -0.1332
   21MOL    H87 4527   5.412   6.257   5.067  0.5383 -2.7999  0.7515
   21MOL    H88 4528   5.370   6.370   5.198 -1.5672 -1.6373 -1.2759
   21MOL    H89 4529   5.471   6.225   5.228  0.0773  1.0831  1.3055
   21MOL    C90 4530   5.710   6.347   4.940  0.6367  0.3494 -0.2650
   21MOL    C91 4531   5.662   6.206   4.922  0.3223  0.2601  0.0082
   21MOL    C92 4532   5.557   6.199   4.817  0.0190 -0.2242  0.3514
   21MOL    O93 4533   5.525   6.296   4.748  0.3016  0.2253  0.2078
   21MOL    C94 4534   5.486   6.066   4.796 -0.9983 -0.3420  0.1556
   21MOL    H95 4535   5.750   6.384   4.845  1.5963  1.3503  0.5195
   21MOL    H96 4536   5.788   6.337   5.015 -0.3770  0.7526  0.8664
   21MOL    H97 4537   5.617   6.177   5.017 -0.5472  2.2570  0.2387
   21MOL    H98 4538   5.459   6.023   4.892 -1.8457 -0.3977 -0.0994
   21MOL    H99 4539   5.394   6.093   4.744 -0.4698  0.4210 -0.3821
   21MOL   H100 4540   5.547   5.998   4.736 -1.3029 -0.6906  0.2423
   21MOL   C101 4541   5.782   6.107   4.889  0.0146 -0.1915 -0.3960
   21MOL   C102 4542   5.829   6.016   5.015  0.2428 -0.1939 -0.1225
   21MOL   C103 4543   5.749   5.895   5.038  0.2857 -0.0211 -0.4478
   21MOL   O104 4544   5.630   5.891   5.087 -0.6666  0.2594 -0.2611
   21MOL   C105 4545   5.809   5.761   4.991  0.4008  0.8588 -0.6487
   21MOL   H106 4546   5.755   6.044   4.804 -0.0087  0.6485 -1.0274
   21MOL   H107 4547   5.863   6.170   4.851  1.9607 -0.1268  3.7117
   21MOL   H108 4548   5.925   5.981   4.977  0.0520 -1.3568  0.4513
   21MOL   H109 4549   5.860   5.707   5.071 -0.5332  1.9608  0.7217
   21MOL   H110 4550   5.724   5.706   4.952  0.4143  0.5955 -0.3147
   21MOL   H111 4551   5.884   5.783   4.915 -0.6573 -0.0326 -1.9673
   21MOL   C112 4552   5.858   6.103   5.147 -0.1421 -0.5020 -0.3348
   21MOL   C113 4553   5.917   6.025   5.266  0.0763  0.3387  0.1157
   21MOL   C114 4554   5.933   6.111   5.391  0.2781  0.1330  0.8322
   21MOL   O115 4555   5.992   6.222   5.391  0.5830 -0.2853  0.3455
   21MOL   C116 4556   5.867   6.072   5.522  0.4019 -0.3960 -0.0351
   21MOL   H117 4557   5.766   6.152   5.179  0.6607  0.0352  1.2559
   21MOL   H118 4558   5.927   6.184   5.122 -1.3835  1.1812  1.4946
   21MOL   H119 4559   5.842   5.951   5.294 -1.7660  1.9428 -0.4938
   21MOL   H120 4560   5.867   5.963   5.521 -1.5361 -0.4238  0.2231
   21MOL   H121 4561   5.927   6.101   5.608  0.0520 -1.7643  0.6982
   21MOL   H122 4562   5.764   6.105   5.539  0.4849  1.1642 -2.3533
   21MOL   C123 4563   6.059   5.965   5.228 -1.1483  0.6682  0.3046
   21MOL   C124 4564   6.088   5.820   5.268  0.3813 -0.4336 -1.0316
   21MOL   C125 4565   6.056   5.790   5.421 -0.0237 -0.1172  0.5752
   21MOL   O126 4566   5.951   5.732   5.451  0.2490  0.3360 -0.3958
   21MOL   C127 4567   6.161   5.820   5.523  0.2025 -0.2817  0.1887
   21MOL   H128 4568   6.139   6.022   5.275 -0.6428 -0.1542  0.4563
   21MOL   H129 4569   6.077   5.957   5.121  2.8033 -0.1496  0.9477
   21MOL   H130 4570   6.024   5.751   5.213  1.4401 -0.3394 -2.4152
   21MOL   H131 4571   6.233   5.739   5.536 -0.6711 -1.0575  0.2530
   21MOL   H132 4572   6.120   5.838   5.622 -0.6713  1.5229 -0.4765
   21MOL   H133 4573   6.220   5.902   5.483  0.8830 -1.3270 -1.0121
   21MOL   C134 4574   6.239   5.790   5.235  0.1780 -0.4745 -0.1235
   21MOL   C135 4575   6.273   5.638   5.219  0.2529  0.3266  0.3204
   21MOL   C136 4576   6.190   5.582   5.103  0.0949  0.2129  0.1001
   21MOL   O137 4577   6.194   5.623   4.984  0.1249  0.3789  0.0659
   21MOL   C138 4578   6.087   5.478   5.139  0.4118 -0.0683 -0.4249
   21MOL   H139 4579   6.308   5.840   5.302 -0.5348  0.5235 -0.1068
   21MOL   H140 4580   6.247   5.828   5.132 -0.2325  0.8600  0.3213
   21MOL   H141 4581   6.251   5.581   5.310 -2.1591  1.6507  0.6172
   21MOL   H142 4582   6.141   5.387   5.165 -0.7637 -1.3837 -2.4747
   21MOL   H143 4583   6.027   5.456   5.051 -0.6033  0.8860  0.0143
   21MOL   H144 4584   6.026   5.517   5.221  0.1951  0.2086 -0.7160
   21MOL   C145 4585   6.420   5.621   5.192 -0.1184 -0.3878  0.2064
   21MOL   C146 4586   6.475   5.474   5.174  0.1944 -0.2935 -0.5880
   21MOL   C147 4587   6.614   5.483   5.107  0.1203 -0.6115  0.5261
   21MOL   O148 4588   6.719   5.449   5.163 -0.2582  0.1382  0.3071
   21MOL   C149 4589   6.617   5.532   4.962 -0.1117  0.3836  0.1041
   21MOL   H150 4590   6.466   5.668   5.279  0.5465 -0.6106 -0.0255
   21MOL   H151 4591   6.442   5.686   5.108 -1.2873 -0.3669 -0.0934
   21MOL   H152 4592   6.407   5.424   5.105 -0.9843 -1.2993  1.2608
   21MOL   H153 4593   6.515   5.535   4.923  0.0050 -1.1256 -0.3286
   21MOL   H154 4594   6.662   5.631   4.956  0.2631  0.1849 -0.3654
   21MOL   H155 4595   6.668   5.464   4.894 -1.9213 -2.0767  1.1122
   21MOL   C156 4596   6.482   5.410   5.317 -0.0146  0.1542 -0.0112
   21MOL   C157 4597   6.515   5.256   5.330  1.0781  0.7383  0.3111
   21MOL   C158 4598   6.401   5.162   5.278 -0.2959 -0.4010 -0.4751
   21MOL   O159 4599   6.406   5.123   5.164 -1.0313 -0.0348 -0.4081
   21MOL   C160 4600   6.275   5.137   5.356  0.5401  0.0491  0.0523
   21MOL   H161 4601   6.563   5.463   5.366 -1.2417  1.1780  0.9374
   21MOL   H162 4602   6.398   5.436   5.381 -0.5463 -0.9482 -0.2369
   21MOL   H163 4603   6.599   5.228   5.267  2.5314 -0.3503  2.6948
   21MOL   H164 4604   6.276   5.182   5.455  1.9436  3.8172 -1.5730
   21MOL   H165 4605   6.276   5.029   5.376 -1.8116 -0.0611 -0.2802
   21MOL   H166 4606   6.184   5.154   5.298  0.1637 -1.0368  0.3021
   21MOL   C167 4607   6.558   5.221   5.464  0.4258 -0.4123 -0.3579
   21MOL   C168 4608   6.690   5.134   5.458  1.1021 -0.5872  0.3549
   21MOL   C169 4609   6.662   4.990   5.417  0.6488  0.1505  0.0121
   21MOL   O170 4610   6.711   4.943   5.311 -0.1894 -0.3145 -0.0215
   21MOL   C171 4611   6.588   4.903   5.514  0.0097  0.2486 -0.2229
   21MOL   H172 4612   6.573   5.313   5.520  1.7175 -0.7485 -0.1260
   21MOL   H173 4613   6.493   5.162   5.528  1.7115 -1.4159  0.0611
   21MOL   H174 4614   6.747   5.176   5.375  0.1267 -0.2346 -0.1509
   21MOL   H175 4615   6.517   4.837   5.464 -0.5995  0.6306  0.1235
   21MOL   H176 4616   6.526   4.963   5.581  1.3880 -1.9233  3.1088
   21MOL   H177 4617   6.657   4.844   5.574 -0.1886 -1.1441 -1.3608
   21MOL   C178 4618   6.772   5.154   5.586 -0.2286  0.3644  0.0093
   21MOL   C179 4619   6.928   5.133   5.560  0.0769  0.4861  0.0388
   21MOL   C180 4620   6.995   5.087   5.692  0.8759 -0.1222 -0.0107
   21MOL   O181 4621   6.948   5.108   5.804 -0.0529 -0.5612  0.5211
   21MOL   C182 4622   7.123   5.007   5.684  0.9699  0.5187 -0.3747
   21MOL   H183 4623   6.762   5.259   5.616  1.9021  0.6589 -0.1704
   21MOL   H184 4624   6.731   5.092   5.665  1.4920 -1.9089 -0.8203
   21MOL   H185 4625   6.942   5.041   5.503 -1.3883  0.1566  0.1828
   21MOL   H186 4626   7.163   4.986   5.784  1.1936 -0.5106 -0.6718
   21MOL   H187 4627   7.207   5.060   5.639  2.8414 -2.9574 -1.2101
   21MOL   H188 4628   7.106   4.907   5.644  1.5426  0.0168  0.6033
   21MOL   C189 4629   6.980   5.276   5.518  0.1827  0.1218  0.0299
   21MOL   C190 4630   7.127   5.279   5.467  0.4682  0.2344  0.4056
   21MOL   C191 4631   7.151   5.164   5.366  0.2859  0.4132  0.4409
   21MOL   O192 4632   7.252   5.097   5.375 -0.0477 -0.1592  0.2852
   21MOL   C193 4633   7.049   5.135   5.260 -0.2052  0.2924  0.2328
   21MOL   H194 4634   6.910   5.314   5.444  1.6964  0.1933 -1.4127
   21MOL   H195 4635   6.961   5.329   5.611 -0.1820  0.1284 -0.0490
   21MOL   H196 4636   7.203   5.276   5.545 -0.1424  0.8063  1.0277
   21MOL   H197 4637   7.039   5.228   5.203 -0.1618  0.3682  0.3487
   21MOL   H198 4638   7.088   5.071   5.181  2.9775  0.9389  1.1915
   21MOL   H199 4639   6.951   5.094   5.282 -0.3824 -0.5486 -1.9506
   21MOL   C200 4640   7.151   5.419   5.403 -0.8549 -0.0632 -0.4283
   21MOL   C201 4641   7.292   5.453   5.355  0.0600 -0.0082  0.4117
   21MOL   C202 4642   7.395   5.416   5.465  0.3986  0.1812  0.3884
   21MOL   O203 4643   7.397   5.478   5.578  0.5629  0.0165 -0.4459
   21MOL   C204 4644   7.507   5.317   5.428 -0.8556  0.3260  0.1281
   21MOL   H205 4645   7.070   5.443   5.333  1.1724  1.7770 -2.2310
   21MOL   H206 4646   7.132   5.490   5.484 -0.8897 -0.2596 -0.2661
   21MOL   H207 4647   7.321   5.387   5.273 -1.5703 -0.9352  0.5681
   21MOL   H208 4648   7.603   5.331   5.478  0.0795  1.8162 -2.0267
   21MOL   H209 4649   7.469   5.215   5.438  0.1999 -0.2764 -1.7702
   21MOL   H210 4650   7.526   5.320   5.321  2.5583  0.9760  0.6692
   21MOL   C211 4651   7.303   5.598   5.298  0.0482 -0.6072  0.0756
   21MOL   C212 4652   7.417   5.623   5.195  0.1274 -0.1758 -0.0353
   21MOL   C213 4653   7.363   5.594   5.056 -0.3086  0.2306  0.1999
   21MOL   O214 4654   7.313   5.477   5.041 -0.6128  0.3395 -0.0637
   21MOL   C215 4655   7.358   5.698   4.944  0.2176 -0.5386 -0.6115
   21MOL   H216 4656   7.202   5.613   5.260  1.0310  1.9054 -1.6922
   21MOL   H217 4657   7.305   5.670   5.379  0.3855 -1.4794  0.8610
   21MOL   H218 4658   7.506   5.562   5.210 -1.0720 -1.3585  2.5293
   21MOL   H219 4659   7.297   5.786   4.961  2.8810  0.9361  1.6721
   21MOL   H220 4660   7.460   5.727   4.917 -0.5388  0.9315 -1.9297
   21MOL   H221 4661   7.336   5.645   4.851 -2.0032  2.9031 -2.1431
   21MOL   H222 4662   7.450   5.727   5.190 -0.1117  0.0070  1.7630
   22MOL     C1 4663   5.067   0.188   2.922 -0.3835  0.2654 -0.3269
   22MOL     C2 4664   4.951   0.084   2.938 -0.1323 -0.3670 -0.0974
   22MOL     C3 4665   4.824   0.161   2.991  0.2009  0.5056 -0.4013
   22MOL     O4 4666   4.733   0.202   2.921  0.4044  0.5346 -0.2330
   22MOL     C5 4667   4.821   0.188   3.138 -0.0398  0.4185  0.5494
   22MOL     H6 4668   5.107   0.210   3.021 -0.4549  0.8832 -0.4355
   22MOL     H7 4669   5.033   0.284   2.883 -0.9637 -0.5491 -1.8968
   22MOL     H8 4670   4.981   0.020   3.020  0.1351 -1.4922 -1.0610
   22MOL     H9 4671   4.859   0.098   3.187  1.3313  0.6073 -0.1381
   22MOL    H10 4672   4.880   0.274   3.169  1.2485  0.0390 -0.7905
   22MOL    H11 4673   4.716   0.198   3.165  0.5469  0.6370  2.8583
   22MOL    H12 4674   5.153   0.155   2.863  1.4786  1.0042  1.9272
   22MOL    C13 4675   4.930   0.005   2.804 -0.2061  0.3839  0.1564
   22MOL    C14 4676   4.829   7.743   2.804 -0.5023 -0.1092  0.3016
   22MOL    C15 4677   4.870   7.622   2.891 -0.4169  0.0365 -1.0462
   22MOL    O16 4678   4.971   7.557   2.859  0.1351  0.1233  0.2071
   22MOL    C17 4679   4.788   7.588   3.011  0.2061  0.0629 -0.4672
   22MOL    H18 4680   4.906   0.078   2.726 -0.4062  0.1598  0.0071
   22MOL    H19 4681   5.029   7.832   2.770 -0.3516  0.4915 -0.3714
   22MOL    H20 4682   4.741   7.792   2.846 -0.4395  1.6842 -1.5602
   22MOL    H21 4683   4.740   7.491   3.007 -0.3560  0.3027  0.3184
   22MOL    H22 4684   4.829   7.603   3.111 -1.9922 -0.1358  0.4830
   22MOL    H23 4685   4.701   7.653   3.003 -1.0485 -1.7496 -1.8577
   22MOL    C24 4686   4.799   7.706   2.653  0.0643  0.3497  0.2588
   22MOL    C25 4687   4.698   7.582   2.631  0.1025 -0.2594 -0.2706
   22MOL    C26 4688   4.575   7.571   2.723  0.0491 -0.0583  0.2779
   22MOL    O27 4689   4.525   7.670   2.782 -0.1085 -0.6585  0.3359
   22MOL    C28 4690   4.509   7.437   2.733 -0.0465 -0.3660  0.1289
   22MOL    H29 4691   4.757   7.790   2.599  0.6974  0.0644 -0.6970
   22MOL    H30 4692   4.892   7.686   2.600  0.6348 -1.6131  1.9311
   22MOL    H31 4693   4.740   7.487   2.665 -0.8928 -0.0726  1.5877
   22MOL    H32 4694   4.435   7.418   2.654  1.2491 -4.6803 -0.2057
   22MOL    H33 4695   4.583   7.362   2.707 -0.0009 -0.9321  1.8525
   22MOL    H34 4696   4.474   7.410   2.832  1.9000  0.2101  0.9853
   22MOL    C35 4697   4.636   7.584   2.486  0.0147 -0.1941 -0.1022
   22MOL    C36 4698   4.746   7.565   2.374 -0.2643  0.2785 -0.6099
   22MOL    C37 4699   4.759   7.418   2.323  0.0853 -0.2833 -0.0894
   22MOL    O38 4700   4.856   7.354   2.346 -0.6449  0.1137 -0.5358
   22MOL    C39 4701   4.643   7.354   2.241 -0.3364 -0.1262 -0.3625
   22MOL    H40 4702   4.570   7.670   2.472 -1.3605 -0.9485  1.6480
   22MOL    H41 4703   4.570   7.498   2.474  0.6375 -0.4632 -1.8121
   22MOL    H42 4704   4.843   7.592   2.415  0.1508 -0.6442 -0.9814
   22MOL    H43 4705   4.631   7.424   2.159  0.4480  4.5707  3.2731
   22MOL    H44 4706   4.550   7.356   2.299 -0.1373  2.0557 -0.0773
   22MOL    H45 4707   4.677   7.256   2.207  1.2217  0.3383 -0.1753
   22MOL    C46 4708   4.732   7.667   2.261  0.2334 -0.0333  0.5981
   22MOL    C47 4709   4.843   7.674   2.154 -0.6624 -0.6337 -0.8458
   22MOL    C48 4710   4.825   7.576   2.031 -0.0125 -0.3004 -0.4821
   22MOL    O49 4711   4.713   7.555   1.984 -0.2988  0.0010 -0.1681
   22MOL    C50 4712   4.943   7.495   1.985  0.0623 -0.4370 -0.2991
   22MOL    H51 4713   4.725   7.768   2.301  2.8629  0.4966 -0.1911
   22MOL    H52 4714   4.634   7.653   2.214  1.6860 -3.0846 -1.7245
   22MOL    H53 4715   4.937   7.648   2.202 -0.4304 -1.5993 -1.7976
   22MOL    H54 4716   5.025   7.506   2.057 -0.7442 -0.4146  0.6316
   22MOL    H55 4717   4.922   7.388   1.976  2.6083 -0.7992 -2.9139
   22MOL    H56 4718   4.985   7.525   1.889  1.7394 -0.8804  0.2602
   22MOL    C57 4719   4.871   7.822   2.107  0.7090  0.1015  0.4613
   22MOL    C58 4720   4.939   0.061   2.200  0.4921 -0.6819 -0.1928
   22MOL    C59 4721   5.070   0.002   2.242 -0.0958 -0.7343 -0.6189
   22MOL    O60 4722   5.086   7.818   2.358 -0.0791  0.1132 -0.4256
   22MOL    C61 4723   5.174   7.843   2.139  0.0792  0.3139  0.4186
   22MOL    H62 4724   4.768   7.852   2.087  0.1497 -0.0066  3.0203
   22MOL    H63 4725   4.917   7.821   2.008  0.8080  1.1511  0.4887
   22MOL    H64 4726   4.881   0.059   2.293  2.2553  1.1505  0.9733
   22MOL    H65 4727   5.257   0.055   2.146 -0.2590  0.6094  1.5538
   22MOL    H66 4728   5.208   7.739   2.147 -0.3982 -0.0002 -1.3033
   22MOL    H67 4729   5.135   7.841   2.037 -1.5490  1.9945  0.9930
   22MOL    C68 4730   4.952   0.206   2.147  0.7117 -0.4976  0.4039
   22MOL    C69 4731   5.006   0.304   2.240 -0.1342  0.0601  0.5019
   22MOL    C70 4732   4.925   0.316   2.369  0.1887 -0.3352 -0.0747
   22MOL    O71 4733   4.805   0.347   2.372  0.6605 -0.5827 -0.1890
   22MOL    C72 4734   5.002   0.281   2.501 -0.2397 -0.2705 -0.0464
   22MOL    H73 4735   5.020   0.203   2.061 -1.4497 -0.3959 -1.3610
   22MOL    H74 4736   4.854   0.240   2.112  2.0749  1.7654 -1.3808
   22MOL    H75 4737   5.104   0.277   2.279  0.2364 -0.6152 -0.8741
   22MOL    H76 4738   5.066   0.195   2.483 -2.7417 -2.5564  1.5750
   22MOL    H77 4739   5.058   0.366   2.541 -0.4596  0.0707 -0.4525
   22MOL    H78 4740   4.925   0.246   2.569 -0.7223  0.5064 -0.1843
   22MOL    C79 4741   5.025   0.449   2.179  0.1674 -0.1813 -0.7162
   22MOL    C80 4742   5.096   0.565   2.251 -0.1698 -0.3055 -0.7432
   22MOL    C81 4743   5.230   0.533   2.310  0.0644  0.1062  0.3535
   22MOL    O82 4744   5.269   0.417   2.327  0.7711 -0.4666  0.3229
   22MOL    C83 4745   5.325   0.649   2.344 -0.0388  0.2245  0.1090
   22MOL    H84 4746   4.924   0.484   2.155  0.2917 -0.2666 -1.3655
   22MOL    H85 4747   5.060   0.436   2.077  0.5988  0.7440 -0.6919
   22MOL    H86 4748   5.118   0.635   2.170  0.3492  0.6292  0.1900
   22MOL    H87 4749   5.330   0.657   2.452 -2.8632  2.0307  0.1468
   22MOL    H88 4750   5.299   0.746   2.303  1.1365  1.1227  1.4355
   22MOL    H89 4751   5.424   0.617   2.309  0.5944  0.6674  1.4599
   22MOL    C90 4752   5.008   0.628   2.357 -0.6074  0.1183  0.1649
   22MOL    C91 4753   4.990   0.777   2.348 -0.3901  0.0828 -0.7538
   22MOL    C92 4754   4.916   0.840   2.226 -0.3895  0.3645  0.5837
   22MOL    O93 4755   4.951   0.936   2.160 -0.3769 -0.5545  0.4677
   22MOL    C94 4756   4.786   0.769   2.182  0.3482  0.5340 -0.0290
   22MOL    H95 4757   4.905   0.592   2.359  0.2408 -2.4261  0.4806
   22MOL    H96 4758   5.042   0.596   2.456 -0.8669  1.0294  0.5537
   22MOL    H97 4759   5.086   0.828   2.346 -2.2545  3.9808  1.9025
   22MOL    H98 4760   4.785   0.662   2.203  0.8194  1.2092  3.7225
   22MOL    H99 4761   4.703   0.811   2.239  3.1554  1.5791  3.5122
   22MOL   H100 4762   4.762   0.754   2.077 -2.2656 -0.8438  0.7012
   22MOL   C101 4763   4.915   0.832   2.476 -0.1661 -0.2915  0.1008
   22MOL   C102 4764   4.880   0.980   2.488  0.4967 -0.4271 -0.2662
   22MOL   C103 4765   5.006   1.066   2.479 -0.6292 -0.1465 -0.6228
   22MOL   O104 4766   5.118   1.018   2.496  0.1179  0.4319 -0.1342
   22MOL   C105 4767   4.997   1.219   2.450  0.3703 -0.7389  0.9849
   22MOL   H106 4768   4.822   0.776   2.478 -0.4410  0.1577  3.5062
   22MOL   H107 4769   4.958   0.794   2.569 -1.8427  0.1416  1.0723
   22MOL   H108 4770   4.815   1.013   2.406 -1.5214 -3.0645  0.2021
   22MOL   H109 4771   5.091   1.273   2.457 -0.8021  1.1468  2.7466
   22MOL   H110 4772   4.947   1.246   2.357  0.5244  2.0188  1.6632
   22MOL   H111 4773   4.930   1.252   2.529  2.0695  1.3529  1.5969
   22MOL   C112 4774   4.800   1.021   2.620 -0.5976 -0.5870 -0.2748
   22MOL   C113 4775   4.658   0.975   2.600 -0.5978 -0.1111 -0.5837
   22MOL   C114 4776   4.567   1.073   2.522  0.6069 -0.5032 -0.5033
   22MOL   O115 4777   4.567   1.192   2.539  0.2306  0.0165  0.2025
   22MOL   C116 4778   4.474   1.017   2.410 -0.0024 -0.3390  0.1305
   22MOL   H117 4779   4.795   1.129   2.634 -2.4289 -0.1603 -3.5663
   22MOL   H118 4780   4.834   0.982   2.716 -3.3509 -1.1319  0.5108
   22MOL   H119 4781   4.644   0.884   2.543  0.3939  0.4739 -1.7873
   22MOL   H120 4782   4.509   1.045   2.311 -0.4158  1.1253  0.3757
   22MOL   H121 4783   4.457   0.910   2.415  0.7606 -0.5703 -1.9570
   22MOL   H122 4784   4.382   1.074   2.425 -0.2244 -0.0024 -2.3949
   22MOL   C123 4785   4.591   0.947   2.732  0.0109  0.9121 -0.3016
   22MOL   C124 4786   4.638   0.823   2.818 -0.1251 -0.8128 -0.7447
   22MOL   C125 4787   4.595   0.685   2.761  0.3227 -0.4945  0.6726
   22MOL   O126 4788   4.525   0.671   2.660  0.2044 -0.3227  0.2470
   22MOL   C127 4789   4.671   0.571   2.812  0.0999  0.5148 -0.2182
   22MOL   H128 4790   4.483   0.937   2.722 -0.0577  2.8844 -1.7068
   22MOL   H129 4791   4.591   1.036   2.795 -0.1665  0.7438 -0.0592
   22MOL   H130 4792   4.745   0.810   2.807  0.5115 -0.6388  4.1663
   22MOL   H131 4793   4.646   0.486   2.749 -0.5267 -0.9107  1.8604
   22MOL   H132 4794   4.657   0.541   2.916 -3.5557  0.6261 -0.6071
   22MOL   H133 4795   4.777   0.577   2.790  0.2550 -1.8202 -0.1889
   22MOL   C134 4796   4.599   0.854   2.964  0.4142 -0.5185  0.8298
   22MOL   C135 4797   4.638   0.763   3.081 -0.7053 -0.7726 -0.1033
   22MOL   C136 4798   4.787   0.767   3.102 -0.1832 -0.0692 -0.6259
   22MOL   O137 4799   4.858   0.867   3.068  0.2713 -0.3158  0.3663
   22MOL   C138 4800   4.851   0.660   3.191  0.1557 -0.1929  0.1192
   22MOL   H139 4801   4.490   0.866   2.966  0.4871 -0.0764  2.0781
   22MOL   H140 4802   4.626   0.955   2.997  1.4902 -1.7049  3.7252
   22MOL   H141 4803   4.598   0.663   3.061  0.1129 -0.8889 -1.1879
   22MOL   H142 4804   4.845   0.577   3.121  0.3945 -0.5121  0.4719
   22MOL   H143 4805   4.792   0.643   3.281 -0.4478 -0.4291 -0.3205
   22MOL   H144 4806   4.950   0.692   3.223  0.4151 -0.3367 -0.5319
   22MOL   C145 4807   4.560   0.798   3.209  0.2732  0.0091  0.2326
   22MOL   C146 4808   4.624   0.892   3.318  0.5767  0.4492  0.2100
   22MOL   C147 4809   4.612   1.035   3.264 -0.8101 -0.7909 -0.1136
   22MOL   O148 4810   4.512   1.100   3.268  0.0711  0.1338 -0.4896
   22MOL   C149 4811   4.748   1.109   3.226 -0.1304 -0.1485 -0.5282
   22MOL   H150 4812   4.557   0.703   3.264  1.2247 -0.8419 -1.1550
   22MOL   H151 4813   4.458   0.821   3.180  0.0920  0.3175  1.0858
   22MOL   H152 4814   4.731   0.873   3.317  0.5712  0.2328  2.4285
   22MOL   H153 4815   4.818   1.075   3.301 -3.1568  1.6402  3.2800
   22MOL   H154 4816   4.781   1.088   3.124 -1.3324 -2.4501 -0.4831
   22MOL   H155 4817   4.746   1.218   3.225  2.0650 -0.0937 -0.9981
   22MOL   C156 4818   4.564   0.872   3.456 -0.1717 -0.0988  0.3613
   22MOL   C157 4819   4.654   0.930   3.564 -0.0438 -0.0505  0.0557
   22MOL   C158 4820   4.799   0.895   3.551 -0.0647  0.8463  0.4336
   22MOL   O159 4821   4.827   0.781   3.516 -0.0301 -0.0720  0.3332
   22MOL   C160 4822   4.905   1.001   3.569 -0.3370 -0.6306 -0.8049
   22MOL   H161 4823   4.458   0.894   3.468 -0.3537 -0.9776  0.3946
   22MOL   H162 4824   4.554   0.765   3.477 -0.5932  0.1208  1.2753
   22MOL   H163 4825   4.652   1.038   3.551 -1.4550 -0.2579 -1.6488
   22MOL   H164 4826   4.940   1.002   3.673 -1.9740  1.9421 -0.2352
   22MOL   H165 4827   4.868   1.098   3.535  2.7542  1.2185  0.8186
   22MOL   H166 4828   4.984   0.968   3.502  0.0945  1.2675 -1.2771
   22MOL   C167 4829   4.611   0.898   3.712  0.4893 -0.1274 -0.2393
   22MOL   C168 4830   4.494   0.978   3.774 -0.1475  0.4687 -0.0876
   22MOL   C169 4831   4.534   1.113   3.824 -0.4954 -0.7242 -0.0701
   22MOL   O170 4832   4.523   1.210   3.749 -0.1009 -0.2068  0.2035
   22MOL   C171 4833   4.598   1.137   3.961 -0.0249  0.5101  0.8280
   22MOL   H172 4834   4.576   0.796   3.721  2.6227 -1.0905 -2.2041
   22MOL   H173 4835   4.698   0.895   3.777  2.0188 -1.5200 -2.2723
   22MOL   H174 4836   4.417   0.994   3.698  1.4878  0.7699 -1.7248
   22MOL   H175 4837   4.520   1.131   4.038  1.7007  0.1004  2.5745
   22MOL   H176 4838   4.665   1.221   3.974  0.6613  0.0988 -0.0219
   22MOL   H177 4839   4.650   1.048   3.998  0.9472  2.5777  4.7274
   22MOL   C178 4840   4.415   0.885   3.877 -0.3400  0.4591 -0.3897
   22MOL   C179 4841   4.296   0.937   3.962 -0.0270 -0.5585  0.4486
   22MOL   C180 4842   4.256   0.837   4.075 -0.4142 -0.0674  0.8078
   22MOL   O181 4843   4.224   0.721   4.052 -0.6874 -0.4521  0.0103
   22MOL   C182 4844   4.261   0.879   4.223  0.4009  0.2597 -0.2328
   22MOL   H183 4845   4.381   0.794   3.827  0.5515 -1.5714  2.5361
   22MOL   H184 4846   4.490   0.861   3.953  0.5770 -3.8438 -2.4954
   22MOL   H185 4847   4.337   1.030   4.000 -1.0504  0.4127 -0.7787
   22MOL   H186 4848   4.228   0.983   4.229  0.0992  0.3543 -2.9748
   22MOL   H187 4849   4.363   0.881   4.264  1.0401 -2.2359 -1.6529
   22MOL   H188 4850   4.191   0.820   4.282 -2.0289  1.0870 -2.2057
   22MOL   C189 4851   4.177   0.969   3.867 -0.5183  0.4616  0.3440
   22MOL   C190 4852   4.124   0.854   3.772  0.5319  0.6002 -1.0955
   22MOL   C191 4853   3.977   0.813   3.807  0.3387 -0.4565 -0.6825
   22MOL   O192 4854   3.887   0.861   3.743 -0.2714  0.1804 -0.7883
   22MOL   C193 4855   3.952   0.719   3.920  0.0041  0.4230 -1.0940
   22MOL   H194 4856   4.098   1.002   3.935 -0.3962 -1.2579  1.3505
   22MOL   H195 4857   4.190   1.063   3.813  1.7360  1.7178  2.8986
   22MOL   H196 4858   4.170   0.760   3.802  0.2111  0.6698 -0.3786
   22MOL   H197 4859   4.009   0.626   3.927 -0.8479  0.0780  1.8375
   22MOL   H198 4860   3.962   0.769   4.016 -3.1889  1.7396 -1.4106
   22MOL   H199 4861   3.851   0.681   3.921  0.6528 -1.3474  1.5810
   22MOL   C200 4862   4.153   0.877   3.623  0.1425 -0.4861  0.4974
   22MOL   C201 4863   4.128   0.751   3.539  0.3158 -0.4810 -0.3025
   22MOL   C202 4864   4.217   0.630   3.572 -0.7463  1.0256  0.8397
   22MOL   O203 4865   4.334   0.630   3.534 -0.0097 -0.0500 -0.3734
   22MOL   C204 4866   4.170   0.516   3.657  1.0566 -0.4672 -0.2477
   22MOL   H205 4867   4.098   0.964   3.587 -0.2665 -1.4027 -1.1538
   22MOL   H206 4868   4.259   0.904   3.619  0.1641 -0.7297 -0.6433
   22MOL   H207 4869   4.027   0.715   3.555 -0.2854  0.3846 -1.9998
   22MOL   H208 4870   4.114   0.536   3.749 -0.5477 -1.2655 -1.0146
   22MOL   H209 4871   4.085   0.468   3.608  1.5026  0.1502 -1.6548
   22MOL   H210 4872   4.241   0.435   3.672  1.5233  0.3025  1.9279
   22MOL   C211 4873   4.135   0.784   3.384 -0.1389  0.8384 -0.2319
   22MOL   C212 4874   4.094   0.671   3.288 -0.4613  0.7145 -0.2028
   22MOL   C213 4875   3.958   0.612   3.315  0.6270  0.4495  0.1864
   22MOL   O214 4876   3.869   0.669   3.383 -0.1565 -0.5101 -0.2369
   22MOL   C215 4877   3.928   0.482   3.249 -0.4609  0.0836  0.1466
   22MOL   H216 4878   4.077   0.874   3.363 -1.2478  0.4047  0.8885
   22MOL   H217 4879   4.232   0.818   3.349 -1.0423  4.3080  0.4129
   22MOL   H218 4880   4.163   0.588   3.306  0.2698  1.1725 -0.8483
   22MOL   H219 4881   4.008   0.470   3.175  1.8301  2.8538  2.0384
   22MOL   H220 4882   3.937   0.400   3.320  0.3442 -0.7169 -0.8528
   22MOL   H221 4883   3.832   0.490   3.199  0.3474  1.0191 -1.3110
   22MOL   H222 4884   4.097   0.696   3.182 -1.2960  1.8812  0.0468
   23MOL     C1 4885   7.844   6.639   3.558 -0.1323 -0.1306 -0.4286
   23MOL     C2 4886   7.842   6.792   3.547  0.2196  0.5312  0.1961
   23MOL     C3 4887   7.699   6.853   3.548 -0.8110  0.2294 -0.1687
   23MOL     O4 4888   7.629   6.872   3.646 -0.1196  0.0898  0.0095
   23MOL     C5 4889   7.644   6.887   3.406  0.3902  0.2595 -0.4434
   23MOL     H6 4890   7.802   6.631   3.659 -0.4771  1.5152 -0.4271
   23MOL     H7 4891   0.085   6.598   3.541 -0.0530 -1.1450  2.1583
   23MOL     H8 4892   0.024   6.821   3.450  0.5512  0.6496  0.3652
   23MOL     H9 4893   7.710   6.877   3.320  3.4581 -2.8769  2.1242
   23MOL    H10 4894   7.567   6.811   3.391  0.6369  0.0150 -0.4879
   23MOL    H11 4895   7.601   6.987   3.410 -1.0425 -0.4141  2.2993
   23MOL    H12 4896   7.774   6.585   3.494 -0.2754  1.4506 -1.6175
   23MOL    C13 4897   0.073   6.856   3.660 -0.0734 -0.3528  0.2665
   23MOL    C14 4898   0.103   7.013   3.655  0.7959 -0.0878  0.1169
   23MOL    C15 4899   0.253   7.050   3.655  0.1115 -0.2274 -0.2073
   23MOL    O16 4900   0.326   6.991   3.729 -0.1084 -0.0540  0.0333
   23MOL    C17 4901   0.310   7.153   3.561  0.4651 -0.2452  0.2143
   23MOL    H18 4902   0.042   6.813   3.755 -1.3395 -0.5163 -0.2170
   23MOL    H19 4903   0.171   6.809   3.653 -0.5478 -1.0537 -2.1086
   23MOL    H20 4904   0.068   7.041   3.556  1.4539  0.3492  0.0061
   23MOL    H21 4905   0.397   7.114   3.509 -0.3799  1.4442 -2.6146
   23MOL    H22 4906   0.241   7.179   3.480  2.5714  0.3791 -1.4040
   23MOL    H23 4907   0.351   7.239   3.613  2.3474  0.0825 -1.7336
   23MOL    C24 4908   0.021   7.091   3.760  0.0264 -0.3791 -0.1208
   23MOL    C25 4909   0.005   7.251   3.745  0.1419 -0.3003 -0.5092
   23MOL    C26 4910   7.793   7.280   3.606  0.2917  0.0648  0.0568
   23MOL    O27 4911   7.758   7.196   3.523  0.0773  0.0966  0.0335
   23MOL    C28 4912   7.785   7.429   3.570 -0.1456 -0.2679 -0.7190
   23MOL    H29 4913   7.774   7.062   3.755 -0.1221  0.1987 -0.3847
   23MOL    H30 4914   0.053   7.060   3.859  0.6390 -0.8856 -0.4763
   23MOL    H31 4915   0.100   7.302   3.730  0.1387 -0.4422 -1.0055
   23MOL    H32 4916   7.777   7.435   3.461  0.1106  0.9045 -0.6831
   23MOL    H33 4917   7.698   7.471   3.619  0.9252  0.3691  0.6729
   23MOL    H34 4918   0.023   7.470   3.603  0.9683 -0.1772 -3.8150
   23MOL    C35 4919   7.800   7.329   3.863 -0.2807  0.2765  0.1190
   23MOL    C36 4920   7.659   7.290   3.899  0.3251 -0.1693 -0.7653
   23MOL    C37 4921   7.651   7.172   3.989  1.0453  0.6568  0.2863
   23MOL    O38 4922   7.691   7.176   4.106 -0.3982 -0.0306 -0.4952
   23MOL    C39 4923   7.578   7.046   3.942 -0.4575 -0.0428  0.4737
   23MOL    H40 4924   7.800   7.435   3.835  1.2449  0.6887  1.6096
   23MOL    H41 4925   0.009   7.316   3.948 -0.6386  0.1797  0.3876
   23MOL    H42 4926   7.605   7.257   3.810 -1.5382  3.3868 -1.0432
   23MOL    H43 4927   7.642   6.962   3.970  0.9907  0.8019 -0.2719
   23MOL    H44 4928   7.546   7.047   3.838  0.2185  0.9389  0.2800
   23MOL    H45 4929   7.487   7.038   4.002  0.0632 -2.4419  1.0059
   23MOL    C46 4930   7.574   7.412   3.945 -0.6873  0.1971  0.3863
   23MOL    C47 4931   7.419   7.392   3.908 -0.6069 -0.2305  0.0431
   23MOL    C48 4932   7.330   7.471   4.003  0.0488 -0.0834  0.9418
   23MOL    O49 4933   7.218   7.438   4.024 -0.1579  0.3011  0.7868
   23MOL    C50 4934   7.381   7.587   4.082  0.4547 -0.4137 -0.2338
   23MOL    H51 4935   7.602   7.510   3.907  1.5551  0.1341  1.8170
   23MOL    H52 4936   7.581   7.420   4.053 -0.3541 -0.6207  0.4285
   23MOL    H53 4937   7.402   7.285   3.914  0.9657 -0.6877 -2.7307
   23MOL    H54 4938   7.416   7.546   4.177  0.5540 -3.2572 -1.4317
   23MOL    H55 4939   7.472   7.626   4.036  0.8969 -0.8390  0.2647
   23MOL    H56 4940   7.309   7.667   4.098  0.8686  0.1644 -1.2485
   23MOL    C57 4941   7.381   7.417   3.754 -0.1128  0.4033  0.6702
   23MOL    C58 4942   7.259   7.330   3.712  0.4681 -0.3368 -0.7727
   23MOL    C59 4943   7.170   7.400   3.610  0.3267 -0.9206  0.3153
   23MOL    O60 4944   7.185   7.392   3.487 -0.6127  0.3045 -0.2503
   23MOL    C61 4945   7.059   7.488   3.674 -0.1716  0.7898 -0.4308
   23MOL    H62 4946   7.467   7.380   3.698  0.8737  1.3029  1.5698
   23MOL    H63 4947   7.366   7.520   3.724 -0.9966 -0.3857 -1.6848
   23MOL    H64 4948   7.186   7.328   3.792  0.5541 -1.0011 -0.7017
   23MOL    H65 4949   7.084   7.533   3.770  1.0095 -0.0828 -0.3187
   23MOL    H66 4950   7.035   7.573   3.610  1.1818  2.1819  0.8579
   23MOL    H67 4951   6.965   7.433   3.680 -0.6663  1.6902  0.1768
   23MOL    C68 4952   7.308   7.185   3.674  0.4703  0.3119 -0.7047
   23MOL    C69 4953   7.192   7.075   3.666  0.5576 -0.2782 -0.0920
   23MOL    C70 4954   7.116   7.057   3.798  0.1910 -0.0894 -0.5412
   23MOL    O71 4955   7.167   7.066   3.912 -0.0063  0.2213 -0.3336
   23MOL    C72 4956   6.963   7.058   3.787 -0.5775  0.5764 -0.4307
   23MOL    H73 4957   7.358   7.191   3.577 -0.7692 -0.2528 -1.3923
   23MOL    H74 4958   7.383   7.157   3.747 -1.3174 -0.8006  0.7711
   23MOL    H75 4959   7.130   7.114   3.585 -1.2673 -2.8840  0.0026
   23MOL    H76 4960   6.917   6.960   3.803 -1.6100  1.0917 -0.2290
   23MOL    H77 4961   6.916   7.125   3.859 -0.2827  1.6430 -1.2241
   23MOL    H78 4962   6.949   7.099   3.687  1.9275  2.5193 -0.0380
   23MOL    C79 4963   7.265   6.946   3.619  0.1347 -0.1581  0.0525
   23MOL    C80 4964   7.180   6.836   3.559  0.4114 -0.6804  0.4183
   23MOL    C81 4965   7.259   6.711   3.541  0.4160 -0.4242  0.5557
   23MOL    O82 4966   7.321   6.688   3.435 -0.2153 -0.0120  0.1346
   23MOL    C83 4967   7.267   6.617   3.663  0.9726  0.3288  0.3118
   23MOL    H84 4968   7.321   6.906   3.704 -0.9399  2.3528  1.9790
   23MOL    H85 4969   7.331   6.969   3.535  0.0995  1.0376  0.3406
   23MOL    H86 4970   7.105   6.816   3.636  0.8327  0.2387  1.0721
   23MOL    H87 4971   7.168   6.623   3.709  0.2502  0.3370 -1.2120
   23MOL    H88 4972   7.348   6.647   3.729 -1.0519  1.6085  2.2846
   23MOL    H89 4973   7.279   6.512   3.638  0.2768 -0.2355  2.2784
   23MOL    C90 4974   7.102   6.881   3.437  0.3634 -0.1107 -0.1894
   23MOL    C91 4975   6.988   6.786   3.377 -0.8031  0.0757  0.7338
   23MOL    C92 4976   6.883   6.748   3.476  0.0807 -0.1731 -0.0624
   23MOL    O93 4977   6.831   6.840   3.539  0.3403 -0.3607  0.1316
   23MOL    C94 4978   6.832   6.602   3.467  0.5686  0.6146  0.1777
   23MOL    H95 4979   7.046   6.972   3.463  0.1272 -0.4470  0.4942
   23MOL    H96 4980   7.169   6.921   3.361  0.2343  1.2519  0.3852
   23MOL    H97 4981   7.030   6.687   3.359  0.8060  0.5131  1.9532
   23MOL    H98 4982   6.916   6.538   3.492  0.2463 -0.8196 -2.2242
   23MOL    H99 4983   6.765   6.573   3.548  1.0535 -0.5913  0.1531
   23MOL   H100 4984   6.785   6.581   3.371  1.9918 -1.3962 -0.1057
   23MOL   C101 4985   6.929   6.844   3.240 -0.2261 -0.0548 -0.0048
   23MOL   C102 4986   7.022   6.818   3.116  0.1310  0.7625  0.2766
   23MOL   C103 4987   7.034   6.941   3.027 -0.1055  0.1731 -0.1270
   23MOL   O104 4988   7.141   7.001   3.006 -0.3731 -0.0062 -0.4976
   23MOL   C105 4989   6.912   6.984   2.943  0.6567 -0.5650 -0.1793
   23MOL   H106 4990   6.830   6.803   3.217  0.2251 -1.3865  0.3886
   23MOL   H107 4991   6.919   6.951   3.261  1.1148 -0.0725  0.7479
   23MOL   H108 4992   7.124   6.811   3.153  0.0371 -2.0814  0.0744
   23MOL   H109 4993   6.951   6.982   2.841 -0.5524 -2.1964 -0.6307
   23MOL   H110 4994   6.825   6.920   2.953  0.2493 -0.0650 -0.5111
   23MOL   H111 4995   6.881   7.082   2.978  0.9404 -0.5477  0.0283
   23MOL   C112 4996   6.996   6.692   3.037  0.0728 -0.6006 -0.6685
   23MOL   C113 4997   7.118   6.595   3.030 -0.6124 -0.1984  0.5853
   23MOL   C114 4998   7.213   6.626   2.912  0.1683 -0.0127 -0.3151
   23MOL   O115 4999   7.173   6.647   2.797  0.1544 -0.1617  0.1159
   23MOL   C116 5000   7.363   6.635   2.943 -0.7006 -0.2575  0.0407
   23MOL   H117 5001   6.958   6.706   2.936 -0.7452  1.7010 -0.0743
   23MOL   H118 5002   6.915   6.637   3.086  0.9947 -0.1207  1.4647
   23MOL   H119 5003   7.163   6.585   3.129 -1.7891 -2.1639  0.9688
   23MOL   H120 5004   7.417   6.564   2.881 -2.2813 -1.0926 -0.4131
   23MOL   H121 5005   7.367   6.743   2.928  0.5535 -0.5771 -2.1521
   23MOL   H122 5006   7.377   6.621   3.050 -1.8486  0.3092  0.2789
   23MOL   C123 5007   7.071   6.446   3.018  0.0367 -0.3156  0.0605
   23MOL   C124 5008   7.150   6.340   3.098  1.0347 -0.2817 -1.3429
   23MOL   C125 5009   7.299   6.331   3.057 -0.4384  0.2323  0.2792
   23MOL   O126 5010   7.389   6.360   3.140  0.5437  1.1147 -0.2697
   23MOL   C127 5011   7.335   6.287   2.918  0.1070  0.1527 -0.1126
   23MOL   H128 5012   7.030   6.411   2.923 -0.2636  0.4921 -0.1080
   23MOL   H129 5013   6.981   6.447   3.078 -0.6087  0.4950 -0.9085
   23MOL   H130 5014   7.149   6.356   3.206 -2.7972 -2.3333 -0.9765
   23MOL   H131 5015   7.442   6.297   2.898  0.2383 -1.0317 -0.0363
   23MOL   H132 5016   7.279   6.333   2.837 -0.3452 -0.2385 -0.0170
   23MOL   H133 5017   7.308   6.182   2.919 -2.3190  0.7709  1.8261
   23MOL   C134 5018   7.086   6.196   3.087 -0.1188  0.1922  0.5725
   23MOL   C135 5019   6.938   6.192   3.118  0.2576 -0.3021  0.6559
   23MOL   C136 5020   6.884   6.050   3.090  0.1800  0.0096  0.6674
   23MOL   O137 5021   6.936   5.949   3.145 -0.0905  0.6582  0.0837
   23MOL   C138 5022   6.761   6.043   2.997 -0.0177  0.5559 -0.2465
   23MOL   H139 5023   7.141   6.130   3.155  0.1128  1.5748  1.7713
   23MOL   H140 5024   7.099   6.162   2.985 -0.8144 -1.0227  0.8738
   23MOL   H141 5025   6.897   6.272   3.056 -0.5132 -0.2012  1.2883
   23MOL   H142 5026   6.699   6.130   3.019  0.4644  0.6318  0.8582
   23MOL   H143 5027   6.718   5.942   2.997  1.0445  0.1036 -1.5091
   23MOL   H144 5028   6.787   6.047   2.892 -1.7764 -0.8855 -0.7695
   23MOL   C145 5029   6.887   6.232   3.261 -0.7359 -0.0502 -0.3731
   23MOL   C146 5030   6.938   6.161   3.393 -0.7469  0.3203  0.0256
   23MOL   C147 5031   7.086   6.204   3.424 -0.0439  0.4818 -0.0984
   23MOL   O148 5032   7.109   6.322   3.456  0.0290 -0.1269  0.4928
   23MOL   C149 5033   7.202   6.106   3.408 -0.2209 -0.4870 -0.0268
   23MOL   H150 5034   6.780   6.216   3.250 -0.5119 -1.0349 -1.2641
   23MOL   H151 5035   6.906   6.339   3.276  2.0874 -0.4675 -0.6044
   23MOL   H152 5036   6.952   6.054   3.376  0.7376  0.6567 -0.9409
   23MOL   H153 5037   7.151   6.013   3.384 -0.5645 -0.6170  1.1993
   23MOL   H154 5038   7.262   6.140   3.323  0.5526 -1.7222  0.0170
   23MOL   H155 5039   7.259   6.093   3.500 -0.2986  1.8541  0.3892
   23MOL   C156 5040   6.842   6.159   3.525 -0.3522  0.3444  0.5023
   23MOL   C157 5041   6.900   6.084   3.649 -1.2223 -0.3914  0.3276
   23MOL   C158 5042   6.916   5.938   3.616 -0.5263  0.0798 -0.1795
   23MOL   O159 5043   6.826   5.867   3.563 -0.3100  0.1562 -0.0585
   23MOL   C160 5044   7.050   5.882   3.661  0.6480  0.1163 -0.5028
   23MOL   H161 5045   6.849   6.263   3.554 -2.1088  0.2657  1.2846
   23MOL   H162 5046   6.744   6.118   3.498 -0.2033  0.4275 -0.1840
   23MOL   H163 5047   7.000   6.121   3.671 -0.6865 -1.2109 -0.6453
   23MOL   H164 5048   7.051   5.881   3.770 -2.1610 -0.9572 -0.4468
   23MOL   H165 5049   7.129   5.950   3.629  0.4869 -1.1106 -3.6616
   23MOL   H166 5050   7.073   5.783   3.621 -1.6634 -0.3764 -0.6668
   23MOL   C167 5051   6.818   6.108   3.779 -0.6085 -0.2600 -0.0787
   23MOL   C168 5052   6.822   6.249   3.841 -0.1032 -0.2650 -0.2264
   23MOL   C169 5053   6.953   6.272   3.905  0.3626 -0.7615 -0.8676
   23MOL   O170 5054   6.994   6.204   4.001 -0.3039 -0.4524  0.1290
   23MOL   C171 5055   7.026   6.395   3.860  0.0049  0.5575  0.0681
   23MOL   H172 5056   6.718   6.095   3.736  0.4104 -1.1162 -2.3007
   23MOL   H173 5057   6.831   6.031   3.854 -1.9734 -0.9199 -0.4981
   23MOL   H174 5058   6.806   6.327   3.767  1.6676  1.9966  1.6662
   23MOL   H175 5059   7.082   6.430   3.947  0.1233  1.4299 -0.3594
   23MOL   H176 5060   6.959   6.475   3.830  1.3860  0.9137 -2.2005
   23MOL   H177 5061   7.090   6.363   3.778 -1.5248  1.4914 -1.4940
   23MOL   C178 5062   6.699   6.270   3.943  0.1049  0.4578  0.7304
   23MOL   C179 5063   6.680   6.417   3.997 -0.5366  0.2553  0.3795
   23MOL   C180 5064   6.607   6.423   4.134  0.6720 -0.6724  0.0491
   23MOL   O181 5065   6.488   6.449   4.148  0.3266 -0.3213  0.2367
   23MOL   C182 5066   6.694   6.389   4.250  0.4710 -0.3548 -0.7486
   23MOL   H183 5067   6.614   6.236   3.885  0.1881 -0.6742  1.2547
   23MOL   H184 5068   6.710   6.199   4.026  0.5757 -0.0996  0.1962
   23MOL   H185 5069   6.775   6.468   4.017 -0.3386  0.7117 -1.6884
   23MOL   H186 5070   6.641   6.392   4.346  1.6658  0.1854 -0.0998
   23MOL   H187 5071   6.776   6.460   4.249 -0.3627  0.6734  1.2835
   23MOL   H188 5072   6.746   6.293   4.254  3.2857  1.1932  3.6864
   23MOL   C189 5073   6.615   6.490   3.884 -0.1270  0.3139  0.4415
   23MOL   C190 5074   6.598   6.646   3.902 -0.3771 -0.6369 -0.1365
   23MOL   C191 5075   6.730   6.722   3.911  0.0646 -0.1775 -0.2112
   23MOL   O192 5076   6.826   6.688   3.843  0.3786 -0.4158  0.4524
   23MOL   C193 5077   6.733   6.845   3.996  0.4411 -0.0774  0.9375
   23MOL   H194 5078   6.664   6.473   3.788 -1.3443 -1.6877  0.1685
   23MOL   H195 5079   6.516   6.451   3.862  0.7597 -0.8437 -1.6862
   23MOL   H196 5080   6.553   6.669   3.998 -3.1883 -1.6162 -1.1543
   23MOL   H197 5081   6.636   6.859   4.044 -1.0990 -3.5581 -1.0138
   23MOL   H198 5082   6.820   6.847   4.062  1.3320 -1.7012 -0.1581
   23MOL   H199 5083   6.754   6.932   3.934 -0.7388  0.4841  1.3048
   23MOL   C200 5084   6.518   6.705   3.786  0.0991 -0.2586  0.3749
   23MOL   C201 5085   6.388   6.783   3.832  0.5503  0.3601  0.1135
   23MOL   C202 5086   6.280   6.683   3.869 -0.2210  0.5537 -0.2995
   23MOL   O203 5087   6.189   6.653   3.787 -0.2075 -0.7630  0.2227
   23MOL   C204 5088   6.299   6.613   4.005  0.1789  0.4539  0.0114
   23MOL   H205 5089   6.580   6.776   3.731  2.7830 -1.4411  1.7828
   23MOL   H206 5090   6.492   6.621   3.722  1.1311  0.4809 -1.0330
   23MOL   H207 5091   6.407   6.837   3.924  1.9819 -2.0569  1.2788
   23MOL   H208 5092   6.200   6.599   4.048  0.8907 -1.7666  0.9931
   23MOL   H209 5093   6.345   6.517   3.981 -1.0650 -0.5875  1.6571
   23MOL   H210 5094   6.354   6.677   4.074  0.3340 -1.2680  1.5160
   23MOL   C211 5095   6.351   6.888   3.723  0.6098  0.9619 -0.5784
   23MOL   C212 5096   6.318   6.849   3.574  0.3865  0.0427 -0.1313
   23MOL   C213 5097   6.385   6.926   3.465  0.1771  0.2434 -0.2152
   23MOL   O214 5098   6.353   7.046   3.443  0.1462 -0.0028 -0.0642
   23MOL   C215 5099   6.485   6.855   3.380 -0.0296 -0.1646 -0.1002
   23MOL   H216 5100   6.263   6.929   3.771 -1.2540  0.1628 -3.2034
   23MOL   H217 5101   6.405   6.980   3.745  1.0970  0.3104  1.0371
   23MOL   H218 5102   6.210   6.851   3.566  0.2644  0.0519  1.3268
   23MOL   H219 5103   6.567   6.831   3.448 -1.5791 -0.5154  1.7075
   23MOL   H220 5104   6.441   6.764   3.339 -0.5758  0.0579 -0.0020
   23MOL   H221 5105   6.527   6.902   3.292  1.0629  0.0393  0.5260
   23MOL   H222 5106   6.337   6.745   3.549 -4.8593 -0.8670 -0.8125
   24MOL     C1 5107   2.446   4.758   5.707 -0.8708 -0.6916 -0.5075
   24MOL     C2 5108   2.341   4.869   5.683  0.0581  0.2726  0.8721
   24MOL     C3 5109   2.260   4.897   5.807 -0.4678  0.2760  0.5335
   24MOL     O4 5110   2.139   4.881   5.799 -0.5560 -0.0553 -0.2050
   24MOL     C5 5111   2.329   4.907   5.944 -0.6673  0.1204 -0.1258
   24MOL     H6 5112   2.523   4.795   5.775 -0.0022 -2.8186 -0.2874
   24MOL     H7 5113   2.501   4.742   5.615 -1.5684 -1.4477 -0.8018
   24MOL     H8 5114   2.262   4.824   5.624 -2.0965  3.6333  1.0688
   24MOL     H9 5115   2.395   4.994   5.946 -0.4840 -0.0080 -0.4649
   24MOL    H10 5116   2.262   4.902   6.029 -1.0185  0.6992 -0.3654
   24MOL    H11 5117   2.381   4.812   5.954 -0.6374  0.2487  1.0659
   24MOL    H12 5118   2.414   4.658   5.735  1.9006 -1.8472 -1.3519
   24MOL    C13 5119   2.398   4.991   5.605 -0.3824  0.3039  0.2877
   24MOL    C14 5120   2.298   5.102   5.579 -0.6137 -0.1365 -0.3205
   24MOL    C15 5121   2.186   5.059   5.492 -0.6267  0.2606  0.1847
   24MOL    O16 5122   2.215   4.989   5.397 -0.2313  0.5297 -0.1044
   24MOL    C17 5123   2.042   5.094   5.521 -0.6730 -0.0151  0.0572
   24MOL    H18 5124   2.484   5.032   5.657 -0.1092 -0.3494  0.3538
   24MOL    H19 5125   2.428   4.957   5.507 -1.0319  1.2242 -0.2467
   24MOL    H20 5126   2.248   5.149   5.664 -1.6186 -2.4570  0.4352
   24MOL    H21 5127   1.980   5.005   5.527 -3.5279  1.8426 -0.4411
   24MOL    H22 5128   2.039   5.154   5.612 -2.4039 -0.4540  0.3102
   24MOL    H23 5129   2.004   5.162   5.444  1.7959  0.6340 -0.6434
   24MOL    C24 5130   2.378   5.218   5.519 -0.7222 -0.2430  0.1885
   24MOL    C25 5131   2.310   5.359   5.503 -0.1825  0.3534  0.1097
   24MOL    C26 5132   2.214   5.368   5.377  0.4183  0.1211  0.1380
   24MOL    O27 5133   2.104   5.408   5.386  0.0187 -0.0797 -0.0680
   24MOL    C28 5134   2.258   5.306   5.249 -0.6839 -0.0774  0.0074
   24MOL    H29 5135   2.457   5.241   5.591  0.6868 -1.1276 -1.0314
   24MOL    H30 5136   2.432   5.191   5.429 -2.1713 -1.2588 -0.3961
   24MOL    H31 5137   2.381   5.432   5.466 -1.1261  0.5136 -1.4147
   24MOL    H32 5138   2.216   5.367   5.169 -0.1317  0.2924  0.0013
   24MOL    H33 5139   2.366   5.319   5.244 -0.6557 -0.6687 -1.0559
   24MOL    H34 5140   2.232   5.203   5.221 -0.1539  0.1681 -1.4439
   24MOL    C35 5141   2.253   5.415   5.635 -0.4747  0.2439  0.1351
   24MOL    C36 5142   2.274   5.571   5.644  0.2878 -0.1557 -0.4525
   24MOL    C37 5143   2.151   5.646   5.588  0.2224 -0.4154 -0.1340
   24MOL    O38 5144   2.141   5.685   5.475 -0.6613  0.4222 -0.0859
   24MOL    C39 5145   2.035   5.675   5.688  0.5924  0.3264 -0.1483
   24MOL    H40 5146   2.299   5.369   5.723 -1.1148  1.9144  1.3809
   24MOL    H41 5147   2.149   5.384   5.650  0.0863 -1.8774 -0.2121
   24MOL    H42 5148   2.358   5.591   5.578  0.4206  0.7345 -0.0249
   24MOL    H43 5149   2.071   5.767   5.734 -0.5338  1.0149 -0.6004
   24MOL    H44 5150   2.017   5.597   5.761 -1.8093  0.6626 -0.3164
   24MOL    H45 5151   1.945   5.718   5.644 -1.2310  0.1063  3.1561
   24MOL    C46 5152   2.299   5.612   5.795 -0.0059 -0.2116  1.0247
   24MOL    C47 5153   2.433   5.553   5.848  0.1421  0.0072  0.6063
   24MOL    C48 5154   2.551   5.601   5.764 -0.7668 -0.4368 -0.0317
   24MOL    O49 5155   2.548   5.715   5.724  0.2900  0.5278 -0.1220
   24MOL    C50 5156   2.651   5.496   5.718  0.1155  0.7351  0.1917
   24MOL    H51 5157   2.212   5.577   5.852 -2.2362  1.4476 -1.2313
   24MOL    H52 5158   2.294   5.718   5.818  1.5003  0.5308 -1.7651
   24MOL    H53 5159   2.436   5.445   5.840  2.2207 -0.1823  3.2413
   24MOL    H54 5160   2.754   5.525   5.739 -0.1891  1.5129  0.6002
   24MOL    H55 5161   2.641   5.397   5.763  2.0525  0.3871 -0.0850
   24MOL    H56 5162   2.638   5.494   5.610 -0.6670 -0.2246  0.3015
   24MOL    C57 5163   2.458   5.573   6.004  0.6536  0.1276  0.4715
   24MOL    C58 5164   2.349   5.516   6.092  0.0309 -0.9083 -1.0494
   24MOL    C59 5165   2.359   5.362   6.086  0.3879 -0.0568 -0.8402
   24MOL    O60 5166   2.464   5.300   6.112  0.0236  0.1133  0.2907
   24MOL    C61 5167   2.231   5.287   6.048 -0.6976  0.0311  0.3095
   24MOL    H62 5168   2.465   5.681   6.018 -0.7468  0.2961 -0.0740
   24MOL    H63 5169   2.559   5.548   6.036  0.4077  0.7934  1.8262
   24MOL    H64 5170   2.254   5.554   6.055 -0.6426  0.0262  1.5157
   24MOL    H65 5171   2.156   5.319   6.121 -2.3404 -0.7278 -1.0152
   24MOL    H66 5172   2.200   5.309   5.946  2.1250 -0.2144 -0.6568
   24MOL    H67 5173   2.242   5.179   6.053 -0.4439  0.0712  0.6168
   24MOL    C68 5174   2.372   5.572   6.233 -0.8312  0.3777  0.9268
   24MOL    C69 5175   2.272   5.524   6.341  0.0439 -0.6242 -0.4973
   24MOL    C70 5176   2.123   5.568   6.325  0.1866 -0.1698 -0.0900
   24MOL    O71 5177   2.039   5.493   6.288 -0.2820  0.0477 -0.0909
   24MOL    C72 5178   2.090   5.714   6.333 -0.3191  0.2972 -0.6076
   24MOL    H73 5179   2.474   5.562   6.270 -0.1237  0.7743 -0.8705
   24MOL    H74 5180   2.369   5.680   6.220  1.9488  0.1759 -2.0624
   24MOL    H75 5181   2.256   5.416   6.333  1.6974 -0.7735 -2.0346
   24MOL    H76 5182   2.004   5.740   6.395 -0.7428 -0.6600 -0.7860
   24MOL    H77 5183   2.165   5.775   6.383 -0.2413 -0.9533  0.8149
   24MOL    H78 5184   2.076   5.759   6.234  0.9728 -0.9215 -1.3655
   24MOL    C79 5185   2.316   5.554   6.486  0.2496 -0.0979  0.0387
   24MOL    C80 5186   2.432   5.478   6.548 -0.2004  0.0204 -0.7739
   24MOL    C81 5187   2.414   5.324   6.537  0.2144  0.0355 -0.1324
   24MOL    O82 5188   2.307   5.277   6.566 -0.1111  0.3005  0.1764
   24MOL    C83 5189   2.526   5.242   6.480 -0.1800 -0.0692 -0.1832
   24MOL    H84 5190   2.225   5.546   6.545 -1.4887  1.0092 -2.3951
   24MOL    H85 5191   2.333   5.662   6.488 -1.4606  0.2904 -3.2778
   24MOL    H86 5192   2.519   5.513   6.492 -0.6874 -2.5325 -3.3036
   24MOL    H87 5193   2.557   5.288   6.386 -1.6956 -0.1089 -0.7041
   24MOL    H88 5194   2.497   5.137   6.474  1.1417 -0.3894 -1.1855
   24MOL    H89 5195   2.617   5.256   6.540  0.3058  0.6783 -1.0834
   24MOL    C90 5196   2.453   5.517   6.694  0.9223 -0.0020  0.2887
   24MOL    C91 5197   2.553   5.463   6.786 -1.1396  0.0718 -0.5252
   24MOL    C92 5198   2.686   5.525   6.746  0.0276  0.6512  0.3177
   24MOL    O93 5199   2.760   5.472   6.667  0.0653  0.1527  0.1783
   24MOL    C94 5200   2.721   5.667   6.806  0.4919 -0.2682 -0.3989
   24MOL    H95 5201   2.455   5.625   6.706 -1.5224 -0.2033  3.1481
   24MOL    H96 5202   2.357   5.499   6.744  1.1995  2.2152  1.6823
   24MOL    H97 5203   2.555   5.356   6.765 -2.3967 -0.1788  0.6223
   24MOL    H98 5204   2.742   5.654   6.912  0.9092  3.2408 -0.0047
   24MOL    H99 5205   2.816   5.708   6.771  0.1523  2.1168  1.3542
   24MOL   H100 5206   2.643   5.737   6.778  2.3956  2.1860  0.2500
   24MOL   C101 5207   2.528   5.477   6.934 -0.4656 -0.3908 -0.3293
   24MOL   C102 5208   2.621   5.424   7.046 -0.0559  0.1864 -0.5947
   24MOL   C103 5209   2.639   5.271   7.041  0.3339  0.4118 -0.1653
   24MOL   O104 5210   2.552   5.193   7.079  0.5848  0.0912  0.4519
   24MOL   C105 5211   2.760   5.223   6.968  0.4200 -0.5634  0.7562
   24MOL   H106 5212   2.509   5.583   6.948 -1.4439 -0.5788 -0.1794
   24MOL   H107 5213   2.432   5.428   6.951 -0.1756 -0.6403  0.6643
   24MOL   H108 5214   2.720   5.463   7.023  0.4399 -0.6247  0.1513
   24MOL   H109 5215   2.719   5.145   6.904 -0.2731  2.7875 -3.1066
   24MOL   H110 5216   2.802   5.299   6.903 -0.0650  0.2597  1.4032
   24MOL   H111 5217   2.844   5.184   7.026 -0.5141 -1.7826  1.3100
   24MOL   C112 5218   2.601   5.482   7.190 -0.2580  0.0910  0.1401
   24MOL   C113 5219   2.487   5.435   7.288  0.6040 -0.1402 -0.4744
   24MOL   C114 5220   2.353   5.493   7.252 -0.4444 -0.1948  0.1223
   24MOL   O115 5221   2.337   5.614   7.264 -0.3228 -0.1778  0.2348
   24MOL   C116 5222   2.242   5.409   7.191 -0.0995 -1.1754  0.5245
   24MOL   H117 5223   2.610   5.591   7.187  0.8213  0.0205  0.5168
   24MOL   H118 5224   2.691   5.458   7.246  1.3276  0.7374 -2.1006
   24MOL   H119 5225   2.473   5.328   7.276 -0.8560 -0.0354  0.1177
   24MOL   H120 5226   2.260   5.405   7.084  1.6237  1.7263  0.6518
   24MOL   H121 5227   2.232   5.305   7.224 -0.8358 -0.8060  1.4749
   24MOL   H122 5228   2.147   5.463   7.193  0.7577  0.3964 -0.4289
   24MOL   C123 5229   2.520   5.465   7.439  0.1753 -0.1885 -0.5837
   24MOL   C124 5230   2.439   5.391   7.544  0.0499 -0.2888 -0.0677
   24MOL   C125 5231   2.412   5.470   7.670  0.4553 -0.0290 -0.2711
   24MOL   O126 5232   2.486   5.561   7.711 -0.2848 -0.0685 -0.2763
   24MOL   C127 5233   2.278   5.459   7.740 -0.3635 -0.6703  0.2360
   24MOL   H128 5234   2.521   5.574   7.445  2.2902 -0.1968 -0.3266
   24MOL   H129 5235   2.625   5.438   7.449  0.8546  1.5276 -2.6854
   24MOL   H130 5236   2.339   5.362   7.511  0.1661 -1.7887  0.8183
   24MOL   H131 5237   2.215   5.378   7.701 -0.8662  0.0037 -0.3694
   24MOL   H132 5238   2.227   5.555   7.742 -0.0638 -0.5055 -0.0499
   24MOL   H133 5239   2.306   5.418   7.837 -0.4050 -1.8236 -0.2259
   24MOL   C134 5240   2.501   5.259   7.579 -0.1746 -0.2283  0.2635
   24MOL   C135 5241   2.415   5.130   7.598  0.4900  0.2057 -0.6028
   24MOL   C136 5242   2.330   5.094   7.477  1.1471 -0.9688 -0.3254
   24MOL   O137 5243   2.221   5.146   7.464  0.2837 -0.1195 -0.2267
   24MOL   C138 5244   2.395   5.020   7.363  0.3322 -0.3172 -0.0222
   24MOL   H139 5245   2.571   5.276   7.661  2.0155 -2.2388 -1.0799
   24MOL   H140 5246   2.569   5.238   7.496  0.5189 -1.1613  1.0573
   24MOL   H141 5247   2.351   5.154   7.682 -1.0969 -2.5981 -0.9548
   24MOL   H142 5248   2.359   5.078   7.278 -1.2902 -0.0823  0.7978
   24MOL   H143 5249   2.340   4.926   7.350  0.5187 -0.4418  0.0790
   24MOL   H144 5250   2.502   5.000   7.369  0.4737  0.3321 -0.3188
   24MOL   C145 5251   2.504   5.009   7.647 -0.1899 -0.1052  0.2204
   24MOL   C146 5252   2.548   5.032   7.786  0.4671 -0.8208  0.0690
   24MOL   C147 5253   2.453   5.086   0.035  1.0186 -0.1506  0.4733
   24MOL   O148 5254   2.335   5.044   0.033  0.1012 -0.2558  0.2624
   24MOL   C149 5255   2.506   5.191   0.129  0.0687 -0.3598  0.8185
   24MOL   H150 5256   2.585   5.000   7.574 -1.2498 -0.9384 -0.8724
   24MOL   H151 5257   2.450   4.915   7.638  0.4969 -0.4695 -0.1795
   24MOL   H152 5258   2.623   5.111   7.779 -1.3426  0.7517 -2.2936
   24MOL   H153 5259   2.455   5.288   0.125  1.0185  0.1510  0.8692
   24MOL   H154 5260   2.511   5.152   0.231  0.0602 -1.8155  0.2663
   24MOL   H155 5261   2.611   5.194   0.100 -0.7097  1.9929 -1.9536
   24MOL   C156 5262   2.609   4.907   0.001 -0.0293  0.4259 -0.2567
   24MOL   C157 5263   2.751   4.858   7.815  0.7856 -0.3986 -0.0092
   24MOL   C158 5264   2.747   4.746   7.715 -0.4224  0.3211  0.1958
   24MOL   O159 5265   2.735   4.633   7.748 -0.1550  0.1705  0.1220
   24MOL   C160 5266   2.768   4.790   7.571  0.3967 -0.7738  0.4531
   24MOL   H161 5267   2.617   4.927   0.108 -1.8111 -0.2392  0.0227
   24MOL   H162 5268   2.540   4.823   7.853  0.5496 -0.0146 -1.0004
   24MOL   H163 5269   2.796   4.939   7.757  0.4126  0.1183  0.4177
   24MOL   H164 5270   2.677   4.763   7.517  0.5258  1.4570 -0.9819
   24MOL   H165 5271   2.858   4.748   7.524 -0.2321 -0.8079 -0.7516
   24MOL   H166 5272   2.774   4.898   7.558  1.0283 -0.7507  0.8857
   24MOL   C167 5273   2.847   4.846   0.074  0.4190 -0.6862 -0.2369
   24MOL   C168 5274   2.887   4.984   0.139  0.4576  0.4931 -0.6486
   24MOL   C169 5275   2.981   5.070   0.054 -0.5193  0.2113  0.1094
   24MOL   O170 5276   3.058   5.021   7.836  0.3034 -0.1336 -0.0677
   24MOL   C171 5277   2.965   5.224   0.079  0.0377  0.2837 -0.0420
   24MOL   H172 5278   2.812   4.784   0.156 -0.6561  0.4142  0.1445
   24MOL   H173 5279   2.941   4.803   0.038  0.8665 -0.7366  0.9586
   24MOL   H174 5280   2.794   5.039   0.152  1.3549  1.7824  0.4048
   24MOL   H175 5281   2.875   5.227   0.141 -0.9142  0.0720 -1.3704
   24MOL   H176 5282   2.949   5.270   7.839 -0.4888 -0.4834 -0.3241
   24MOL   H177 5283   3.052   5.265   0.130  0.0052  0.7528 -0.3666
   24MOL   C178 5284   2.938   4.957   0.286 -0.7696  0.1154 -0.0358
   24MOL   C179 5285   2.835   4.909   0.389  0.3572  0.2404 -0.2298
   24MOL   C180 5286   2.744   5.033   0.430 -0.1898  0.1993 -0.4243
   24MOL   O181 5287   2.745   5.142   0.373 -0.0942 -0.5262 -0.3196
   24MOL   C182 5288   2.638   5.017   0.536 -0.4160 -0.2432 -0.4576
   24MOL   H183 5289   3.013   4.879   0.276 -2.2714 -1.4467  0.7659
   24MOL   H184 5290   2.991   5.047   0.317  1.4531 -1.8201  1.9304
   24MOL   H185 5291   2.774   4.839   0.332  1.1036  0.0164 -0.7570
   24MOL   H186 5292   2.578   5.108   0.531  0.9996  0.7374  0.0478
   24MOL   H187 5293   2.681   5.002   0.634  0.2247 -1.3890 -0.9070
   24MOL   H188 5294   2.566   4.937   0.520 -1.7141  0.9212 -0.5438
   24MOL   C189 5295   2.904   4.842   0.508 -0.3560 -0.4315 -0.1762
   24MOL   C190 5296   2.818   4.763   0.606  0.0643 -0.0995 -0.1807
   24MOL   C191 5297   2.804   4.615   0.564  0.4340  0.4272  0.4704
   24MOL   O192 5298   2.892   4.553   0.501 -0.0470  0.1242  0.0008
   24MOL   C193 5299   2.683   4.538   0.612  0.5624  0.0797  0.7539
   24MOL   H194 5300   2.991   4.780   0.485 -0.4566 -0.4296 -0.5662
   24MOL   H195 5301   2.936   4.927   0.568 -3.5125 -0.2227  1.3500
   24MOL   H196 5302   2.714   4.795   0.595 -0.1878 -0.4016  1.2631
   24MOL   H197 5303   2.723   4.479   0.695 -2.2531 -2.3176  0.5063
   24MOL   H198 5304   2.610   4.610   0.649  0.6248  0.6793 -0.2763
   24MOL   H199 5305   2.647   4.478   0.528  2.0067  0.3610 -0.0741
   24MOL   C200 5306   2.835   4.789   0.762 -0.6239  0.0519 -0.6547
   24MOL   C201 5307   2.969   4.740   0.827  0.2547 -0.1547 -0.1606
   24MOL   C202 5308   2.970   4.591   0.840 -0.5203  0.4717  0.7195
   24MOL   O203 5309   2.876   4.521   0.882 -0.4174  0.2646  0.3766
   24MOL   C204 5310   3.092   4.516   0.782 -0.1895 -0.5126  1.0604
   24MOL   H205 5311   2.840   4.898   0.766  2.1090 -0.0568 -0.2241
   24MOL   H206 5312   2.746   4.767   0.820  0.3964  1.6662  1.5759
   24MOL   H207 5313   3.058   4.757   0.766  1.4720  0.3064  1.7045
   24MOL   H208 5314   3.173   4.587   0.767 -0.8571  0.1379  0.5029
   24MOL   H209 5315   3.113   4.451   0.867  0.2321 -0.5007  0.9649
   24MOL   H210 5316   3.064   4.465   0.690 -0.8526 -0.3532  1.1743
   24MOL   C211 5317   2.986   4.803   0.971 -0.3151 -0.0737 -0.8967
   24MOL   C212 5318   3.100   4.754   1.064 -0.2870 -0.2524 -0.2698
   24MOL   C213 5319   3.244   4.784   1.018 -0.2691  0.4216 -0.3971
   24MOL   O214 5320   3.268   4.845   0.916 -0.0554 -0.4070  0.0579
   24MOL   C215 5321   3.358   4.743   1.120  0.4571  0.1804  0.3769
   24MOL   H216 5322   2.997   4.910   0.956 -0.8097  0.2476  0.9086
   24MOL   H217 5323   2.903   4.792   1.042  1.2609 -1.0777  0.8343
   24MOL   H218 5324   3.092   4.652   1.100 -1.0172 -0.1368 -0.0796
   24MOL   H219 5325   3.351   4.635   1.133 -0.5070  0.3111  0.9697
   24MOL   H220 5326   3.458   4.765   1.084  1.2401 -0.3230  2.2092
   24MOL   H221 5327   3.340   4.790   1.217 -0.9550  0.4031  0.0174
   24MOL   H222 5328   3.083   4.811   1.155  0.2952 -0.8765  0.2308
   25MOL     C1 5329   3.592   4.683   4.292  0.8013  0.0245 -0.1198
   25MOL     C2 5330   3.589   4.584   4.177 -0.9764 -0.1072 -0.1291
   25MOL     C3 5331   3.708   4.483   4.196 -0.2733  0.3030 -0.0186
   25MOL     O4 5332   3.684   4.363   4.219 -0.4729  0.4808 -0.5206
   25MOL     C5 5333   3.847   4.531   4.169  0.2089 -0.1473 -0.1832
   25MOL     H6 5334   3.535   4.773   4.271 -1.3610 -1.3495 -0.2695
   25MOL     H7 5335   3.688   4.709   4.337 -0.4367  2.4001  1.2616
   25MOL     H8 5336   3.632   4.631   4.088  1.1143 -0.3180  0.7524
   25MOL     H9 5337   3.914   4.466   4.225  0.3727  0.3605  0.2153
   25MOL    H10 5338   3.867   4.520   4.062  0.5636  1.6309 -0.3139
   25MOL    H11 5339   3.853   4.633   4.208 -1.5394 -0.6257  1.4141
   25MOL    H12 5340   3.541   4.641   4.379 -0.0937 -0.8072 -1.0381
   25MOL    C13 5341   3.452   4.512   4.145 -0.1663 -0.7107 -0.1178
   25MOL    C14 5342   3.350   4.582   4.059  0.0203 -0.3734 -0.2604
   25MOL    C15 5343   3.295   4.713   4.115 -0.2990  0.0302 -0.1618
   25MOL    O16 5344   3.341   4.822   4.079  0.2523  0.4288  0.2201
   25MOL    C17 5345   3.178   4.709   4.214  0.4466 -0.7585  0.4820
   25MOL    H18 5346   3.474   4.423   4.086 -5.1227 -2.2832  0.1860
   25MOL    H19 5347   3.399   4.475   4.233 -1.4268 -0.3824 -0.7337
   25MOL    H20 5348   3.406   4.618   3.973  0.9464 -0.3431  0.3482
   25MOL    H21 5349   3.116   4.798   4.205  2.8429  1.0784  1.4366
   25MOL    H22 5350   3.127   4.615   4.197  1.4171 -1.2369  0.1672
   25MOL    H23 5351   3.206   4.704   4.319  0.6017 -1.0942  0.4267
   25MOL    C24 5352   3.240   4.490   4.004  0.0766  0.9612  0.5261
   25MOL    C25 5353   3.120   4.547   3.921  0.0080 -0.0843  0.0780
   25MOL    C26 5354   3.175   4.609   3.790  0.3014 -0.1472  0.6337
   25MOL    O27 5355   3.263   4.553   3.736  0.1693  0.0526 -0.0178
   25MOL    C28 5356   3.128   4.753   3.751  0.4163  0.3027  0.6160
   25MOL    H29 5357   3.283   4.407   3.948 -1.2135 -1.0443  2.4225
   25MOL    H30 5358   3.185   4.444   4.086  0.5304 -0.6323 -0.0461
   25MOL    H31 5359   3.075   4.629   3.977 -1.4940  0.6630 -2.1600
   25MOL    H32 5360   3.071   4.800   3.830 -2.7611  0.3393 -1.5943
   25MOL    H33 5361   3.219   4.809   3.733 -0.1544  0.7563 -0.9686
   25MOL    H34 5362   3.075   4.747   3.655  0.2670  2.9299  0.5075
   25MOL    C35 5363   3.015   4.439   3.883 -0.0576 -0.5050  0.1122
   25MOL    C36 5364   2.950   4.358   4.003 -0.5465  1.0901  0.8338
   25MOL    C37 5365   2.872   4.445   4.107  0.0631  0.4296  0.3484
   25MOL    O38 5366   2.829   4.553   4.075  0.4945 -0.4918  0.2742
   25MOL    C39 5367   2.841   4.392   4.248 -0.4588  0.2324 -0.0651
   25MOL    H40 5368   3.068   4.364   3.824 -0.6733  0.5047 -1.7438
   25MOL    H41 5369   2.941   4.491   3.822 -0.0242 -0.4726  0.0999
   25MOL    H42 5370   3.030   4.307   4.056  1.0414  1.9564 -0.6528
   25MOL    H43 5371   2.818   4.479   4.310  1.0738  1.1055 -0.6816
   25MOL    H44 5372   2.929   4.341   4.286 -0.6753 -0.7430 -0.8646
   25MOL    H45 5373   2.764   4.316   4.250 -1.8154  1.5955  1.9160
   25MOL    C46 5374   2.850   4.253   3.952 -0.1691  0.2465  0.0421
   25MOL    C47 5375   2.899   4.133   3.876 -0.2880  0.2161 -0.2159
   25MOL    C48 5376   3.002   4.055   3.953 -1.0044 -0.1714 -0.2148
   25MOL    O49 5377   2.981   4.024   4.075  0.0415  0.3317 -0.1855
   25MOL    C50 5378   3.126   4.000   3.877 -0.0493  0.0064 -0.2875
   25MOL    H51 5379   2.784   4.305   3.882  0.8727  2.8738  0.9179
   25MOL    H52 5380   2.790   4.216   4.035  1.4512 -2.9344 -0.1270
   25MOL    H53 5381   2.953   4.169   3.789  0.8744  2.1589  1.2506
   25MOL    H54 5382   3.132   3.891   3.881 -0.8053 -0.1122 -1.9162
   25MOL    H55 5383   3.113   4.007   3.769 -0.6614 -2.8152 -0.4423
   25MOL    H56 5384   3.221   4.044   3.907  0.3729 -1.1416  0.1062
   25MOL    C57 5385   2.775   4.045   3.830 -0.3177  0.4147  0.3004
   25MOL    C58 5386   2.717   4.099   3.694  0.4231 -0.0332 -0.2484
   25MOL    C59 5387   2.759   3.994   3.591  0.6984 -0.3880 -0.4180
   25MOL    O60 5388   2.685   3.896   3.575  0.5534 -0.3131  0.4688
   25MOL    C61 5389   2.900   4.011   3.539  0.0816  0.5660 -0.2969
   25MOL    H62 5390   2.698   4.041   3.907  1.1428 -0.2032  1.7661
   25MOL    H63 5391   2.807   3.942   3.818 -3.1538 -0.3815 -0.9713
   25MOL    H64 5392   2.768   4.191   3.665  1.3871 -0.2227  0.8072
   25MOL    H65 5393   2.969   4.009   3.623  0.7811  2.4062 -0.8084
   25MOL    H66 5394   2.933   3.935   3.468  1.0880  1.3530 -0.6870
   25MOL    H67 5395   2.923   4.105   3.489  1.5131  1.0513  1.2332
   25MOL    C68 5396   2.560   4.126   3.691  0.2327 -0.0850  0.1390
   25MOL    C69 5397   2.505   4.188   3.556  0.3127  0.0672 -0.4150
   25MOL    C70 5398   2.574   4.317   3.515 -0.4426 -0.2126  0.2141
   25MOL    O71 5399   2.647   4.382   3.588  0.0043 -0.1061 -0.1944
   25MOL    C72 5400   2.554   4.371   3.371  0.5148  0.3934  1.2861
   25MOL    H73 5401   2.512   4.033   3.720  2.5359 -1.8993 -1.6775
   25MOL    H74 5402   2.539   4.199   3.768  2.2607 -0.7313  1.3542
   25MOL    H75 5403   2.526   4.114   3.479 -1.4306 -1.1620  0.2846
   25MOL    H76 5404   2.655   4.389   3.334  0.6337  1.1744  1.9503
   25MOL    H77 5405   2.502   4.311   3.297 -0.9789  1.0027  1.8338
   25MOL    H78 5406   2.503   4.467   3.372  0.6299  0.4636  0.2852
   25MOL    C79 5407   2.353   4.191   3.580  0.6966  0.4130  0.5782
   25MOL    C80 5408   2.270   4.164   3.450  0.1627 -0.1410  0.0297
   25MOL    C81 5409   2.135   4.248   3.450  0.1139 -0.0643 -0.1647
   25MOL    O82 5410   2.035   4.202   3.505  0.1899 -0.2781 -0.0293
   25MOL    C83 5411   2.133   4.402   3.401 -0.0403 -0.2302 -0.2497
   25MOL    H84 5412   2.322   4.289   3.617 -3.2041 -1.0575  1.5111
   25MOL    H85 5413   2.315   4.120   3.654 -0.7023 -1.2562 -1.6860
   25MOL    H86 5414   2.333   4.205   3.371  0.0777 -2.6557 -1.3793
   25MOL    H87 5415   2.200   4.460   3.462  0.7471  0.4205 -1.7063
   25MOL    H88 5416   2.035   4.449   3.414 -0.1293 -0.8402  1.4171
   25MOL    H89 5417   2.161   4.423   3.297 -1.4543  0.1300 -0.5748
   25MOL    C90 5418   2.230   4.022   3.422  0.3005 -0.8550  0.2723
   25MOL    C91 5419   2.329   3.946   3.327 -0.9536 -0.0365 -0.1612
   25MOL    C92 5420   2.273   3.803   3.308  0.7900 -0.5395 -0.3967
   25MOL    O93 5421   2.177   3.782   3.243 -0.5460 -0.4649 -0.3149
   25MOL    C94 5422   2.342   3.689   3.384 -0.2636  0.4954  0.1922
   25MOL    H95 5423   2.205   3.971   3.515 -0.2614  0.0667  0.6371
   25MOL    H96 5424   2.133   4.015   3.373  0.6638 -0.4437 -0.5205
   25MOL    H97 5425   2.430   3.942   3.368 -0.6306 -1.1861 -1.0403
   25MOL    H98 5426   2.302   3.591   3.357  0.0905  0.6149 -0.7895
   25MOL    H99 5427   2.448   3.681   3.359 -0.2216  0.3523  0.4199
   25MOL   H100 5428   2.348   3.716   3.489  1.9332 -0.4072  0.3401
   25MOL   C101 5429   2.328   4.018   3.184  0.6365  0.4245  0.2634
   25MOL   C102 5430   2.428   3.956   3.077  0.1115 -0.5939 -0.5554
   25MOL   C103 5431   2.568   3.979   3.136 -0.8973  0.2021  0.1032
   25MOL   O104 5432   2.601   4.081   3.200  0.1495  0.1892 -0.2879
   25MOL   C105 5433   2.666   3.865   3.121  0.2827  0.4688 -1.1958
   25MOL   H106 5434   2.231   4.016   3.134  0.6081 -0.7684  0.3493
   25MOL   H107 5435   2.356   4.123   3.195 -0.2806  0.7388 -0.3333
   25MOL   H108 5436   2.400   3.851   3.088 -0.1849 -0.1188  4.2878
   25MOL   H109 5437   2.735   3.879   3.038  0.7932  0.4184 -0.7836
   25MOL   H110 5438   2.727   3.845   3.210  2.5649 -0.2581 -2.8704
   25MOL   H111 5439   2.605   3.781   3.092 -1.3507  0.9212  0.7883
   25MOL   C112 5440   2.409   4.041   2.942  0.0232  0.3888 -0.8165
   25MOL   C113 5441   2.286   4.012   2.858 -0.5924  0.1358  0.6984
   25MOL   C114 5442   2.290   3.872   2.792  0.1609 -0.3561  0.5138
   25MOL   O115 5443   2.391   3.821   2.752  0.7836  0.1704  0.0068
   25MOL   C116 5444   2.165   3.784   2.781 -0.4629 -0.1066  0.2294
   25MOL   H117 5445   2.501   4.030   2.884  1.5353  1.6093  1.2703
   25MOL   H118 5446   2.404   4.148   2.964 -1.2022  0.0203  0.7610
   25MOL   H119 5447   2.201   4.010   2.926 -0.8930 -1.1313  0.2885
   25MOL   H120 5448   2.174   3.707   2.704 -1.7908 -0.3126  0.2776
   25MOL   H121 5449   2.136   3.741   2.877 -0.2555 -2.6951 -0.8480
   25MOL   H122 5450   2.080   3.846   2.753  0.8766  0.6695 -2.2645
   25MOL   C123 5451   2.255   4.125   2.754 -0.0418  0.1404 -0.3668
   25MOL   C124 5452   2.127   4.212   2.775 -0.0843  0.1746 -0.0195
   25MOL   C125 5453   2.112   4.273   2.917 -0.3884  0.5319 -0.0008
   25MOL   O126 5454   2.103   4.205   3.028  0.4324  0.0376 -0.5364
   25MOL   C127 5455   2.115   4.429   2.921 -0.4351  0.3067  0.4049
   25MOL   H128 5456   2.256   4.086   2.652 -1.5128  0.0442 -0.3543
   25MOL   H129 5457   2.341   4.192   2.761  0.6195 -0.8552  1.3211
   25MOL   H130 5458   2.124   4.292   2.701 -0.8072  0.5220  0.3889
   25MOL   H131 5459   2.089   4.469   3.019 -3.2494 -1.7185  0.5376
   25MOL   H132 5460   2.035   4.460   2.854  1.0984  1.1167 -1.1115
   25MOL   H133 5461   2.211   4.460   2.878 -0.5903  0.7660  0.3913
   25MOL   C134 5462   2.003   4.132   2.740  0.6646  0.1800  0.7561
   25MOL   C135 5463   1.871   4.217   2.737  0.7378  0.7324 -0.6644
   25MOL   C136 5464   1.849   4.312   2.619  0.1725  0.3646 -0.0789
   25MOL   O137 5465   1.938   4.323   2.532 -0.1661 -0.2571 -0.0026
   25MOL   C138 5466   1.712   4.384   2.595  0.2686 -0.1719  0.1257
   25MOL   H139 5467   1.993   4.055   2.817 -0.3990 -0.2366  0.2090
   25MOL   H140 5468   2.015   4.086   2.642 -0.2619  0.6836  0.4040
   25MOL   H141 5469   1.877   4.287   2.821 -0.6173 -0.1211  0.1619
   25MOL   H142 5470   1.673   4.412   2.693 -2.2883 -3.0305  0.0173
   25MOL   H143 5471   1.645   4.318   2.539 -0.6130  0.5429  0.3360
   25MOL   H144 5472   1.718   4.482   2.550  0.9557 -0.5177 -0.5401
   25MOL   C145 5473   1.745   4.125   2.771  0.0581 -0.2272 -1.5836
   25MOL   C146 5474   1.744   4.077   2.928  0.2307 -0.2828  0.2746
   25MOL   C147 5475   1.750   4.190   3.030  0.9152 -0.2068 -0.4815
   25MOL   O148 5476   1.711   4.303   3.015  0.2246  0.3883 -0.3999
   25MOL   C149 5477   1.802   4.157   3.171  1.1284 -0.4722 -0.3557
   25MOL   H150 5478   1.743   4.037   2.707 -0.4827  0.2898 -2.2824
   25MOL   H151 5479   1.650   4.170   2.745 -0.5039 -2.7588 -4.0410
   25MOL   H152 5480   1.841   4.030   2.944 -0.6305 -1.4193  2.2692
   25MOL   H153 5481   1.860   4.065   3.167  1.8268 -0.0548  0.1254
   25MOL   H154 5482   1.874   4.234   3.198 -0.1283  0.3943  0.5908
   25MOL   H155 5483   1.726   4.145   3.248  0.9215 -2.0479 -0.7854
   25MOL   C156 5484   1.625   3.977   2.957  0.3285  0.6724 -0.9772
   25MOL   C157 5485   1.653   3.869   3.067  0.2739  0.8878  0.0532
   25MOL   C158 5486   1.766   3.776   3.033 -0.4879  0.1949  0.1338
   25MOL   O159 5487   1.818   3.767   2.926  0.5758 -0.2184  0.6140
   25MOL   C160 5488   1.816   3.691   3.147 -0.5751  0.3368 -0.2693
   25MOL   H161 5489   1.537   4.035   2.986  0.4416 -0.2053  1.1676
   25MOL   H162 5490   1.600   3.919   2.868 -1.2864 -1.4408  0.7958
   25MOL   H163 5491   1.690   3.919   3.156 -0.6352 -0.1954  1.0773
   25MOL   H164 5492   1.735   3.624   3.175 -1.3898 -1.0965 -5.4497
   25MOL   H165 5493   1.840   3.745   3.238 -1.5309 -0.7498  0.6406
   25MOL   H166 5494   1.894   3.626   3.107 -1.0689 -1.4356  1.5843
   25MOL   C167 5495   1.521   3.798   3.118 -0.8930 -0.4365 -0.9845
   25MOL   C168 5496   1.452   3.853   3.244 -0.4941 -0.8246 -0.5203
   25MOL   C169 5497   1.507   3.768   3.361 -0.3747 -0.1852 -0.8520
   25MOL   O170 5498   1.473   3.651   3.381 -0.7604  0.1310 -0.7580
   25MOL   C171 5499   1.575   3.842   3.476 -0.5851  0.0158 -0.1926
   25MOL   H172 5500   1.445   3.797   3.040 -0.4439  0.6142 -1.4451
   25MOL   H173 5501   1.541   3.691   3.126  1.2256  0.0016 -0.0679
   25MOL   H174 5502   1.482   3.953   3.275 -0.9007 -0.2060 -2.0676
   25MOL   H175 5503   1.546   3.786   3.565  1.0901 -1.0607 -0.2919
   25MOL   H176 5504   1.544   3.946   3.483  0.1657  0.2705 -0.4853
   25MOL   H177 5505   1.683   3.838   3.457 -0.9546 -1.9329 -2.1413
   25MOL   C178 5506   1.292   3.853   3.237 -0.2738 -0.3389  0.1342
   25MOL   C179 5507   1.216   3.893   3.367 -0.0349 -0.4449  0.6403
   25MOL   C180 5508   1.136   3.771   3.430 -0.1311  0.2437 -0.3372
   25MOL   O181 5509   1.160   3.726   3.541 -0.1713 -0.2293  0.0507
   25MOL   C182 5510   1.018   3.699   3.359 -0.4532 -0.4767  0.0433
   25MOL   H183 5511   1.254   3.908   3.152  1.6249  0.7398 -0.0422
   25MOL   H184 5512   1.265   3.751   3.207  1.0081 -0.0498 -2.1153
   25MOL   H185 5513   1.286   3.926   3.443  1.0295 -0.0445 -0.4899
   25MOL   H186 5514   0.924   3.702   3.413 -0.8220 -1.9460 -0.4954
   25MOL   H187 5515   1.042   3.598   3.326  3.0696 -0.0375  0.9962
   25MOL   H188 5516   0.987   3.751   3.268  0.2145  2.3463  1.3633
   25MOL   C189 5517   1.129   4.020   3.345  0.1087  0.0192  0.2070
   25MOL   C190 5518   1.073   4.088   3.469 -0.0575  0.4208 -0.2336
   25MOL   C191 5519   1.185   4.150   3.555 -0.3032 -0.6719 -0.5695
   25MOL   O192 5520   1.237   4.258   3.536  0.2500 -0.4472 -0.7310
   25MOL   C193 5521   1.240   4.068   3.670 -0.1454 -0.2645 -0.2193
   25MOL   H194 5522   1.192   4.092   3.294 -1.3792  0.1497 -1.4937
   25MOL   H195 5523   1.054   4.006   3.268 -0.4576  3.1081  0.1475
   25MOL   H196 5524   1.035   4.005   3.530 -0.2568  1.7962  1.5669
   25MOL   H197 5525   1.322   4.002   3.644 -0.9937 -1.4331  0.0060
   25MOL   H198 5526   1.260   4.135   3.753 -2.4597 -2.7383  2.4482
   25MOL   H199 5527   1.168   3.994   3.705 -0.4236  1.0685  2.1071
   25MOL   C200 5528   0.969   4.197   3.440  0.3606 -0.3038 -0.5882
   25MOL   C201 5529   0.831   4.143   3.400 -0.0483  0.5153 -0.1348
   25MOL   C202 5530   0.809   4.129   3.240 -0.1191  0.2232 -0.3683
   25MOL   O203 5531   0.764   4.021   3.196 -0.2628  0.3062 -0.4008
   25MOL   C204 5532   0.806   4.261   3.160 -0.2919  0.0130 -0.3300
   25MOL   H205 5533   0.958   4.254   3.532 -1.5891 -0.7388 -0.5355
   25MOL   H206 5534   1.002   4.271   3.367  0.7721  0.0967 -0.0085
   25MOL   H207 5535   0.827   4.046   3.449  0.1407  0.2103 -0.7211
   25MOL   H208 5536   0.893   4.270   3.094  1.0465 -0.6045  1.3291
   25MOL   H209 5537   0.713   4.266   3.103 -0.4876 -0.5475 -0.0657
   25MOL   H210 5538   0.790   4.340   3.233  0.8332 -0.9414  0.9699
   25MOL   C211 5539   0.707   4.214   3.463  0.2879  0.6540  0.0155
   25MOL   C212 5540   0.640   4.130   3.575  0.1350 -0.8480  0.3601
   25MOL   C213 5541   0.726   4.121   3.702  0.6661  0.9844 -0.2894
   25MOL   O214 5542   0.756   4.010   3.747  0.2089  0.0913 -0.5031
   25MOL   C215 5543   0.757   4.252   3.767  0.5963 -0.3142  0.9769
   25MOL   H216 5544   0.745   4.310   3.497  0.1993  1.0582 -0.9854
   25MOL   H217 5545   0.627   4.233   3.391  0.3455  0.3388 -0.1310
   25MOL   H218 5546   0.607   4.034   3.533  1.4608 -0.7612 -0.9459
   25MOL   H219 5547   0.852   4.260   3.821  1.7086  1.1871 -1.1408
   25MOL   H220 5548   0.755   4.334   3.696  1.2316 -2.3989 -1.5323
   25MOL   H221 5549   0.671   4.275   3.830  0.9339 -1.4672  1.8866
   25MOL   H222 5550   0.547   4.172   3.612 -0.0809  0.7857 -1.8954
   26MOL     C1 5551   7.158   0.237   7.009 -0.5347  0.2228  0.0223
   26MOL     C2 5552   7.054   0.336   7.068 -0.3185  0.3713 -0.4825
   26MOL     C3 5553   7.112   0.466   7.110  0.3557  0.9349 -0.2734
   26MOL     O4 5554   7.079   0.570   7.058 -0.1437 -0.1135  0.0192
   26MOL     C5 5555   7.221   0.465   7.210 -0.4277  0.6170  0.2390
   26MOL     H6 5556   7.109   0.140   6.998 -0.8156  0.3979 -0.2657
   26MOL     H7 5557   7.244   0.226   7.075 -0.4968  2.2265  0.3304
   26MOL     H8 5558   7.011   0.297   7.160 -0.2360  1.8706  0.1873
   26MOL     H9 5559   7.313   0.492   7.158  0.6607  0.4938  2.0643
   26MOL    H10 5560   7.195   0.548   7.275  1.9685  2.9863 -1.7205
   26MOL    H11 5561   7.233   0.376   7.272 -0.8282  0.9928  0.8581
   26MOL    H12 5562   7.188   0.271   6.910  3.9459 -0.7772  0.9022
   26MOL    C13 5563   6.928   0.359   6.982  0.0254  0.3407 -0.4879
   26MOL    C14 5564   6.810   0.440   7.037  0.2654  0.8089  0.3523
   26MOL    C15 5565   6.750   0.374   7.162 -0.1171 -0.6771  0.2456
   26MOL    O16 5566   6.681   0.273   7.155 -0.4077  0.2328 -0.5461
   26MOL    C17 5567   6.765   0.424   7.303  0.1601 -0.1670 -0.2233
   26MOL    H18 5568   6.959   0.400   6.886  0.7683 -0.9530 -0.8183
   26MOL    H19 5569   6.892   0.257   6.967 -0.2838  0.5155 -0.9513
   26MOL    H20 5570   6.849   0.535   7.073 -1.5358  1.4262  0.7349
   26MOL    H21 5571   6.824   0.345   7.349  1.6096 -1.0693 -3.5152
   26MOL    H22 5572   6.820   0.518   7.313 -1.5940  0.7768  0.6844
   26MOL    H23 5573   6.672   0.429   7.360  0.4239  1.2031  0.1092
   26MOL    C24 5574   6.698   0.439   6.927 -0.5664 -0.4677 -0.1523
   26MOL    C25 5575   6.564   0.523   6.942 -0.7204 -0.2324 -0.0351
   26MOL    C26 5576   6.589   0.677   6.942 -0.1423 -0.7578  1.0411
   26MOL    O27 5577   6.629   0.731   6.841 -0.4103  0.2793 -0.4231
   26MOL    C28 5578   6.538   0.750   7.071 -0.4138 -0.6348  0.2084
   26MOL    H29 5579   6.744   0.476   6.835 -4.3558  0.3317 -1.8024
   26MOL    H30 5580   6.669   0.342   6.889  0.5031  0.0718 -2.4165
   26MOL    H31 5581   6.522   0.505   7.041 -4.0888  1.1942 -1.1294
   26MOL    H32 5582   6.580   0.850   7.072 -0.2683 -0.6812 -0.9899
   26MOL    H33 5583   6.430   0.756   7.056 -0.5001 -0.6278  0.8252
   26MOL    H34 5584   6.567   0.686   7.155 -1.5250  1.1706  2.0046
   26MOL    C35 5585   6.454   0.492   6.837 -0.5063 -0.2820  0.8196
   26MOL    C36 5586   6.323   0.579   6.836 -0.0982  0.3037  0.3089
   26MOL    C37 5587   6.255   0.559   6.700  0.6572  0.0551 -0.0494
   26MOL    O38 5588   6.245   0.655   6.629  0.9684  0.4645  0.4346
   26MOL    C39 5589   6.190   0.423   6.661  0.2323 -0.3595 -0.1966
   26MOL    H40 5590   6.432   0.386   6.838  2.0371 -0.8615 -0.5969
   26MOL    H41 5591   6.496   0.495   6.736  1.2234  1.1063  1.5448
   26MOL    H42 5592   6.364   0.679   6.843 -1.2124  0.9202 -1.6210
   26MOL    H43 5593   6.114   0.419   6.584  1.6060 -0.1342 -1.5842
   26MOL    H44 5594   6.155   0.377   6.754  0.7376  1.2135  0.7940
   26MOL    H45 5595   6.265   0.348   6.634  2.1234  1.3980  0.0386
   26MOL    C46 5596   6.238   0.563   6.959  0.9793  0.0457 -0.4749
   26MOL    C47 5597   6.126   0.662   6.977  0.6235  0.2281 -0.0185
   26MOL    C48 5598   6.002   0.632   6.889 -0.2084  0.7199  0.3084
   26MOL    O49 5599   5.953   0.520   6.891 -0.2094 -0.3600 -0.3307
   26MOL    C50 5600   5.953   0.735   6.785 -0.2497  0.5679 -0.2051
   26MOL    H51 5601   6.319   0.578   7.030 -0.1811  1.6548  0.5720
   26MOL    H52 5602   6.203   0.462   6.981 -0.3043  0.9863  2.0204
   26MOL    H53 5603   6.159   0.756   6.933 -0.4807 -0.2274 -1.8423
   26MOL    H54 5604   5.988   0.834   6.814  0.1373  0.8295 -1.5268
   26MOL    H55 5605   5.990   0.700   6.689 -1.8270  0.5983 -0.8354
   26MOL    H56 5606   5.845   0.733   6.769  0.0628 -1.0023 -2.1914
   26MOL    C57 5607   6.080   0.678   7.117 -0.7149 -0.0299  0.3236
   26MOL    C58 5608   6.144   0.790   7.201 -0.1398  1.1979  0.1967
   26MOL    C59 5609   6.107   0.930   7.149  0.7159 -0.4347  0.2049
   26MOL    O60 5610   6.003   0.982   7.191 -0.0602 -0.0545 -0.2552
   26MOL    C61 5611   6.182   0.985   7.025 -0.4975  0.3915 -0.5561
   26MOL    H62 5612   6.092   0.579   7.161 -0.1667  0.5486  1.5161
   26MOL    H63 5613   5.972   0.687   7.129 -0.6236  1.6228 -0.0059
   26MOL    H64 5614   6.252   0.776   7.199 -0.4610 -1.7553  0.0524
   26MOL    H65 5615   6.274   0.930   7.005 -0.8688  0.1439 -1.6770
   26MOL    H66 5616   6.123   0.976   6.933 -0.5914  0.0497 -0.4647
   26MOL    H67 5617   6.183   1.093   7.038 -2.3970  0.6774 -2.3821
   26MOL    C68 5618   6.096   0.784   7.347  0.4282  0.6960 -0.5019
   26MOL    C69 5619   6.180   0.860   7.456  0.2790  0.8937  0.8218
   26MOL    C70 5620   6.316   0.782   7.469  0.4160  0.3099 -0.6097
   26MOL    O71 5621   6.322   0.687   7.540 -0.2641  0.1935 -0.4067
   26MOL    C72 5622   6.444   0.842   7.406  0.1739 -0.2182  0.7655
   26MOL    H73 5623   5.992   0.818   7.349  0.1317 -0.1407 -1.4052
   26MOL    H74 5624   6.091   0.679   7.375  0.2129  0.7901 -0.1738
   26MOL    H75 5625   6.200   0.962   7.426  0.1830  0.0567 -2.1798
   26MOL    H76 5626   6.520   0.841   7.485 -0.2111  2.5643  1.2064
   26MOL    H77 5627   6.483   0.784   7.322  0.3551  1.7540 -0.5358
   26MOL    H78 5628   6.427   0.940   7.362 -1.5020 -0.4309  0.9271
   26MOL    C79 5629   6.117   0.884   7.595  0.2497  0.5504  0.6147
   26MOL    C80 5630   5.972   0.938   7.609  0.1468  0.5165  0.5734
   26MOL    C81 5631   5.963   1.077   7.547 -0.3703 -0.6309  0.2376
   26MOL    O82 5632   5.858   1.103   7.490 -0.4837  0.2710  0.3590
   26MOL    C83 5633   6.079   1.176   7.586 -0.6446  0.1462 -0.1277
   26MOL    H84 5634   6.184   0.955   7.643 -0.2898  1.2360  0.3734
   26MOL    H85 5635   6.112   0.785   7.640 -0.0375 -0.8726 -2.4333
   26MOL    H86 5636   5.911   0.872   7.547 -0.0793  0.0505  1.2986
   26MOL    H87 5637   6.047   1.274   7.550 -1.0325 -0.2377 -0.8476
   26MOL    H88 5638   6.181   1.158   7.553 -0.5673  0.2995  0.0296
   26MOL    H89 5639   6.068   1.178   7.694  0.7086 -2.2350  0.0814
   26MOL    C90 5640   5.928   0.929   7.755  0.0012 -0.0641 -0.5895
   26MOL    C91 5641   5.779   0.917   7.802  0.1910  0.0296  0.0177
   26MOL    C92 5642   5.708   0.806   7.722 -0.0025 -0.1109 -0.5872
   26MOL    O93 5643   5.724   0.689   7.745  0.0477 -0.3146 -0.3851
   26MOL    C94 5644   5.605   0.845   7.609  0.0365  0.2048 -0.1699
   26MOL    H95 5645   5.964   0.833   7.790 -1.7328 -0.3950  0.3680
   26MOL    H96 5646   5.982   1.004   7.813  1.1934 -0.7841 -0.7576
   26MOL    H97 5647   5.739   1.010   7.762  1.3047  0.8202  0.6791
   26MOL    H98 5648   5.643   0.850   7.507 -0.1996 -1.6636 -0.3654
   26MOL    H99 5649   5.519   0.778   7.607  1.0404 -1.0834 -2.7094
   26MOL   H100 5650   5.567   0.947   7.622 -2.4744 -0.3923 -2.2981
   26MOL   C101 5651   5.753   0.906   0.100 -0.5908 -0.7204 -0.1967
   26MOL   C102 5652   5.606   0.893   0.143 -0.4624 -0.2483 -0.1324
   26MOL   C103 5653   5.521   1.014   0.104  0.3841  0.0985  0.3823
   26MOL   O104 5654   5.563   1.124   0.130  0.0762 -0.1300  0.6497
   26MOL   C105 5655   5.381   0.988   0.045 -0.2913 -0.0381  0.1602
   26MOL   H106 5656   5.825   0.839   0.149 -1.1289 -0.3754  1.0801
   26MOL   H107 5657   5.790   1.003   0.133  0.3184 -1.2720  0.4562
   26MOL   H108 5658   5.557   0.807   0.098 -0.9651 -1.0529  1.8679
   26MOL   H109 5659   5.383   1.008   7.796  0.6787  1.2822  0.4167
   26MOL   H110 5660   5.347   0.887   0.068 -3.1760  1.1075  1.1084
   26MOL   H111 5661   5.311   1.061   0.085  0.9363  0.7712  0.8603
   26MOL   C112 5662   5.591   0.881   0.296  0.1151 -0.2314 -0.0517
   26MOL   C113 5663   5.628   0.749   0.367 -1.0263 -0.5285 -0.3696
   26MOL   C114 5664   5.516   0.646   0.361  0.1170  0.5697 -0.1273
   26MOL   O115 5665   5.407   0.671   0.411 -0.0920 -0.0493  0.3045
   26MOL   C116 5666   5.546   0.521   0.277  0.3569  0.2031  0.1938
   26MOL   H117 5667   5.496   0.918   0.335 -0.5111 -1.9241  0.0933
   26MOL   H118 5668   5.652   0.953   0.350 -0.3187 -0.7762  1.2113
   26MOL   H119 5669   5.712   0.705   0.314 -1.3543  1.1874 -2.3959
   26MOL   H120 5670   5.486   0.497   0.190  0.2458  2.6234 -0.4433
   26MOL   H121 5671   5.649   0.505   0.243 -0.5882 -0.3367 -2.5159
   26MOL   H122 5672   5.522   0.437   0.342 -2.0081  0.9603  0.3367
   26MOL   C123 5673   5.681   0.771   0.515 -0.3504 -0.1329 -0.9938
   26MOL   C124 5674   5.795   0.665   0.545 -0.1098 -0.5428 -0.7708
   26MOL   C125 5675   5.839   0.678   0.688  0.4580 -0.3842 -0.7021
   26MOL   O126 5676   5.884   0.785   0.731 -0.2866  0.1043  0.5552
   26MOL   C127 5677   5.836   0.556   0.777  0.2256  1.1520  0.2458
   26MOL   H128 5678   5.607   0.768   0.595 -0.8858  0.4856 -1.4552
   26MOL   H129 5679   5.735   0.865   0.522  0.1796 -0.5021 -0.0941
   26MOL   H130 5680   5.754   0.565   0.529 -0.7386 -0.5872  0.9792
   26MOL   H131 5681   5.914   0.581   0.849  2.7632 -1.5814 -1.4149
   26MOL   H132 5682   5.871   0.469   0.722 -0.0185 -0.2754  2.3319
   26MOL   H133 5683   5.741   0.551   0.830  0.8631  0.3994  1.3367
   26MOL   C134 5684   5.931   0.701   0.474  0.0028 -0.2322 -0.7455
   26MOL   C135 5685   6.023   0.572   0.459 -0.2429 -0.3512  0.6548
   26MOL   C136 5686   5.959   0.488   0.353 -0.0739  0.4145 -0.0576
   26MOL   O137 5687   5.967   0.523   0.230  0.3373  0.5581 -0.4482
   26MOL   C138 5688   5.893   0.353   0.386  0.6432  0.0263  0.2979
   26MOL   H139 5689   5.990   0.781   0.519  0.0698 -0.6286 -0.1329
   26MOL   H140 5690   5.917   0.746   0.375  1.8341  0.1237 -0.8625
   26MOL   H141 5691   6.034   0.513   0.550  1.3271 -1.0502  0.0138
   26MOL   H142 5692   5.939   0.279   0.320  1.2215  0.4847  0.1830
   26MOL   H143 5693   5.784   0.353   0.391  0.6141  0.7912 -0.1956
   26MOL   H144 5694   5.935   0.331   0.484  1.3596 -2.8825 -0.6226
   26MOL   C145 5695   6.166   0.622   0.409 -0.6388 -0.2963 -0.6709
   26MOL   C146 5696   6.250   0.690   0.519 -0.3487  0.0598  0.5465
   26MOL   C147 5697   6.255   0.606   0.650  0.0208 -0.2216 -0.4694
   26MOL   O148 5698   6.192   0.637   0.746  0.5512 -0.2300  0.1870
   26MOL   C149 5699   6.331   0.476   0.643 -0.1698 -0.2245 -0.5665
   26MOL   H150 5700   6.152   0.687   0.323  1.1071  0.5240 -0.3598
   26MOL   H151 5701   6.224   0.540   0.368 -2.3427 -0.7791 -2.1671
   26MOL   H152 5702   6.189   0.773   0.555  0.5230  1.1603 -0.4615
   26MOL   H153 5703   6.379   0.444   0.736 -0.3587  1.3612  0.1046
   26MOL   H154 5704   6.271   0.393   0.606 -1.8594  0.4659  0.5752
   26MOL   H155 5705   6.422   0.497   0.586  0.8995  1.3045  1.6227
   26MOL   C156 5706   6.391   0.740   0.480 -0.0233  0.1371  0.2121
   26MOL   C157 5707   6.455   0.828   0.591 -0.7998  0.2163  0.3984
   26MOL   C158 5708   6.403   0.973   0.596 -0.0493  0.2701  0.2628
   26MOL   O159 5709   6.433   1.048   0.498 -0.0304  0.2264  0.3430
   26MOL   C160 5710   6.325   1.023   0.715  0.0381  0.2346  0.4178
   26MOL   H161 5711   6.458   0.659   0.451 -0.8377  0.1032 -1.6784
   26MOL   H162 5712   6.390   0.797   0.387  1.2050  1.0278  0.7414
   26MOL   H163 5713   6.437   0.790   0.691  0.8241 -1.7061 -0.0034
   26MOL   H164 5714   6.359   1.121   0.748 -0.0035  0.3045  0.2524
   26MOL   H165 5715   6.344   0.953   0.797 -1.1143  0.5933  0.9892
   26MOL   H166 5716   6.218   1.020   0.696  0.0976  1.4994 -0.1393
   26MOL   C167 5717   6.617   0.832   0.565  0.0780  0.2906 -0.6993
   26MOL   C168 5718   6.704   0.710   0.618 -0.2355 -0.1028 -0.1153
   26MOL   C169 5719   6.672   0.692   0.770 -0.9588 -0.2431  0.2867
   26MOL   O170 5720   6.586   0.615   0.813  0.2004  0.0164  0.1662
   26MOL   C171 5721   6.749   0.793   0.861 -0.1380 -0.0882  0.0945
   26MOL   H172 5722   6.620   0.863   0.460  0.4342  0.3271 -0.6782
   26MOL   H173 5723   6.659   0.919   0.616  0.6333 -1.0266  1.1016
   26MOL   H174 5724   6.682   0.615   0.568 -0.3946 -0.0261 -0.1876
   26MOL   H175 5725   6.852   0.763   0.879  0.2363  0.9550 -0.2602
   26MOL   H176 5726   6.693   0.785   0.953  0.9256 -1.1274  0.6686
   26MOL   H177 5727   6.748   0.898   0.830  0.3292 -0.8997 -2.8147
   26MOL   C178 5728   6.852   0.729   0.592  0.0939 -0.3197  0.0442
   26MOL   C179 5729   6.936   0.604   0.580  0.1529  0.1481  0.1561
   26MOL   C180 5730   7.085   0.638   0.598 -0.3643  0.2370 -0.7028
   26MOL   O181 5731   7.168   0.636   0.508 -0.0008 -0.2850  0.1650
   26MOL   C182 5732   7.137   0.684   0.733  0.2790 -0.1640  0.6680
   26MOL   H183 5733   6.874   0.787   0.502  1.7080  0.7385  1.0906
   26MOL   H184 5734   6.884   0.790   0.676  2.1209 -0.2905 -0.7281
   26MOL   H185 5735   6.909   0.529   0.655  0.7123  0.7515  0.9695
   26MOL   H186 5736   7.149   0.792   0.731 -2.1024  0.1026 -0.0246
   26MOL   H187 5737   7.232   0.641   0.767 -0.0975 -1.3305  0.2572
   26MOL   H188 5738   7.067   0.652   0.810 -0.1430  3.7213  1.9821
   26MOL   C189 5739   6.908   0.542   0.446  0.4148  0.4736  0.2542
   26MOL   C190 5740   6.923   0.386   0.437  0.1089 -0.8959  0.3956
   26MOL   C191 5741   6.803   0.316   0.500 -0.0146  0.6700  0.4586
   26MOL   O192 5742   6.691   0.366   0.515 -0.1364 -0.2904 -0.6090
   26MOL   C193 5743   6.831   0.182   0.549 -0.6747  0.1989 -0.3118
   26MOL   H194 5744   6.807   0.560   0.408  1.4685  0.1559 -2.8307
   26MOL   H195 5745   6.973   0.592   0.374  0.2654  1.1615  0.5941
   26MOL   H196 5746   7.018   0.367   0.487 -0.4390  0.7728  2.1284
   26MOL   H197 5747   6.745   0.117   0.536  0.8198 -1.7348 -0.6462
   26MOL   H198 5748   6.923   0.138   0.510  0.1284  2.7982 -1.4925
   26MOL   H199 5749   6.848   0.192   0.656  1.8442 -1.4226 -0.5344
   26MOL   C200 5750   6.942   0.340   0.289  0.1035 -0.4974  0.0936
   26MOL   C201 5751   6.864   0.394   0.166 -0.3613 -0.3775 -0.4427
   26MOL   C202 5752   6.716   0.343   0.172 -0.2574  0.7644 -0.4054
   26MOL   O203 5753   6.690   0.229   0.197  0.2369  0.3572 -0.7220
   26MOL   C204 5754   6.610   0.443   0.146 -0.1420 -0.6075  0.0326
   26MOL   H205 5755   7.046   0.366   0.264 -0.0467  0.5442  0.4927
   26MOL   H206 5756   6.938   0.232   0.280 -2.9813 -0.3869 -0.3382
   26MOL   H207 5757   6.873   0.502   0.171 -0.1844 -0.2560 -2.9121
   26MOL   H208 5758   6.638   0.504   0.060 -1.0166  0.4213  0.4626
   26MOL   H209 5759   6.511   0.402   0.125  0.3125 -1.7177  0.0343
   26MOL   H210 5760   6.599   0.504   0.236 -0.2833  2.4547 -2.0101
   26MOL   C211 5761   6.945   0.344   0.034 -0.4627  0.4843 -0.8262
   26MOL   C212 5762   6.889   0.386   7.756  0.0146  0.7847 -0.6084
   26MOL   C213 5763   6.918   0.532   7.725 -0.2673  0.5069  0.5011
   26MOL   O214 5764   6.914   0.618   7.812 -0.3215  0.4986  0.2314
   26MOL   C215 5765   6.939   0.578   7.583  0.1953 -0.0136 -0.3166
   26MOL   H216 5766   7.048   0.373   0.050  0.2069 -2.0915 -0.1437
   26MOL   H217 5767   6.965   0.237   0.031 -0.1399  0.5056  0.3746
   26MOL   H218 5768   6.780   0.377   7.757  0.1237 -0.6317 -0.4298
   26MOL   H219 5769   7.004   0.512   7.527  0.5867  0.5215 -0.4947
   26MOL   H220 5770   6.842   0.574   7.533 -0.5703  0.6197  1.0855
   26MOL   H221 5771   6.970   0.680   7.562 -1.4795  0.4221 -0.7802
   26MOL   H222 5772   6.932   0.318   7.682  0.4975 -1.5484  1.7690
   27MOL     C1 5773   2.473   3.422   0.494 -0.0525 -0.6932 -0.2778
   27MOL     C2 5774   2.508   3.330   0.380 -0.5079 -0.7190  0.0794
   27MOL     C3 5775   2.439   3.372   0.248  0.0642  0.5242 -0.3474
   27MOL     O4 5776   2.447   3.480   0.199  0.3852 -0.4612  0.0888
   27MOL     C5 5777   2.343   3.273   0.192  0.1452  0.5765  0.5081
   27MOL     H6 5778   2.505   3.527   0.488 -1.8877 -0.1218 -0.4398
   27MOL     H7 5779   2.503   3.374   0.587 -1.5645 -0.7135  0.2076
   27MOL     H8 5780   2.474   3.231   0.410  3.2079 -1.9975  0.3404
   27MOL     H9 5781   2.309   3.206   0.271  0.0563 -0.5450 -0.4636
   27MOL    H10 5782   2.256   3.325   0.153 -1.3396 -0.1142  2.8311
   27MOL    H11 5783   2.396   3.215   0.117 -2.4542  0.1833 -1.0671
   27MOL    H12 5784   2.368   3.439   0.518  0.0526 -1.9045  1.0922
   27MOL    C13 5785   2.660   3.326   0.367 -0.2416 -0.3416  0.4654
   27MOL    C14 5786   2.713   3.216   0.276  0.0050  0.3369  0.4179
   27MOL    C15 5787   2.647   3.084   0.319 -0.1549 -0.3189  0.7605
   27MOL    O16 5788   2.565   3.027   0.246  0.8731 -0.0665 -0.0458
   27MOL    C17 5789   2.689   3.020   0.444  0.4563  0.5908  0.1048
   27MOL    H18 5790   2.692   3.423   0.330  2.1851 -2.0758 -2.2034
   27MOL    H19 5791   2.713   3.333   0.462 -0.6723  0.7167  0.6290
   27MOL    H20 5792   2.673   3.234   0.176 -0.1887  0.5437  0.5343
   27MOL    H21 5793   2.631   2.930   0.468  0.1032  1.2447  1.7815
   27MOL    H22 5794   2.794   2.994   0.452 -0.1659 -1.2063  3.1972
   27MOL    H23 5795   2.664   3.094   0.520 -1.3693  0.7267 -0.5939
   27MOL    C24 5796   2.869   3.195   0.276  0.1642  0.3686 -0.5301
   27MOL    C25 5797   2.920   3.107   0.158  0.3908  0.0776 -0.2919
   27MOL    C26 5798   2.900   3.176   0.020  0.8079  0.0870  0.5516
   27MOL    O27 5799   2.930   3.296   0.006 -0.1709 -0.0798  0.6433
   27MOL    C28 5800   2.821   3.102   7.771 -0.3191 -0.8842  0.5013
   27MOL    H29 5801   2.897   3.299   0.259  1.3677  0.0004 -0.7939
   27MOL    H30 5802   2.916   3.173   0.371  0.8083  2.1641 -0.4198
   27MOL    H31 5803   2.857   3.019   0.155 -0.0763  0.3161  2.1047
   27MOL    H32 5804   2.751   3.174   7.729  0.3337 -0.8172 -0.5010
   27MOL    H33 5805   2.889   3.081   7.689  0.0113 -1.3971  0.9029
   27MOL    H34 5806   2.768   3.013   7.806 -1.6044  0.5585  2.3456
   27MOL    C35 5807   3.063   3.066   0.186 -0.4099  0.2043 -0.1442
   27MOL    C36 5808   3.098   2.912   0.169 -0.4683 -0.1586  0.2728
   27MOL    C37 5809   3.088   2.857   0.024 -0.3847 -0.5428 -0.4671
   27MOL    O38 5810   3.104   2.927   7.785 -0.1326  0.2942  0.0685
   27MOL    C39 5811   3.056   2.703   0.014 -0.7060  0.6318 -0.3671
   27MOL    H40 5812   3.089   3.088   0.290  1.3647 -1.2407 -0.2605
   27MOL    H41 5813   3.123   3.121   0.114 -0.0553  0.2082  0.1529
   27MOL    H42 5814   3.031   2.853   0.231  1.1877 -1.1141  1.2118
   27MOL    H43 5815   2.985   2.674   0.092  0.1926 -1.2021 -0.1920
   27MOL    H44 5816   3.142   2.636   0.022 -0.3960  1.2673  1.8659
   27MOL    H45 5817   3.001   2.680   7.780 -0.1580 -3.6213  0.2568
   27MOL    C46 5818   3.242   2.890   0.228 -0.3939  0.3257  0.3767
   27MOL    C47 5819   3.266   2.749   0.295 -0.6529 -0.4289  0.3630
   27MOL    C48 5820   3.347   2.649   0.201  0.1516  0.3804  0.3405
   27MOL    O49 5821   3.413   2.691   0.107  0.2737 -0.1569 -0.1213
   27MOL    C50 5822   3.345   2.502   0.228  0.0470  0.1133  0.2499
   27MOL    H51 5823   3.266   2.969   0.299 -0.6031  0.4387  0.3231
   27MOL    H52 5824   3.312   2.897   0.144 -1.1739  1.3894 -0.1990
   27MOL    H53 5825   3.165   2.708   0.300 -0.4267 -1.1576 -0.8995
   27MOL    H54 5826   3.395   2.469   0.319 -0.9446 -1.9644  0.0819
   27MOL    H55 5827   3.244   2.465   0.244  0.7477 -1.8228  0.3812
   27MOL    H56 5828   3.388   2.440   0.149 -1.3954  0.1793 -0.6187
   27MOL    C57 5829   3.317   2.757   0.445  0.1937  0.2513  0.2052
   27MOL    C58 5830   3.243   2.645   0.530  0.0832  0.0899  1.0655
   27MOL    C59 5831   3.319   2.611   0.665 -0.0748 -0.4991 -0.0427
   27MOL    O60 5832   3.360   2.704   0.738 -0.5105  0.1363  0.0013
   27MOL    C61 5833   3.331   2.469   0.712 -0.5949 -0.4988  0.5954
   27MOL    H62 5834   3.298   2.857   0.483  1.0870  0.0827  1.1038
   27MOL    H63 5835   3.424   2.737   0.449 -0.3667 -2.9860  0.6061
   27MOL    H64 5836   3.243   2.559   0.463 -0.0573  2.0680 -1.5618
   27MOL    H65 5837   3.433   2.433   0.729 -0.7175 -1.2492 -0.2073
   27MOL    H66 5838   3.283   2.467   0.809  1.4225  0.4150  1.6474
   27MOL    H67 5839   3.279   2.394   0.653  0.3280  0.6545 -1.7669
   27MOL    C68 5840   3.095   2.699   0.558 -0.3590  0.2363  0.0923
   27MOL    C69 5841   3.007   2.597   0.630 -0.9920 -0.3255  0.5174
   27MOL    C70 5842   2.979   2.475   0.543 -1.0983 -0.5110 -0.3486
   27MOL    O71 5843   2.993   2.480   0.419 -0.1826  0.0842 -0.3519
   27MOL    C72 5844   2.945   2.348   0.608 -0.1083  0.0613  0.3091
   27MOL    H73 5845   3.107   2.793   0.612  1.8869  1.0731 -1.7543
   27MOL    H74 5846   3.044   2.741   0.471  1.3055  0.6896 -0.6938
   27MOL    H75 5847   3.059   2.555   0.716  2.0271  0.9798 -0.5955
   27MOL    H76 5848   2.884   2.357   0.698  0.6928 -1.8124  1.0687
   27MOL    H77 5849   2.893   2.282   0.537  0.4537 -0.1338  0.0792
   27MOL    H78 5850   3.041   2.304   0.632  1.1796  1.7876 -1.5322
   27MOL    C79 5851   2.883   2.665   0.685  0.0283 -0.9152 -0.1823
   27MOL    C80 5852   2.913   2.724   0.827  0.3027  1.1084 -0.1133
   27MOL    C81 5853   2.821   2.654   0.931 -0.3238  0.2376 -0.5429
   27MOL    O82 5854   2.720   2.712   0.978 -0.1768 -0.6777 -0.8937
   27MOL    C83 5855   2.845   2.508   0.969  0.0181  0.6066  0.3633
   27MOL    H84 5856   2.805   2.592   0.707  0.6566 -1.3723  0.5765
   27MOL    H85 5857   2.844   2.743   0.620 -0.2883  0.0346  1.1257
   27MOL    H86 5858   3.015   2.695   0.849  0.2130  0.2751 -0.7642
   27MOL    H87 5859   2.785   2.445   0.904 -0.2798  1.2429  0.0123
   27MOL    H88 5860   2.817   2.487   1.072 -0.4295 -0.9450 -0.0569
   27MOL    H89 5861   2.951   2.481   0.964  0.0967  0.9486  0.1669
   27MOL    C90 5862   2.911   2.881   0.830 -0.0696 -0.1068 -0.2067
   27MOL    C91 5863   2.946   2.953   0.964  0.4049  0.0414 -0.2636
   27MOL    C92 5864   3.072   2.900   1.033  0.8114 -0.3427 -0.4387
   27MOL    O93 5865   3.063   2.835   1.142  0.0023 -0.0347  0.0548
   27MOL    C94 5866   3.198   2.915   0.955 -0.3733 -0.5223 -0.3121
   27MOL    H95 5867   2.993   2.909   0.764  2.7630 -2.7025  2.0588
   27MOL    H96 5868   2.817   2.913   0.784 -0.6332 -1.4872 -0.0510
   27MOL    H97 5869   2.857   2.938   1.025  0.4010 -0.5541 -0.4127
   27MOL    H98 5870   3.188   2.886   0.851  2.7197  2.5483 -1.5568
   27MOL    H99 5871   3.221   3.022   0.952  2.3035 -0.9772  1.7180
   27MOL   H100 5872   3.278   2.853   0.994  2.3580  2.5828 -0.8012
   27MOL   C101 5873   2.955   3.107   0.963  0.0417 -0.8227  0.2047
   27MOL   C102 5874   2.980   3.175   1.100  0.4822 -0.0292 -0.0102
   27MOL   C103 5875   2.875   3.149   1.213  0.0692  1.0720  0.0576
   27MOL   O104 5876   2.758   3.126   1.183 -0.3350  0.2793 -0.3148
   27MOL   C105 5877   2.927   3.158   1.357 -0.3411  0.7899 -0.3416
   27MOL   H106 5878   3.043   3.136   0.905 -0.8166  0.7298 -0.3500
   27MOL   H107 5879   2.868   3.145   0.910 -0.6488  1.0536  2.6366
   27MOL   H108 5880   3.070   3.139   1.151  0.4710  2.5805  1.9371
   27MOL   H109 5881   2.875   3.237   1.411 -3.6147 -0.8738 -0.9395
   27MOL   H110 5882   2.905   3.066   1.411  2.7725  0.7599  0.9723
   27MOL   H111 5883   3.032   3.180   1.372 -0.7338  4.6281 -2.5550
   27MOL   C112 5884   3.001   3.330   1.082 -0.1198  0.3794 -0.0858
   27MOL   C113 5885   2.873   3.424   1.080  0.5604  0.0127  1.3001
   27MOL   C114 5886   2.807   3.442   0.943 -0.3844 -0.4551  0.6486
   27MOL   O115 5887   2.872   3.495   0.853  0.5188 -0.4569 -0.0155
   27MOL   C116 5888   2.662   3.395   0.921  0.4680  0.0458 -0.1000
   27MOL   H117 5889   3.060   3.357   0.994  2.0405 -0.8443  0.9519
   27MOL   H118 5890   3.063   3.366   1.164 -0.8201  2.7901 -0.5586
   27MOL   H119 5891   2.801   3.378   1.148 -0.1295  0.7601  1.0843
   27MOL   H120 5892   2.587   3.457   0.970 -0.8608 -1.2549 -0.4637
   27MOL   H121 5893   2.651   3.400   0.813 -0.3195 -0.2165 -0.0314
   27MOL   H122 5894   2.644   3.295   0.960  1.0979  0.6698  1.8305
   27MOL   C123 5895   2.907   3.566   1.128  0.1573 -0.5905 -0.1676
   27MOL   C124 5896   2.917   3.578   1.287 -0.2789  0.0094  0.1505
   27MOL   C125 5897   2.774   3.554   1.345 -0.8897  0.0887 -0.7372
   27MOL   O126 5898   2.665   3.567   1.278 -0.2257 -0.1601  0.1435
   27MOL   C127 5899   2.758   3.495   1.490  0.5911 -0.2773 -0.2489
   27MOL   H128 5900   2.843   3.641   1.081  1.2302  1.9858  2.3316
   27MOL   H129 5901   3.003   3.575   1.077 -0.4217  1.8058 -0.9254
   27MOL   H130 5902   2.983   3.504   1.331  1.1858  1.4910  0.4777
   27MOL   H131 5903   2.655   3.472   1.516  0.4832  0.9850  0.4629
   27MOL   H132 5904   2.803   3.547   1.575 -0.2885 -3.3364  2.1712
   27MOL   H133 5905   2.809   3.399   1.492  2.4756  0.6644 -1.2442
   27MOL   C134 5906   2.981   3.709   1.328  0.5620 -0.0496  0.4811
   27MOL   C135 5907   2.909   3.835   1.285 -0.3263 -0.2115  0.0078
   27MOL   C136 5908   2.835   3.908   1.404  0.3810  0.2823  0.0023
   27MOL   O137 5909   2.891   3.965   1.494 -0.3159  0.5996 -0.1913
   27MOL   C138 5910   2.687   3.925   1.379 -0.0022 -0.3490 -0.0890
   27MOL   H139 5911   3.083   3.713   1.290  0.5418 -1.5908  0.2465
   27MOL   H140 5912   2.987   3.704   1.437 -0.6473  1.7478  0.6679
   27MOL   H141 5913   2.822   3.820   1.221 -1.3480  1.3812  0.9778
   27MOL   H142 5914   2.622   3.840   1.402 -0.5612 -0.0546 -0.5819
   27MOL   H143 5915   2.669   3.943   1.273 -1.3436  1.4135  0.4343
   27MOL   H144 5916   2.656   4.005   1.446  2.0958 -0.6502  1.2891
   27MOL   C145 5917   3.003   3.935   1.204 -0.5101 -0.1576  0.0731
   27MOL   C146 5918   3.038   3.897   1.057 -0.3953 -0.0021 -0.3927
   27MOL   C147 5919   2.939   3.953   0.957 -0.1306 -0.2384 -0.6539
   27MOL   O148 5920   2.836   3.888   0.935  0.3552  0.3532 -0.2457
   27MOL   C149 5921   2.966   4.091   0.901  0.1254  0.0192 -0.2991
   27MOL   H150 5922   3.096   3.936   1.262 -0.8919 -0.8335  0.7018
   27MOL   H151 5923   2.958   4.034   1.203 -0.5575 -0.1848 -0.7350
   27MOL   H152 5924   3.034   3.788   1.056 -0.8606 -0.0083  1.2839
   27MOL   H153 5925   2.866   4.126   0.875  0.9178  1.0678 -2.0374
   27MOL   H154 5926   3.005   4.151   0.983  0.4168  0.5950 -0.8515
   27MOL   H155 5927   3.031   4.085   0.814 -1.5669 -0.5653 -1.5570
   27MOL   C156 5928   3.187   3.937   1.021 -0.4030  0.4227 -0.5558
   27MOL   C157 5929   3.244   3.888   0.886  0.5685  0.2665 -0.6622
   27MOL   C158 5930   3.227   3.743   0.842  0.4597  0.1952  0.0560
   27MOL   O159 5931   3.314   3.661   0.862 -0.4907 -0.0398 -0.2048
   27MOL   C160 5932   3.113   3.702   0.765 -0.3545 -0.3893  0.4205
   27MOL   H161 5933   3.201   4.044   1.039 -0.4189  0.1330  1.2974
   27MOL   H162 5934   3.257   3.897   1.093 -2.7790  1.1610  2.2958
   27MOL   H163 5935   3.186   3.934   0.806 -1.1143 -2.3482 -1.0021
   27MOL   H164 5936   3.025   3.677   0.824  0.0586 -0.5531  0.9711
   27MOL   H165 5937   3.139   3.615   0.705  2.1921  1.4623 -1.2735
   27MOL   H166 5938   3.077   3.784   0.702 -0.0697  1.3118  2.4055
   27MOL   C167 5939   3.393   3.930   0.879  0.2571 -0.2272  0.1246
   27MOL   C168 5940   3.416   4.075   0.841 -0.9812  0.3345  0.5464
   27MOL   C169 5941   3.409   4.087   0.689  0.2160  0.1596 -0.4211
   27MOL   O170 5942   3.492   4.023   0.618 -0.8625 -0.0915  0.8125
   27MOL   C171 5943   3.291   4.166   0.643  0.8449 -0.1946  0.3065
   27MOL   H172 5944   3.437   3.890   0.971 -1.3412  0.6730  1.3077
   27MOL   H173 5945   3.434   3.864   0.803 -1.3451  0.9529 -1.8321
   27MOL   H174 5946   3.335   4.134   0.883 -1.8142  0.0046 -0.5898
   27MOL   H175 5947   3.279   4.255   0.705 -1.2722  0.6724 -1.2740
   27MOL   H176 5948   3.200   4.107   0.656  0.4213 -0.0464 -1.8291
   27MOL   H177 5949   3.312   4.206   0.543 -1.3515  0.0013 -0.0883
   27MOL   C178 5950   3.557   4.133   0.889 -0.5220 -0.2246  0.3901
   27MOL   C179 5951   3.546   4.217   1.022 -0.4064 -0.3112 -0.0124
   27MOL   C180 5952   3.443   4.330   0.997 -0.5673  0.0426  0.9885
   27MOL   O181 5953   3.341   4.341   1.066 -0.5391 -0.1376  0.2141
   27MOL   C182 5954   3.459   4.419   0.867 -0.5081  0.0594  0.1811
   27MOL   H183 5955   3.618   4.046   0.908 -1.6827 -1.1681 -0.1159
   27MOL   H184 5956   3.618   4.186   0.817 -1.9774 -0.0544 -0.7482
   27MOL   H185 5957   3.506   4.163   1.108  1.9904  0.3992  1.6061
   27MOL   H186 5958   3.479   4.355   0.781 -0.7969  1.2859 -0.8189
   27MOL   H187 5959   3.534   4.497   0.880  0.6404 -1.3508  2.4316
   27MOL   H188 5960   3.373   4.485   0.858  0.1563  0.8684 -0.3517
   27MOL   C189 5961   3.682   4.268   1.068 -0.6018 -0.0947  0.2521
   27MOL   C190 5962   3.695   4.344   1.203 -0.0870 -0.0119  0.4178
   27MOL   C191 5963   3.634   4.265   1.315 -0.2861  0.3845 -0.4559
   27MOL   O192 5964   3.697   4.186   1.387  0.4608 -0.1698  0.5489
   27MOL   C193 5965   3.494   4.297   1.368  0.0264  0.5776 -0.3598
   27MOL   H194 5966   3.746   4.180   1.060 -1.5833 -0.8641  0.7280
   27MOL   H195 5967   3.720   4.338   0.994  0.7225  0.6164  1.5743
   27MOL   H196 5968   3.645   4.441   1.211 -2.5658 -0.9483 -2.5598
   27MOL   H197 5969   3.462   4.207   1.420  1.2624 -1.4390 -2.9835
   27MOL   H198 5970   3.485   4.381   1.438  1.6003  1.9051 -1.7036
   27MOL   H199 5971   3.420   4.318   1.290 -1.4834 -1.1990  0.5654
   27MOL   C200 5972   3.840   4.386   1.229  0.4864 -0.2354  0.2851
   27MOL   C201 5973   3.870   4.448   1.369 -0.0835  0.7635  0.1819
   27MOL   C202 5974   3.799   4.586   1.392  0.2212 -0.3290 -0.1555
   27MOL   O203 5975   3.744   4.646   1.298 -0.1314 -0.7756  0.2958
   27MOL   C204 5976   3.804   4.646   1.532 -0.4602  0.1977 -0.3909
   27MOL   H205 5977   3.901   4.295   1.226  2.3836  1.0336 -1.1392
   27MOL   H206 5978   3.871   4.449   1.145 -1.4253 -0.3392 -0.5197
   27MOL   H207 5979   3.838   4.368   1.435  1.6786  2.8021  3.6499
   27MOL   H208 5980   3.904   4.667   1.570 -0.8833 -0.9633  1.4090
   27MOL   H209 5981   3.764   4.748   1.537  1.3780  0.8267  2.7993
   27MOL   H210 5982   3.755   4.571   1.595  2.4103 -2.9665 -1.8011
   27MOL   C211 5983   4.024   4.468   1.387 -0.0282  0.5583 -0.2065
   27MOL   C212 5984   4.112   4.334   1.390  0.5171  0.1565 -0.5744
   27MOL   C213 5985   4.209   4.315   1.499  0.8308  0.1978 -0.2200
   27MOL   O214 5986   4.225   4.394   1.592  0.4551 -0.5203  0.1447
   27MOL   C215 5987   4.293   4.188   1.493 -0.3030 -1.0254 -0.0772
   27MOL   H216 5988   4.066   4.528   1.305 -0.0655 -1.1772 -1.5208
   27MOL   H217 5989   4.044   4.518   1.482  1.6129 -3.3587  1.5732
   27MOL   H218 5990   4.162   4.322   1.294 -0.2939 -2.4115 -0.7068
   27MOL   H219 5991   4.388   4.191   1.546 -0.5099  1.1655  0.2424
   27MOL   H220 5992   4.237   4.110   1.543  0.2408 -0.4165  1.5100
   27MOL   H221 5993   4.307   4.165   1.387  0.7548 -0.6826 -0.0201
   27MOL   H222 5994   4.054   4.242   1.393 -0.0995  0.5697  0.4847
   28MOL     C1 5995   1.489   2.358   6.585  0.3408 -0.4823  0.1575
   28MOL     C2 5996   1.485   2.226   6.504 -0.0371  0.3805  0.2746
   28MOL     C3 5997   1.591   2.125   6.552  0.1957  0.2806  0.6665
   28MOL     O4 5998   1.571   2.046   6.646  0.4364 -0.2899 -0.2869
   28MOL     C5 5999   1.718   2.123   6.483  0.4709  0.1723 -0.5248
   28MOL     H6 6000   1.422   2.426   6.533 -0.3563 -0.0662  1.5955
   28MOL     H7 6001   1.590   2.397   6.596  0.6838 -1.3753  0.2452
   28MOL     H8 6002   1.514   2.252   6.403 -2.3026 -1.2397 -0.8493
   28MOL     H9 6003   1.803   2.094   6.544  0.0596 -0.0427 -0.0486
   28MOL    H10 6004   1.711   2.059   6.396 -1.8884  0.8039 -0.8350
   28MOL    H11 6005   1.743   2.224   6.449 -1.6671  0.9456  0.0958
   28MOL    H12 6006   1.462   2.340   6.689  2.1294  0.7735  0.8532
   28MOL    C13 6007   1.339   2.188   6.484  0.4494 -0.0621 -0.2190
   28MOL    C14 6008   1.304   2.057   6.416  0.2458 -0.3888 -0.8051
   28MOL    C15 6009   1.363   2.031   6.275 -0.4557 -0.1369  1.2806
   28MOL    O16 6010   1.438   1.942   6.259 -0.1665  0.3860  0.3033
   28MOL    C17 6011   1.323   2.122   6.164 -0.0888 -0.1636  0.3134
   28MOL    H18 6012   1.298   2.192   6.585 -0.7852  0.9303 -0.7589
   28MOL    H19 6013   1.294   2.270   6.428  1.5831  0.4555 -0.3989
   28MOL    H20 6014   1.371   2.000   6.480  2.5065 -0.2072 -2.9209
   28MOL    H21 6015   1.219   2.153   6.168 -0.1240 -0.4735  2.2465
   28MOL    H22 6016   1.388   2.208   6.149 -0.2523 -0.1921 -0.5765
   28MOL    H23 6017   1.335   2.060   6.075  0.9898 -2.6819  2.1409
   28MOL    C24 6018   1.167   2.007   6.431 -0.0271  0.3981 -0.0010
   28MOL    C25 6019   1.161   1.855   6.461 -0.3248  0.8435 -0.5578
   28MOL    C26 6020   1.161   1.810   6.611  0.1239  0.1580  0.5394
   28MOL    O27 6021   1.060   1.825   6.679 -0.3085  0.0684  0.5146
   28MOL    C28 6022   1.283   1.744   6.680 -0.3566  0.0094 -0.6646
   28MOL    H29 6023   1.125   2.063   6.514  0.4502  2.7435 -1.3017
   28MOL    H30 6024   1.104   2.034   6.347  0.1002 -3.2846 -1.3739
   28MOL    H31 6025   1.240   1.802   6.409 -1.2973 -0.1358 -1.0649
   28MOL    H32 6026   1.377   1.789   6.648  0.1915 -1.8458 -1.7200
   28MOL    H33 6027   1.263   1.764   6.785 -1.2436  1.8129 -1.1633
   28MOL    H34 6028   1.289   1.638   6.655  2.4782  0.0192 -0.1541
   28MOL    C35 6029   1.032   1.796   6.395 -0.1532  0.0547  0.0067
   28MOL    C36 6030   1.051   1.747   6.245 -0.4583 -0.3225  0.5070
   28MOL    C37 6031   1.131   1.621   6.234  0.2151  0.9700  0.0929
   28MOL    O38 6032   1.140   1.541   6.327 -0.6845  0.5354 -0.1440
   28MOL    C39 6033   1.196   1.594   6.106 -0.0170 -0.3247 -0.5555
   28MOL    H40 6034   0.950   1.868   6.401  0.7629  1.0258  1.0762
   28MOL    H41 6035   1.004   1.708   6.452 -0.5259 -0.8127 -1.4887
   28MOL    H42 6036   1.099   1.824   6.185 -0.5930 -0.1844  0.5742
   28MOL    H43 6037   1.169   1.664   6.027 -1.7661 -1.3581 -0.9179
   28MOL    H44 6038   1.158   1.500   6.066 -0.2060  0.1638 -1.5535
   28MOL    H45 6039   1.304   1.596   6.113  0.0303  2.4675 -1.6336
   28MOL    C46 6040   0.907   1.731   6.182 -0.0999  0.1514  0.1436
   28MOL    C47 6041   0.860   1.854   6.090  0.2001 -0.4571 -0.5305
   28MOL    C48 6042   0.943   1.867   5.965 -0.1478  0.1863  0.6625
   28MOL    O49 6043   0.980   1.767   5.899  0.4975 -0.4949 -0.7635
   28MOL    C50 6044   0.955   2.008   5.912  0.0235  0.3600  0.1634
   28MOL    H51 6045   0.836   1.725   6.264  2.1558 -0.4877  2.1224
   28MOL    H52 6046   0.898   1.633   6.136  0.3049  0.5307 -0.7605
   28MOL    H53 6047   0.882   1.939   6.154 -1.8438 -0.5059  0.2924
   28MOL    H54 6048   0.927   2.015   5.807  0.7356  0.5293 -0.0149
   28MOL    H55 6049   0.888   2.074   5.966 -1.5340  0.3066 -1.6645
   28MOL    H56 6050   1.053   2.053   5.927  0.7985 -1.7506  1.6987
   28MOL    C57 6051   0.708   1.857   6.060  0.5019 -0.5113 -0.3798
   28MOL    C58 6052   0.633   1.774   5.958  0.1547 -0.1766 -0.2530
   28MOL    C59 6053   0.601   1.628   6.008  0.1105  0.1862  0.3703
   28MOL    O60 6054   0.546   1.602   6.112 -0.6449 -0.5911 -0.3088
   28MOL    C61 6055   0.639   1.512   5.923  0.3231 -0.3189  0.0935
   28MOL    H62 6056   0.687   1.963   6.046  1.3837  0.2563  3.5196
   28MOL    H63 6057   0.670   1.840   6.161  2.8002  0.2008  0.6381
   28MOL    H64 6058   0.697   1.756   5.872  1.5877 -0.1652  0.8020
   28MOL    H65 6059   0.665   1.555   5.826 -1.7441 -0.0718 -0.3722
   28MOL    H66 6060   0.734   1.474   5.961  1.3321  1.3712 -0.7048
   28MOL    H67 6061   0.582   1.423   5.899 -1.3989  0.5740  0.8089
   28MOL    C68 6062   0.503   1.856   5.925  0.2266 -0.0701 -0.3242
   28MOL    C69 6063   0.418   1.788   5.823 -0.1615  0.4604 -0.2242
   28MOL    C70 6064   0.474   1.814   5.681 -0.9116 -0.6942 -0.2572
   28MOL    O71 6065   0.488   1.930   5.639 -0.3683  0.0844 -0.0538
   28MOL    C72 6066   0.518   1.699   5.597 -0.6497  1.0557 -0.0378
   28MOL    H73 6067   0.443   1.866   6.016 -0.7249  2.3636 -1.1945
   28MOL    H74 6068   0.521   1.952   5.877  0.1446  0.2237  0.2185
   28MOL    H75 6069   0.416   1.680   5.833  4.7765  0.5291  3.4132
   28MOL    H76 6070   0.484   1.598   5.619  1.7158  0.3472  0.4893
   28MOL    H77 6071   0.471   1.719   5.500 -1.2913 -0.3414 -0.0163
   28MOL    H78 6072   0.622   1.698   5.564 -0.4718 -0.1135  0.5432
   28MOL    C79 6073   0.271   1.852   5.844 -0.3079 -0.3808 -0.0915
   28MOL    C80 6074   0.157   1.782   5.775 -0.2542 -1.1332 -0.3047
   28MOL    C81 6075   0.139   1.640   5.829  0.0084  0.3249 -0.2732
   28MOL    O82 6076   0.179   1.542   5.765 -0.3900 -0.2179  0.2655
   28MOL    C83 6077   0.075   1.624   5.966  0.2433  0.2731  0.7439
   28MOL    H84 6078   0.277   1.953   5.804  0.5202 -0.4932 -0.2564
   28MOL    H85 6079   0.254   1.858   5.952  0.6194 -3.7347  0.2812
   28MOL    H86 6080   0.071   1.840   5.807  0.9570  1.0018 -0.8464
   28MOL    H87 6081   0.060   1.724   6.007  1.8997  1.5279 -1.5423
   28MOL    H88 6082   0.148   1.575   6.030  0.6100 -0.5213 -0.2627
   28MOL    H89 6083   7.832   1.581   5.965  0.9191 -1.3373  0.8119
   28MOL    C90 6084   0.155   1.798   5.616 -0.3336  0.0382  0.0886
   28MOL    C91 6085   0.014   1.826   5.548  0.4108 -0.7701  0.1883
   28MOL    C92 6086   7.797   1.952   5.597  0.2505  0.5915  0.0812
   28MOL    O93 6087   7.831   2.063   5.557  0.4234 -0.1242 -0.4217
   28MOL    C94 6088   7.695   1.946   5.711 -0.5593 -0.3895  0.5905
   28MOL    H95 6089   0.226   1.876   5.587 -1.4757  0.6534 -1.1023
   28MOL    H96 6090   0.192   1.703   5.576 -0.9235 -0.7649  1.4196
   28MOL    H97 6091   7.797   1.747   5.557 -1.0869  0.2068 -2.8643
   28MOL    H98 6092   7.595   1.969   5.675 -0.2415 -1.4934 -1.0989
   28MOL    H99 6093   7.679   1.853   5.766 -1.5139  0.1336  1.1991
   28MOL   H100 6094   7.712   2.031   5.777 -0.3362  0.7404 -0.9056
   28MOL   C101 6095   0.040   1.836   5.393  0.2813  0.5667  0.8658
   28MOL   C102 6096   7.777   1.836   5.304  0.3125  0.8571  0.1688
   28MOL   C103 6097   7.676   1.718   5.319 -1.0397  0.2107  0.2738
   28MOL   O104 6098   7.706   1.602   5.337  0.0197  0.2983 -0.2926
   28MOL   C105 6099   7.531   1.759   5.295  0.0389  0.3179 -0.0927
   28MOL   H106 6100   0.096   1.928   5.380  1.2253  0.1415  1.9181
   28MOL   H107 6101   0.101   1.750   5.366 -0.6960 -0.1647  0.9184
   28MOL   H108 6102   7.722   1.923   5.339 -0.7592  0.3242 -0.1902
   28MOL   H109 6103   7.521   1.867   5.293 -0.9588  0.2103 -1.2045
   28MOL   H110 6104   7.491   1.715   5.204 -0.0616  0.5281 -0.1493
   28MOL   H111 6105   7.465   1.732   5.378 -0.8938  2.6864 -0.0370
   28MOL   C112 6106   7.820   1.853   5.154 -0.6320  0.5707 -0.3215
   28MOL   C113 6107   7.703   1.904   5.054 -0.1210  0.5556 -0.3523
   28MOL   C114 6108   7.765   1.906   4.911 -0.3378  0.5583 -0.1059
   28MOL   O115 6109   7.835   2.000   4.873 -0.2468 -0.4945 -0.0066
   28MOL   C116 6110   7.748   1.789   4.825  0.0657 -0.2768  0.1523
   28MOL   H117 6111   0.002   1.760   5.113 -0.9080  0.6541 -0.7803
   28MOL   H118 6112   0.045   1.924   5.147  0.3979 -0.8857 -4.4794
   28MOL   H119 6113   7.620   1.833   5.058 -0.6983  1.1275 -1.9486
   28MOL   H120 6114   7.647   1.756   4.844 -0.4858  2.2876  2.0069
   28MOL   H121 6115   7.759   1.831   4.725  1.3530 -0.7175  0.0913
   28MOL   H122 6116   7.819   1.709   4.847  0.6608  0.5199  1.1712
   28MOL   C123 6117   7.635   2.036   5.100 -0.3706 -0.0200  0.3270
   28MOL   C124 6118   7.505   2.088   5.021  0.5357 -0.3915  0.0455
   28MOL   C125 6119   7.515   2.234   4.983  0.2288 -0.3371  0.1949
   28MOL   O126 6120   7.443   2.326   5.035  0.0906  0.1925  0.4833
   28MOL   C127 6121   7.618   2.266   4.875 -0.4853  0.3846  0.5189
   28MOL   H128 6122   7.711   2.114   5.093  1.6038 -2.0002 -0.6744
   28MOL   H129 6123   7.616   2.042   5.207 -1.9360  0.6098  0.0278
   28MOL   H130 6124   7.505   2.038   4.924 -1.7621 -0.8490  0.2417
   28MOL   H131 6125   7.693   2.313   4.939 -1.4959  0.2366  1.8164
   28MOL   H132 6126   7.578   2.345   4.810 -3.0985 -1.9315 -0.7794
   28MOL   H133 6127   7.656   2.182   4.817  0.3724  2.8088 -2.5835
   28MOL   C134 6128   7.374   2.061   5.099 -0.2410  0.4125  0.3445
   28MOL   C135 6129   7.247   2.033   5.016  0.1984 -0.5528  0.3475
   28MOL   C136 6130   7.153   1.951   5.104 -0.4191 -0.1086  0.1267
   28MOL   O137 6131   7.106   2.001   5.212  0.1146  0.6777 -0.3248
   28MOL   C138 6132   7.112   1.812   5.054  0.4721 -0.1288 -0.5173
   28MOL   H139 6133   7.352   2.150   5.159  1.7976  0.3088  1.2824
   28MOL   H140 6134   7.390   1.992   5.181 -0.9899 -1.5616 -1.1438
   28MOL   H141 6135   7.281   1.964   4.938  0.5795 -0.0074  0.0228
   28MOL   H142 6136   7.077   1.814   4.951  0.0656  0.6761 -0.3627
   28MOL   H143 6137   7.032   1.771   5.116  0.0225  0.3321 -0.7974
   28MOL   H144 6138   7.191   1.736   5.060 -1.4920 -2.1466  0.4971
   28MOL   C145 6139   7.178   2.150   4.940  0.6082  1.3238 -0.0993
   28MOL   C146 6140   7.196   2.138   4.789 -0.7139 -0.5114  0.1123
   28MOL   C147 6141   7.078   2.054   4.734 -0.0679 -0.0691 -0.0145
   28MOL   O148 6142   7.093   1.931   4.716  0.7047  0.2646 -0.5112
   28MOL   C149 6143   6.938   2.121   4.705  0.0418 -0.5006  0.6871
   28MOL   H150 6144   7.210   2.245   4.981  0.2694  2.1176 -1.6242
   28MOL   H151 6145   7.072   2.146   4.962  0.4844  1.3735 -0.6696
   28MOL   H152 6146   7.292   2.094   4.763 -0.7318 -0.7289  0.4142
   28MOL   H153 6147   6.866   2.046   4.672  1.8074 -1.7805 -0.3320
   28MOL   H154 6148   6.895   2.156   4.799 -0.8760  0.6437 -0.1377
   28MOL   H155 6149   6.965   2.201   4.636  2.5242 -1.2947  0.6988
   28MOL   C156 6150   7.207   2.284   4.729 -0.5494  0.4731  0.0483
   28MOL   C157 6151   7.258   2.300   4.588  0.1063 -0.1894  0.7696
   28MOL   C158 6152   7.395   2.227   4.551 -0.0281  0.1884 -0.1878
   28MOL   O159 6153   7.475   2.181   4.625  0.0334  0.4786  0.1904
   28MOL   C160 6154   7.426   2.224   4.407  0.5368 -0.1075  0.2551
   28MOL   H161 6155   7.108   2.328   4.733 -0.1336  1.5060 -0.8916
   28MOL   H162 6156   7.261   2.352   4.794 -2.0506  1.3590  0.3819
   28MOL   H163 6157   7.193   2.241   4.524  1.2729 -0.5770 -0.0669
   28MOL   H164 6158   7.527   2.263   4.393  0.7754 -1.0689 -0.7157
   28MOL   H165 6159   7.373   2.280   4.329  0.2511  0.0446  0.5562
   28MOL   H166 6160   7.423   2.120   4.376 -1.4941  0.6790 -2.4285
   28MOL   C167 6161   7.264   2.446   4.543  0.6687  0.2321  0.0860
   28MOL   C168 6162   7.140   2.518   4.491 -0.8466 -0.4791  0.4625
   28MOL   C169 6163   7.068   2.443   4.384  0.0704  0.1200 -0.5439
   28MOL   O170 6164   7.123   2.366   4.311 -0.2755  0.2273  0.0711
   28MOL   C171 6165   6.922   2.482   4.365  0.1162  0.6577 -0.4037
   28MOL   H172 6166   7.275   2.499   4.638  0.2386  0.2278  0.1433
   28MOL   H173 6167   7.346   2.481   4.481  1.0296 -2.9183 -1.3175
   28MOL   H174 6168   7.071   2.522   4.575  1.5866 -1.7225  2.5960
   28MOL   H175 6169   6.859   2.478   4.455  2.0299 -0.1128  0.9340
   28MOL   H176 6170   6.866   2.408   4.308 -2.1759  1.4901  0.7001
   28MOL   H177 6171   6.917   2.579   4.317  0.8701 -0.0744 -1.9818
   28MOL   C178 6172   7.161   2.669   4.462  0.2349  0.3013 -0.1211
   28MOL   C179 6173   7.109   2.768   4.568 -0.4214 -0.2855 -0.2356
   28MOL   C180 6174   6.958   2.798   4.556  0.1584  0.6189  0.3452
   28MOL   O181 6175   6.875   2.743   4.630 -0.0548 -0.1902 -0.3593
   28MOL   C182 6176   6.907   2.892   4.443 -0.1052 -0.1660  0.2104
   28MOL   H183 6177   7.267   2.683   4.441 -0.1237  3.0108 -0.3163
   28MOL   H184 6178   7.113   2.698   4.369  0.1579 -1.0178 -0.5069
   28MOL   H185 6179   7.130   2.719   4.663  0.8966 -0.0584 -0.3932
   28MOL   H186 6180   6.964   2.866   4.355  0.6520  0.7351  0.4272
   28MOL   H187 6181   6.923   2.994   4.477  0.4876  0.0280 -0.6650
   28MOL   H188 6182   6.801   2.874   4.424  0.1663 -1.7785  0.1571
   28MOL   C189 6183   7.210   2.885   4.580  0.0560 -0.0299 -0.3690
   28MOL   C190 6184   7.169   3.001   4.671  0.1626  0.5437  0.4467
   28MOL   C191 6185   7.178   2.965   4.824  0.1579  0.1099 -0.0648
   28MOL   O192 6186   7.082   2.922   4.888  0.2892 -0.2681  1.0010
   28MOL   C193 6187   7.317   2.994   4.892  0.2002 -0.2738 -0.2959
   28MOL   H194 6188   7.309   2.844   4.598 -0.1396 -1.3337 -2.0778
   28MOL   H195 6189   7.217   2.926   4.479 -0.1898  0.8964 -0.0115
   28MOL   H196 6190   7.063   3.022   4.654 -0.0437 -0.5187  0.3739
   28MOL   H197 6191   7.337   3.099   4.913 -1.0253 -0.0676 -0.0706
   28MOL   H198 6192   7.328   2.936   4.984  1.8202 -1.5026 -1.2341
   28MOL   H199 6193   7.391   2.957   4.822 -1.3156 -0.7994 -1.6660
   28MOL   C200 6194   7.246   3.129   4.626  0.3800 -0.7291 -0.6925
   28MOL   C201 6195   7.216   3.267   4.697 -0.0558 -0.0419 -0.2947
   28MOL   C202 6196   7.068   3.297   4.679  0.1239 -0.3777 -0.6009
   28MOL   O203 6197   7.012   3.284   4.574 -0.0900  0.2041 -0.3906
   28MOL   C204 6198   7.001   3.341   4.800  0.1949 -0.0002 -0.1559
   28MOL   H205 6199   7.353   3.113   4.631  0.2711 -1.0934  0.5534
   28MOL   H206 6200   7.226   3.144   4.519 -0.2829 -1.6068 -0.6908
   28MOL   H207 6201   7.242   3.245   4.801  1.3005  0.6922 -0.4746
   28MOL   H208 6202   6.893   3.357   4.802  0.2450  0.2870  0.2945
   28MOL   H209 6203   7.030   3.295   4.894 -1.2502  0.2295  0.4155
   28MOL   H210 6204   7.028   3.445   4.816 -1.4436  0.2306  1.2825
   28MOL   C211 6205   7.308   3.370   4.641 -0.4113 -0.1117  0.3302
   28MOL   C212 6206   7.297   3.512   4.693  0.1134 -0.3353  0.4767
   28MOL   C213 6207   7.396   3.561   4.793  0.7289 -0.1129 -0.1993
   28MOL   O214 6208   7.502   3.502   4.821  0.0425 -0.1641  0.2252
   28MOL   C215 6209   7.367   3.689   4.870 -0.2215  0.1292  0.6886
   28MOL   H216 6210   7.406   3.336   4.673 -0.6473 -1.0451  0.0555
   28MOL   H217 6211   7.300   3.370   4.532 -3.8616 -0.2472  0.5239
   28MOL   H218 6212   7.195   3.537   4.721 -0.2878 -0.1897 -1.0383
   28MOL   H219 6213   7.263   3.693   4.901 -0.7288  2.2907 -1.1962
   28MOL   H220 6214   7.421   3.680   4.964 -2.0123  0.4447  1.7668
   28MOL   H221 6215   7.390   3.786   4.828 -0.4611 -0.0672  0.1024
   28MOL   H222 6216   7.314   3.578   4.607 -2.9621 -0.7105 -0.4989
   29MOL     C1 6217   0.184   7.310   7.206  0.2729  0.6856 -0.5223
   29MOL     C2 6218   0.158   7.161   7.171  0.0492  0.2850 -0.5567
   29MOL     C3 6219   0.127   7.075   7.289 -0.2880  0.3256 -0.4874
   29MOL     O4 6220   0.011   7.055   7.323  0.7616 -0.1182  0.1150
   29MOL     C5 6221   0.244   7.029   7.377  0.9185  0.0242  0.3575
   29MOL     H6 6222   0.179   7.378   7.121  0.4682 -0.6746 -1.6458
   29MOL     H7 6223   0.279   7.326   7.257  0.3952 -0.7282 -0.2958
   29MOL     H8 6224   0.246   7.114   7.127 -0.0906 -0.7944  0.3003
   29MOL     H9 6225   0.302   6.964   7.312 -2.7121 -1.3654 -1.6140
   29MOL    H10 6226   0.312   7.111   7.399  0.4290  0.3714  0.5988
   29MOL    H11 6227   0.213   6.973   7.465  0.8149 -0.8810 -0.2548
   29MOL    H12 6228   0.115   7.334   7.287 -0.0376 -1.2678 -0.1807
   29MOL    C13 6229   0.056   7.138   7.054  0.4322  0.4945 -0.5386
   29MOL    C14 6230   0.037   6.989   7.001  0.0796 -0.6589 -0.8045
   29MOL    C15 6231   0.176   6.936   6.956  0.1765  0.8126  0.0088
   29MOL    O16 6232   0.234   6.847   7.018 -0.1652 -0.3481  0.0477
   29MOL    C17 6233   0.234   7.004   6.837 -0.6035  0.4064 -0.3721
   29MOL    H18 6234   7.810   7.169   7.070  0.3208  1.0087 -2.1457
   29MOL    H19 6235   0.093   7.199   6.972  0.6321  1.0927 -0.0072
   29MOL    H20 6236   0.009   6.913   7.073  0.1253  2.1820  2.3197
   29MOL    H21 6237   0.340   6.981   6.830 -0.5811  0.3237  0.1767
   29MOL    H22 6238   0.182   6.963   6.750 -2.2843 -1.7316  1.5590
   29MOL    H23 6239   0.234   7.113   6.839 -1.6609  0.4035  2.6529
   29MOL    C24 6240   7.791   6.977   6.888 -0.0879 -0.3749 -0.1650
   29MOL    C25 6241   7.793   6.839   6.824  0.3672 -0.3664  1.0040
   29MOL    C26 6242   7.743   6.732   6.919  0.0141 -0.0218  1.0358
   29MOL    O27 6243   7.644   6.746   6.995 -0.6595  0.1139  0.2465
   29MOL    C28 6244   7.828   6.599   6.912  0.1977 -0.4427  0.2102
   29MOL    H29 6245   7.695   7.005   6.931 -1.4609 -2.8354 -1.4576
   29MOL    H30 6246   7.802   7.054   6.812 -2.7767  0.2866  0.0585
   29MOL    H31 6247   0.038   6.813   6.795  0.7421  1.9568  0.1535
   29MOL    H32 6248   7.787   6.529   6.984  1.0117 -1.7065 -0.5398
   29MOL    H33 6249   7.835   6.552   6.814 -0.4077  0.0015 -0.0541
   29MOL    H34 6250   0.072   6.624   6.941 -0.1451 -0.7496  1.7337
   29MOL    C35 6251   7.712   6.840   6.687 -0.0218 -0.3320 -0.3760
   29MOL    C36 6252   7.796   6.804   6.557 -0.4292  0.3443 -0.1044
   29MOL    C37 6253   7.815   6.654   6.541 -0.0730 -0.1038 -0.5251
   29MOL    O38 6254   7.746   6.576   6.604  0.2834 -0.0146  0.0269
   29MOL    C39 6255   0.060   6.605   6.442  0.5532 -0.0696 -1.0254
   29MOL    H40 6256   7.666   6.939   6.680  0.1441 -0.2551 -0.3706
   29MOL    H41 6257   7.624   6.776   6.689 -1.6066  1.8097  0.5480
   29MOL    H42 6258   0.041   6.841   6.564  0.1426 -0.9181 -1.3427
   29MOL    H43 6259   0.151   6.580   6.497  0.0113 -0.3737 -0.2529
   29MOL    H44 6260   0.088   6.680   6.368  1.4985  1.6673  1.0377
   29MOL    H45 6261   0.031   6.514   6.391 -0.2671  0.0516 -0.7907
   29MOL    C46 6262   7.735   6.866   6.425 -0.2539  0.2191 -0.3636
   29MOL    C47 6263   7.729   7.020   6.424  0.7587  0.5904 -0.1280
   29MOL    C48 6264   7.829   7.086   6.337 -0.4039 -0.4673 -0.2233
   29MOL    O49 6265   7.805   7.182   6.264 -0.1600 -0.4298 -0.2351
   29MOL    C50 6266   0.112   7.040   6.363 -0.3580  0.2307 -0.1043
   29MOL    H51 6267   7.631   6.835   6.428 -0.0631 -0.3771  0.0394
   29MOL    H52 6268   7.774   6.830   6.330 -0.6381  1.4650 -1.0098
   29MOL    H53 6269   7.761   7.039   6.526 -0.8868 -2.9126  1.1590
   29MOL    H54 6270   0.133   6.950   6.305  2.0866  0.9111 -0.3368
   29MOL    H55 6271   0.187   7.117   6.344  1.6652 -1.0736  2.1658
   29MOL    H56 6272   0.117   7.030   6.472  0.9717  2.6794  0.0800
   29MOL    C57 6273   7.585   7.075   6.408  0.0311  0.0550  0.1046
   29MOL    C58 6274   7.552   7.218   6.470 -0.9647 -0.5922  0.3966
   29MOL    C59 6275   7.411   7.262   6.423 -0.3274  0.6522  0.0638
   29MOL    O60 6276   7.334   7.196   6.357  0.0359  0.1807  0.6572
   29MOL    C61 6277   7.376   7.407   6.458  0.2322  0.3424 -0.8145
   29MOL    H62 6278   7.516   7.004   6.452  0.3313  0.3751  1.0986
   29MOL    H63 6279   7.566   7.083   6.301 -0.4093 -0.0835  0.1733
   29MOL    H64 6280   7.619   7.296   6.433 -0.5446 -0.7873  0.7473
   29MOL    H65 6281   7.466   7.464   6.433  0.5983 -0.7079 -1.9363
   29MOL    H66 6282   7.294   7.444   6.397 -0.4944  2.4255  1.3476
   29MOL    H67 6283   7.345   7.430   6.560  1.9688  2.1216 -0.6586
   29MOL    C68 6284   7.557   7.221   6.623  0.5276 -0.1200 -0.1536
   29MOL    C69 6285   7.627   7.348   6.686 -0.3561  0.1523 -0.1413
   29MOL    C70 6286   7.765   7.365   6.630 -0.3611 -0.4864  0.6761
   29MOL    O71 6287   7.844   7.269   6.625 -0.3899  0.0714 -0.3977
   29MOL    C72 6288   7.808   7.502   6.579  0.4039 -0.2475 -0.1900
   29MOL    H73 6289   7.456   7.215   6.662  0.3655 -0.6120 -0.6371
   29MOL    H74 6290   7.604   7.127   6.654  0.5883 -0.5834 -1.6125
   29MOL    H75 6291   7.566   7.431   6.652 -0.6019  0.3610  0.8107
   29MOL    H76 6292   7.855   7.556   6.661 -1.5917  1.5074 -0.1530
   29MOL    H77 6293   0.016   7.492   6.493  0.9493  1.4854 -0.0008
   29MOL    H78 6294   7.724   7.553   6.530 -1.4861 -0.3299  2.8184
   29MOL    C79 6295   7.614   7.352   6.839  0.3244  0.0084  0.1034
   29MOL    C80 6296   7.678   7.483   6.900  0.4976 -0.0847  0.1090
   29MOL    C81 6297   7.670   7.472   7.054  0.3709 -0.2474 -0.3451
   29MOL    O82 6298   7.772   7.445   7.115 -0.2305  0.6736  0.2503
   29MOL    C83 6299   7.544   7.529   7.128 -0.4407 -0.5600 -0.6020
   29MOL    H84 6300   7.642   7.256   6.883 -3.0972 -0.6881  0.9523
   29MOL    H85 6301   7.505   7.350   6.845  0.3539 -0.1249  0.6612
   29MOL    H86 6302   7.783   7.467   6.874 -0.2073 -1.6003 -1.9990
   29MOL    H87 6303   7.449   7.525   7.076 -1.4053  0.0209  1.0951
   29MOL    H88 6304   7.556   7.637   7.137 -0.5560 -0.5768 -0.2484
   29MOL    H89 6305   7.540   7.478   7.225 -0.6115 -0.9254 -0.8001
   29MOL    C90 6306   7.618   7.622   6.846 -0.9221  0.9441 -0.6271
   29MOL    C91 6307   7.688   7.745   6.913 -0.3066 -0.0929 -0.0556
   29MOL    C92 6308   7.837   7.777   6.889 -0.0355 -0.4019 -0.3589
   29MOL    O93 6309   0.021   7.826   6.787 -0.3823  0.3945 -0.1828
   29MOL    C94 6310   0.078   7.733   6.998 -0.1889 -0.7073  0.0781
   29MOL    H95 6311   7.620   7.634   6.737  0.5405  2.4074 -0.4469
   29MOL    H96 6312   7.512   7.626   6.872 -0.7962  2.2131 -0.3088
   29MOL    H97 6313   7.673   7.737   7.021 -2.5785 -0.6467 -0.3750
   29MOL    H98 6314   0.034   7.762   7.093  2.7178  1.2150  0.9152
   29MOL    H99 6315   0.102   7.627   6.987 -2.0204 -1.0219 -1.0801
   29MOL   H100 6316   0.169   7.792   6.987 -0.0144 -0.7493  1.2467
   29MOL   C101 6317   7.611   0.019   6.867 -0.2829  0.4246 -0.4516
   29MOL   C102 6318   7.622   0.143   6.956  0.0745 -0.5049 -0.0656
   29MOL   C103 6319   7.566   0.126   7.100 -0.2403  0.1529 -0.4736
   29MOL   O104 6320   7.474   0.051   7.127 -0.0261  0.0462 -0.0958
   29MOL   C105 6321   7.622   0.214   7.211 -0.2213 -0.2379 -0.5569
   29MOL   H106 6322   7.601   0.038   6.760  1.8489  1.4137 -0.5127
   29MOL   H107 6323   7.508   7.851   6.890 -0.0690  0.2436  0.3249
   29MOL   H108 6324   7.726   0.171   6.975  0.1300 -0.4694 -0.4146
   29MOL   H109 6325   7.553   0.298   7.220 -0.8490 -0.6179 -1.7773
   29MOL   H110 6326   7.632   0.158   7.304  1.5540  1.4815  0.3275
   29MOL   H111 6327   7.724   0.250   7.199 -0.5674  0.8510 -0.3346
   29MOL   C112 6328   7.551   0.263   6.890  0.0593  0.1190 -0.4487
   29MOL   C113 6329   7.638   0.323   6.774  0.0187 -0.3775  0.0897
   29MOL   C114 6330   7.772   0.375   6.817  0.0827 -0.8656  0.0088
   29MOL   O115 6331   7.781   0.437   6.921  0.3245  0.9773  0.2927
   29MOL   C116 6332   0.037   0.320   6.751  0.0802  0.2784  0.1457
   29MOL   H117 6333   7.538   0.343   6.963  1.2326 -1.0227  1.0435
   29MOL   H118 6334   7.454   0.238   6.848 -0.3835 -1.6644  1.5948
   29MOL   H119 6335   7.643   0.256   6.688  2.1035 -0.6200  0.3680
   29MOL   H120 6336   0.113   0.398   6.740  0.5557 -0.1499  0.3351
   29MOL   H121 6337   0.064   0.240   6.820  0.4509 -2.0090 -2.5423
   29MOL   H122 6338   0.015   0.271   6.656  1.6873 -0.5616  0.1836
   29MOL   C123 6339   7.567   0.449   6.711 -0.1889 -0.0617  0.4562
   29MOL   C124 6340   7.451   0.434   6.618 -0.4753  0.7856 -0.1809
   29MOL   C125 6341   7.490   0.368   6.488  0.4941  0.7072 -0.3260
   29MOL   O126 6342   7.607   0.379   6.451  0.3374  0.6542  0.5936
   29MOL   C127 6343   7.390   0.277   6.414  0.4386  0.5464  0.5712
   29MOL   H128 6344   7.642   0.514   6.665 -0.8901 -0.2038 -0.9292
   29MOL   H129 6345   7.533   0.511   6.794 -0.0022  0.6934 -0.0182
   29MOL   H130 6346   7.376   0.373   6.669 -1.5085  3.2830  1.3811
   29MOL   H131 6347   7.333   0.228   6.494 -0.0804 -0.5014 -0.4327
   29MOL   H132 6348   7.451   0.200   6.368 -0.1808 -0.5836  1.5892
   29MOL   H133 6349   7.334   0.341   6.346  0.2988  1.5714  1.6375
   29MOL   C134 6350   7.380   0.575   6.589  0.0354  0.0532 -0.0367
   29MOL   C135 6351   7.237   0.574   6.535 -1.1392 -0.5343  0.0817
   29MOL   C136 6352   7.141   0.505   6.630 -0.8650  0.0669 -0.1734
   29MOL   O137 6353   7.120   0.557   6.744 -0.1307 -0.0560 -0.1365
   29MOL   C138 6354   7.070   0.377   6.596 -0.5844  0.1572 -0.1106
   29MOL   H139 6355   7.440   0.638   6.524 -0.5997  0.0704 -0.6109
   29MOL   H140 6356   7.364   0.628   6.683 -0.1769  2.1806 -1.2417
   29MOL   H141 6357   7.251   0.500   6.456  1.1882  0.9154 -0.9040
   29MOL   H142 6358   7.067   0.348   6.491 -1.9382 -0.8284  0.1917
   29MOL   H143 6359   6.967   0.399   6.625  0.2196  4.1900 -0.0109
   29MOL   H144 6360   7.109   0.296   6.657 -1.5549 -1.1971 -1.2655
   29MOL   C145 6361   7.193   0.718   6.496 -0.8458 -0.1213 -0.6361
   29MOL   C146 6362   7.058   0.737   6.418 -0.1096 -0.2759 -0.0989
   29MOL   C147 6363   6.986   0.871   6.438  0.0692  0.3179  0.0042
   29MOL   O148 6364   6.984   0.958   6.355  0.2380 -0.4550  0.5842
   29MOL   C149 6365   6.917   0.894   6.572  0.1599  0.5504 -0.7432
   29MOL   H150 6366   7.279   0.746   6.435  0.6656  2.7001  2.5984
   29MOL   H151 6367   7.189   0.780   6.585 -0.2753  0.4229 -0.9804
   29MOL   H152 6368   6.996   0.656   6.457  0.1212  0.1257  1.1186
   29MOL   H153 6369   6.832   0.830   6.593  1.0990 -0.2554  0.6843
   29MOL   H154 6370   6.984   0.891   6.658  1.9657 -0.9882 -2.1767
   29MOL   H155 6371   6.888   0.999   6.575 -1.0646  0.2139 -0.6791
   29MOL   C156 6372   7.074   0.697   6.267 -0.3263 -0.1472  0.1811
   29MOL   C157 6373   6.946   0.680   6.184  0.7021  0.4857  0.4723
   29MOL   C158 6374   6.873   0.550   6.206 -0.5501  0.0616  0.1911
   29MOL   O159 6375   6.921   0.459   6.274  0.0700 -0.0284 -0.0646
   29MOL   C160 6376   6.736   0.532   6.136  0.1955 -0.2273 -0.4893
   29MOL   H161 6377   7.144   0.768   6.223 -2.2944  1.4884 -0.3957
   29MOL   H162 6378   7.131   0.604   6.272 -0.7385 -0.5516 -2.0920
   29MOL   H163 6379   6.878   0.755   6.226  0.6095  0.7193 -0.0937
   29MOL   H164 6380   6.754   0.488   6.038 -0.5584 -0.4183 -0.5417
   29MOL   H165 6381   6.683   0.627   6.135  0.0899 -0.2751  0.4172
   29MOL   H166 6382   6.677   0.455   6.185 -0.0432  0.0269 -0.3752
   29MOL   C167 6383   6.957   0.711   6.027  0.1512 -0.3240  0.1108
   29MOL   C168 6384   7.094   0.648   5.961  0.5409 -0.0694  0.5128
   29MOL   C169 6385   7.178   0.770   5.917  0.6812 -0.2826 -0.1937
   29MOL   O170 6386   7.126   0.868   5.860 -0.0557  0.2944  0.1271
   29MOL   C171 6387   7.330   0.753   5.925  0.1186 -0.1512 -0.0594
   29MOL   H172 6388   6.878   0.670   5.963  3.5600 -3.0673 -2.5706
   29MOL   H173 6389   6.936   0.814   6.001 -0.0737 -0.5331 -0.5501
   29MOL   H174 6390   7.148   0.596   6.040 -0.8288 -2.1697  0.1123
   29MOL   H175 6391   7.371   0.853   5.911 -1.1901  0.7720  2.3771
   29MOL   H176 6392   7.365   0.689   5.844  1.6310 -0.0289  0.4702
   29MOL   H177 6393   7.364   0.727   6.026 -1.6344 -2.0593  0.0772
   29MOL   C178 6394   7.063   0.555   5.840  0.2987  0.3019 -0.1602
   29MOL   C179 6395   7.168   0.445   5.803 -0.4219  0.1741  0.5951
   29MOL   C180 6396   7.123   0.372   5.671 -0.3837 -1.0603 -0.3116
   29MOL   O181 6397   7.015   0.317   5.654  0.6001  0.1900 -0.1487
   29MOL   C182 6398   7.230   0.357   5.564 -0.3821 -0.3777 -0.2229
   29MOL   H183 6399   6.962   0.514   5.853  0.5414  0.4337  2.3039
   29MOL   H184 6400   7.047   0.616   5.751  1.1106 -0.4769 -0.8502
   29MOL   H185 6401   7.264   0.496   5.791 -0.5118  0.1577 -0.2207
   29MOL   H186 6402   7.194   0.362   5.462  0.5085  0.9622 -0.4718
   29MOL   H187 6403   7.289   0.266   5.576 -1.9160 -0.8835  4.5522
   29MOL   H188 6404   7.291   0.447   5.572  0.6596 -1.0856 -0.0309
   29MOL   C189 6405   7.196   0.347   5.916 -0.0333 -0.3623 -0.4441
   29MOL   C190 6406   7.305   0.235   5.880  0.0605 -0.4125 -0.6032
   29MOL   C191 6407   7.439   0.292   5.836  0.5702 -0.7086 -0.3811
   29MOL   O192 6408   7.484   0.400   5.878 -0.1432 -0.0256 -0.0026
   29MOL   C193 6409   7.512   0.212   5.732  0.1635 -0.7855  0.4558
   29MOL   H194 6410   7.233   0.415   5.993  2.3675 -2.0420 -0.0909
   29MOL   H195 6411   7.102   0.303   5.949  0.5521 -0.3195  1.3078
   29MOL   H196 6412   7.267   0.185   5.791  2.3785 -0.5940 -1.5058
   29MOL   H197 6413   7.614   0.190   5.765 -0.0646 -0.2715  1.5140
   29MOL   H198 6414   7.454   0.121   5.716  2.4940 -2.0303 -1.2114
   29MOL   H199 6415   7.513   0.269   5.639  2.6092  0.8096  1.4073
   29MOL   C200 6416   7.324   0.144   6.000  0.2437  0.5169 -0.1764
   29MOL   C201 6417   7.391   0.004   5.981  0.1415 -0.3498  0.0196
   29MOL   C202 6418   7.301   7.777   5.895  0.1578 -0.1974 -0.4322
   29MOL   O203 6419   7.310   7.779   5.777 -0.9010  0.0345  0.0685
   29MOL   C204 6420   7.198   7.686   5.960  0.2635  0.3541  0.3898
   29MOL   H205 6421   7.392   0.204   6.060  0.0272 -0.4640  1.0720
   29MOL   H206 6422   7.225   0.126   6.041  0.0631 -0.1329 -0.8909
   29MOL   H207 6423   7.482   0.010   5.922  0.5629  0.9105  0.7795
   29MOL   H208 6424   7.135   7.741   6.030 -0.7515 -0.7623  0.3658
   29MOL   H209 6425   7.125   7.655   5.885 -0.9635 -0.0086  1.7145
   29MOL   H210 6426   7.236   7.591   5.997  0.0421  0.0606 -0.1411
   29MOL   C211 6427   7.423   7.804   6.124  0.5991  0.5256  0.1784
   29MOL   C212 6428   7.549   0.014   6.184 -0.1082  0.2910 -0.2321
   29MOL   C213 6429   7.576   7.817   6.322  0.0305 -0.6063 -0.0594
   29MOL   O214 6430   7.552   7.702   6.358  0.2575  0.2188 -0.1763
   29MOL   C215 6431   7.659   0.041   6.416 -0.7398 -0.5371  0.9131
   29MOL   H216 6432   7.333   7.816   6.185 -0.6714 -0.3990 -1.4799
   29MOL   H217 6433   7.445   7.697   6.120 -0.0460  0.4155 -0.4094
   29MOL   H218 6434   7.550   0.122   6.173 -0.4112  0.2543 -0.6177
   29MOL   H219 6435   7.741   7.830   6.439 -0.5101 -0.7867 -0.5898
   29MOL   H220 6436   7.699   0.133   6.374  0.3936 -1.0398  0.8745
   29MOL   H221 6437   7.605   0.058   6.509 -0.8122  0.1018  0.7517
   29MOL   H222 6438   7.632   7.828   6.130  1.6665  1.6576  1.3164
   30MOL     C1 6439   3.441   3.939   1.961  0.1861 -0.4777  0.5178
   30MOL     C2 6440   3.449   3.964   1.810  0.2651 -0.5675  0.7075
   30MOL     C3 6441   3.564   4.055   1.779  0.9172  0.2794 -0.1301
   30MOL     O4 6442   3.678   4.023   1.752  0.0974 -0.3452  0.5747
   30MOL     C5 6443   3.523   4.199   1.785  0.0229  0.1093  0.4491
   30MOL     H6 6444   3.536   3.925   2.012  0.9832 -2.8899 -1.5172
   30MOL     H7 6445   3.380   3.854   1.991 -0.1686  0.3307  2.1643
   30MOL     H8 6446   3.348   3.999   1.784 -1.8986 -3.2488  4.9123
   30MOL     H9 6447   3.414   4.202   1.779  0.0240 -1.9228 -1.3865
   30MOL    H10 6448   3.556   4.247   1.877 -1.1182 -0.2476  1.0573
   30MOL    H11 6449   3.558   4.247   1.693 -3.3019  1.9138  0.0306
   30MOL    H12 6450   3.380   4.014   2.012 -0.7286 -1.1936  0.4871
   30MOL    C13 6451   3.464   3.828   1.735  0.1208  0.3764 -0.5128
   30MOL    C14 6452   3.446   3.845   1.582 -0.1160  0.3667 -0.6061
   30MOL    C15 6453   3.297   3.862   1.549  0.3705 -0.1285 -0.5386
   30MOL    O16 6454   3.228   3.757   1.547 -0.1219  0.5869 -0.5947
   30MOL    C17 6455   3.240   4.002   1.519  0.3594  0.6000  0.0335
   30MOL    H18 6456   3.564   3.787   1.749  0.2855  0.9348 -0.0705
   30MOL    H19 6457   3.390   3.758   1.773  0.7908  0.2664  0.5944
   30MOL    H20 6458   3.503   3.934   1.557 -1.2814  1.4388  0.4342
   30MOL    H21 6459   3.136   4.001   1.551  0.5783  1.3765  0.7766
   30MOL    H22 6460   3.296   4.080   1.569  1.1132 -0.7326  1.3029
   30MOL    H23 6461   3.240   4.023   1.412  1.2221  0.1341 -0.0651
   30MOL    C24 6462   3.519   3.724   1.508  0.1067 -0.1257  0.5287
   30MOL    C25 6463   3.516   3.726   1.355 -0.3594 -0.2881  0.1575
   30MOL    C26 6464   3.590   3.846   1.291 -0.0098  0.2550  0.1843
   30MOL    O27 6465   3.538   3.930   1.218 -0.2772  0.2086  0.2577
   30MOL    C28 6466   3.743   3.863   1.316 -0.2920  0.1254  0.4510
   30MOL    H29 6467   3.620   3.724   1.547  0.3401 -0.4498 -0.0801
   30MOL    H30 6468   3.478   3.633   1.551 -0.7301 -0.0058  0.0084
   30MOL    H31 6469   3.417   3.746   1.315 -0.3591  0.2248  0.4106
   30MOL    H32 6470   3.807   3.780   1.284 -0.8866 -1.0811  2.2778
   30MOL    H33 6471   3.781   3.952   1.267  0.8631  0.7421  2.4041
   30MOL    H34 6472   3.771   3.874   1.421  0.9351  2.5467 -0.0896
   30MOL    C35 6473   3.571   3.592   1.302 -0.2016  0.0112  0.2113
   30MOL    C36 6474   3.490   3.465   1.328 -0.3192  0.3592 -0.4651
   30MOL    C37 6475   3.353   3.478   1.268  0.7024 -0.6331 -0.3098
   30MOL    O38 6476   3.248   3.476   1.337 -0.6279 -0.0606  0.1114
   30MOL    C39 6477   3.335   3.476   1.122 -0.1275 -0.1188  0.3539
   30MOL    H40 6478   3.676   3.585   1.330 -0.3260  0.3056  0.7687
   30MOL    H41 6479   3.571   3.598   1.193 -0.2218 -2.2126  0.0632
   30MOL    H42 6480   3.479   3.451   1.436 -1.9660 -2.4872 -0.9649
   30MOL    H43 6481   3.426   3.477   1.063  0.2271 -0.2001  0.8923
   30MOL    H44 6482   3.275   3.561   1.088 -3.0798 -1.6082  1.6636
   30MOL    H45 6483   3.285   3.383   1.095  0.0636  0.0336 -0.5301
   30MOL    C46 6484   3.563   3.338   1.266 -0.0117 -0.4705 -0.9085
   30MOL    C47 6485   3.562   3.212   1.354  0.2775 -0.5858  0.8524
   30MOL    C48 6486   3.551   3.091   1.259 -0.0514 -0.2776 -0.3797
   30MOL    O49 6487   3.634   3.068   1.175 -0.2136  0.3539 -0.0992
   30MOL    C50 6488   3.430   2.997   1.268 -0.3997 -0.0585 -0.1918
   30MOL    H51 6489   3.665   3.359   1.234  0.4217 -0.6481  0.3350
   30MOL    H52 6490   3.529   3.314   1.165 -0.0938 -2.1668 -0.4857
   30MOL    H53 6491   3.473   3.202   1.416 -0.2135 -1.7758 -0.0370
   30MOL    H54 6492   3.346   3.035   1.211 -0.6139  1.7121  1.2546
   30MOL    H55 6493   3.459   2.896   1.239  3.3990  0.2961  2.0174
   30MOL    H56 6494   3.395   3.000   1.371  0.6410 -1.8387  0.2454
   30MOL    C57 6495   3.696   3.206   1.441 -0.2390  0.7524  0.4843
   30MOL    C58 6496   3.699   3.123   1.573  0.2581  0.2787 -0.8598
   30MOL    C59 6497   3.592   3.172   1.665  0.2455 -0.3656  0.7915
   30MOL    O60 6498   3.479   3.129   1.659  0.4626  0.3544  0.0877
   30MOL    C61 6499   3.624   3.297   1.748  0.2799  0.0657 -0.2054
   30MOL    H62 6500   3.720   3.307   1.475  0.6345  0.1903  1.5539
   30MOL    H63 6501   3.779   3.193   1.372 -0.7229 -0.4484  0.1305
   30MOL    H64 6502   3.796   3.137   1.619 -0.1215  0.2349 -0.0439
   30MOL    H65 6503   3.552   3.378   1.736 -0.2067 -0.3890 -0.4185
   30MOL    H66 6504   3.618   3.276   1.855 -1.1020 -1.4310 -0.5421
   30MOL    H67 6505   3.719   3.340   1.717 -0.5146 -0.0869 -3.0712
   30MOL    C68 6506   3.678   2.973   1.541  0.1116 -0.0514 -1.1150
   30MOL    C69 6507   3.707   2.879   1.662  0.0823  0.0262 -0.6879
   30MOL    C70 6508   3.854   2.898   1.711  0.3799  0.5409  0.4757
   30MOL    O71 6509   3.940   2.828   1.656  0.2410  0.1795 -0.0741
   30MOL    C72 6510   3.894   2.984   1.826  0.4785  0.3073  0.3208
   30MOL    H73 6511   3.571   2.961   1.528 -0.6251  0.3526  3.6500
   30MOL    H74 6512   3.724   2.943   1.447  0.9221  0.2718 -0.8236
   30MOL    H75 6513   3.649   2.914   1.747 -0.7378  1.2935 -1.7320
   30MOL    H76 6514   3.936   3.077   1.786 -0.4027 -0.8346 -3.4444
   30MOL    H77 6515   3.806   3.009   1.885  0.4774  1.0224  0.0359
   30MOL    H78 6516   3.977   2.931   1.872 -0.4043 -2.7341 -1.4935
   30MOL    C79 6517   3.675   2.726   1.640  0.0695  0.3377  0.1209
   30MOL    C80 6518   3.665   2.636   1.763 -0.0678 -0.3448  0.8249
   30MOL    C81 6519   3.733   2.500   1.731 -0.5489 -0.1274  0.0795
   30MOL    O82 6520   3.678   2.417   1.655  0.4251 -0.1982 -0.2907
   30MOL    C83 6521   3.869   2.466   1.798  0.6328  0.3863 -0.3520
   30MOL    H84 6522   3.736   2.679   1.564 -2.1074 -1.7559 -0.4105
   30MOL    H85 6523   3.578   2.729   1.590  0.5935 -0.6219 -0.9698
   30MOL    H86 6524   3.722   2.678   1.846 -0.3620 -0.6862  1.2062
   30MOL    H87 6525   3.933   2.487   1.713 -1.0844  0.1105 -1.7243
   30MOL    H88 6526   3.879   2.362   1.829 -0.1066  0.2326 -0.6333
   30MOL    H89 6527   3.880   2.537   1.881  0.0957  1.7860 -1.4511
   30MOL    C90 6528   3.511   2.624   1.795 -0.7801  0.3584 -0.4257
   30MOL    C91 6529   3.492   2.546   1.934 -0.1295 -0.0750 -0.0406
   30MOL    C92 6530   3.567   2.621   2.052  0.0008  0.1565 -0.6653
   30MOL    O93 6531   3.538   2.733   2.090  0.4989  0.0585  0.2176
   30MOL    C94 6532   3.668   2.543   2.135  0.7599 -0.5217  0.3267
   30MOL    H95 6533   3.490   2.730   1.812  1.1842  0.3029  2.8753
   30MOL    H96 6534   3.445   2.596   1.714 -1.7332  1.4325 -0.0306
   30MOL    H97 6535   3.536   2.448   1.918  2.1965  1.0114 -0.4801
   30MOL    H98 6536   3.620   2.474   2.205  0.4237 -2.2805 -1.5801
   30MOL    H99 6537   3.729   2.487   2.064 -0.5578 -2.0905  0.4082
   30MOL   H100 6538   3.732   2.612   2.190 -2.1085  1.8625  0.7806
   30MOL   C101 6539   3.344   2.539   1.980  0.2467  0.0890  0.2522
   30MOL   C102 6540   3.299   2.446   2.091  0.1885  0.5346 -0.1020
   30MOL   C103 6541   3.343   2.304   2.081  0.1953 -0.2836  0.0549
   30MOL   O104 6542   3.408   2.252   2.167  0.0722  0.1085 -0.9107
   30MOL   C105 6543   3.310   2.231   1.959 -0.0642  0.3488  0.3303
   30MOL   H106 6544   3.315   2.639   2.012 -0.7468  0.4159 -1.5953
   30MOL   H107 6545   3.287   2.507   1.892 -1.4829  0.5884  1.1616
   30MOL   H108 6546   3.355   2.480   2.179 -1.7536 -1.6170  2.0054
   30MOL   H109 6547   3.245   2.148   1.986 -0.2882  0.6630  0.7622
   30MOL   H110 6548   3.256   2.281   1.878  1.4168  2.5977  0.6855
   30MOL   H111 6549   3.403   2.186   1.924 -1.8681 -2.1870 -1.4002
   30MOL   C112 6550   3.148   2.454   2.129 -0.2418 -0.6295  1.0976
   30MOL   C113 6551   3.117   2.595   2.195  0.2750 -0.6184 -0.3944
   30MOL   C114 6552   3.169   2.595   2.341  0.3635  0.1429 -0.8063
   30MOL   O115 6553   3.158   2.497   2.416  0.5938  0.6130  0.1280
   30MOL   C116 6554   3.220   2.730   2.393 -0.2260 -0.6917 -0.6305
   30MOL   H117 6555   3.116   2.371   2.192 -0.0776 -0.1804  1.7832
   30MOL   H118 6556   3.098   2.440   2.033  0.8481 -0.3416  0.4748
   30MOL   H119 6557   3.177   2.671   2.145 -0.2708  1.2242  1.6992
   30MOL   H120 6558   3.322   2.754   2.361  0.1218 -0.2949  0.7606
   30MOL   H121 6559   3.161   2.812   2.352 -0.2486  1.1227  2.8865
   30MOL   H122 6560   3.219   2.739   2.502  3.0703  1.7385 -0.7087
   30MOL   C123 6561   2.970   2.644   2.176 -0.3961 -0.7646 -0.0384
   30MOL   C124 6562   2.853   2.592   2.265  0.1810  0.5761 -0.3464
   30MOL   C125 6563   2.810   2.451   2.225  0.0604 -0.7631  0.2396
   30MOL   O126 6564   2.758   2.435   2.110 -0.1944  0.0260  0.0805
   30MOL   C127 6565   2.849   2.332   2.313  0.0120 -0.6568 -0.5443
   30MOL   H128 6566   2.946   2.615   2.074 -2.1258 -1.4229  0.5353
   30MOL   H129 6567   2.981   2.753   2.178 -1.0218 -0.7067  0.8713
   30MOL   H130 6568   2.874   2.586   2.371 -2.0642 -1.7526  0.0109
   30MOL   H131 6569   2.957   2.326   2.326  0.2715 -1.0496 -2.6166
   30MOL   H132 6570   2.820   2.247   2.251 -0.6761 -0.5514 -0.3757
   30MOL   H133 6571   2.804   2.335   2.412  0.4870  0.6949 -0.3676
   30MOL   C134 6572   2.726   2.682   2.243  0.6628 -0.3511  0.1090
   30MOL   C135 6573   2.742   2.817   2.308  0.3412  0.0151  0.2038
   30MOL   C136 6574   2.626   2.904   2.257  0.5235  0.6470  0.1727
   30MOL   O137 6575   2.519   2.909   2.320 -0.1888 -0.0333  0.3115
   30MOL   C138 6576   2.641   2.970   2.120  0.0783  0.0498 -0.1592
   30MOL   H139 6577   2.632   2.643   2.282 -1.2068  3.5512 -0.1494
   30MOL   H140 6578   2.715   2.696   2.135  0.4085 -0.7068  0.0878
   30MOL   H141 6579   2.837   2.859   2.274 -0.4584  1.2037 -0.6317
   30MOL   H142 6580   2.732   3.020   2.088 -0.3635 -0.1146 -1.6862
   30MOL   H143 6581   2.566   3.049   2.118 -1.7988 -1.7000 -0.7770
   30MOL   H144 6582   2.633   2.900   2.037 -0.9193  0.0811 -0.1003
   30MOL   C145 6583   2.735   2.803   2.459 -0.0152  0.4587 -0.3149
   30MOL   C146 6584   2.772   2.925   2.541  0.4607  0.3440  0.5469
   30MOL   C147 6585   2.724   2.908   2.683  0.0502 -0.4489  0.3266
   30MOL   O148 6586   2.797   2.850   2.762 -0.5840  0.1175  0.2027
   30MOL   C149 6587   2.592   2.967   2.728 -0.1489 -0.7441 -0.1786
   30MOL   H150 6588   2.803   2.733   2.508 -0.8370  0.0614  0.2679
   30MOL   H151 6589   2.638   2.766   2.491 -0.4278  0.2774 -1.7506
   30MOL   H152 6590   2.712   3.003   2.494 -0.0506 -0.5938 -0.3633
   30MOL   H153 6591   2.550   2.931   2.821  2.6715 -1.0248  1.0185
   30MOL   H154 6592   2.620   3.072   2.744 -0.7532 -0.7802  1.0958
   30MOL   H155 6593   2.521   2.971   2.645 -0.2850  0.2593 -0.0230
   30MOL   C156 6594   2.915   2.974   2.524 -0.2494  0.3285 -1.1776
   30MOL   C157 6595   2.955   3.117   2.584 -0.1033 -0.3223  0.3156
   30MOL   C158 6596   2.883   3.232   2.515 -0.0672  0.0762  0.1568
   30MOL   O159 6597   2.859   3.221   2.394  0.2469 -0.0345  0.2237
   30MOL   C160 6598   2.873   3.363   2.594 -0.2481 -0.0447  0.1541
   30MOL   H161 6599   2.984   2.902   2.568 -0.0392 -0.4210 -2.7250
   30MOL   H162 6600   2.951   2.973   2.421  1.2247 -0.9268 -0.6643
   30MOL   H163 6601   2.899   3.111   2.678 -0.1013 -1.2908  0.2591
   30MOL   H164 6602   2.815   3.355   2.686  1.0563  0.9556  1.0731
   30MOL   H165 6603   2.834   3.447   2.537  0.5665  2.0360  2.5634
   30MOL   H166 6604   2.969   3.383   2.641  0.5496 -1.0219 -1.0269
   30MOL   C167 6605   3.108   3.142   2.611  0.1389 -0.9124  0.6228
   30MOL   C168 6606   3.198   3.153   2.479  0.0139  0.7570 -0.7278
   30MOL   C169 6607   3.339   3.079   2.489  0.2381  0.8544  0.6139
   30MOL   O170 6608   3.389   3.011   2.397  0.2954 -0.1412  0.1336
   30MOL   C171 6609   3.425   3.096   2.608  0.1688  0.0696 -0.7649
   30MOL   H172 6610   3.117   3.240   2.657 -2.8938  0.3498 -1.3294
   30MOL   H173 6611   3.143   3.072   2.688  1.1544  0.1508  1.1363
   30MOL   H174 6612   3.145   3.102   2.398  1.4003  1.5533 -2.1550
   30MOL   H175 6613   3.409   3.191   2.658  1.5149 -1.1372  2.0749
   30MOL   H176 6614   3.528   3.085   2.571  0.3009  0.4754 -0.5135
   30MOL   H177 6615   3.427   3.026   2.692 -0.0082 -0.6741 -1.3733
   30MOL   C178 6616   3.225   3.294   2.442 -0.7002 -0.7751 -0.1390
   30MOL   C179 6617   3.264   3.314   2.296 -0.3695 -0.0214  0.2968
   30MOL   C180 6618   3.331   3.451   2.275  0.0209 -0.4069  0.6442
   30MOL   O181 6619   3.291   3.555   2.330 -0.1590 -0.1470  0.2769
   30MOL   C182 6620   3.441   3.455   2.173 -0.0539  0.2412  0.1726
   30MOL   H183 6621   3.148   3.367   2.468  1.4705  1.4669  0.2474
   30MOL   H184 6622   3.301   3.335   2.509 -1.1947  1.0778 -0.6676
   30MOL   H185 6623   3.337   3.238   2.270 -0.4489  0.0666 -0.2015
   30MOL   H186 6624   3.435   3.359   2.121 -0.6285  0.0973  0.4963
   30MOL   H187 6625   3.539   3.478   2.215  0.7095  0.7388 -1.8109
   30MOL   H188 6626   3.422   3.536   2.104 -0.0673 -1.5548 -1.9944
   30MOL   C189 6627   3.135   3.294   2.213 -0.2449  0.3186 -0.3231
   30MOL   C190 6628   3.156   3.252   2.061  0.1816 -0.3360 -0.8648
   30MOL   C191 6629   3.235   3.119   2.053 -0.1119 -0.5031  0.0066
   30MOL   O192 6630   3.336   3.108   1.990 -0.5774 -0.5813 -0.2040
   30MOL   C193 6631   3.181   3.004   2.135  0.3821  0.4974 -0.6621
   30MOL   H194 6632   3.070   3.220   2.260  2.0490 -0.9207  1.0134
   30MOL   H195 6633   3.071   3.382   2.221 -1.1677 -0.1215 -2.5490
   30MOL   H196 6634   3.213   3.336   2.020 -0.0431  1.2724  1.9678
   30MOL   H197 6635   3.192   2.907   2.086 -2.3766  1.3966 -3.1841
   30MOL   H198 6636   3.236   3.012   2.229  1.2445  2.7421 -1.3140
   30MOL   H199 6637   3.075   3.020   2.156  0.3779  0.2139 -0.4616
   30MOL   C200 6638   3.022   3.242   1.981  0.0371  0.3158  0.2445
   30MOL   C201 6639   3.039   3.205   1.837  0.3543 -0.0443 -0.1374
   30MOL   C202 6640   3.068   3.323   1.750 -0.2785 -1.1606  0.2167
   30MOL   O203 6641   3.011   3.429   1.765 -0.0347 -1.0397  0.0317
   30MOL   C204 6642   3.170   3.307   1.639 -0.3423  0.2586  0.9559
   30MOL   H205 6643   2.954   3.171   2.028 -1.8233  0.7353 -1.7542
   30MOL   H206 6644   2.976   3.340   1.994 -1.5882  0.0419 -3.0820
   30MOL   H207 6645   3.119   3.132   1.827 -0.2567 -0.7385 -0.0834
   30MOL   H208 6646   3.272   3.324   1.675 -0.1214 -0.8057  0.8462
   30MOL   H209 6647   3.167   3.210   1.589  0.1159 -0.6602  2.6817
   30MOL   H210 6648   3.142   3.381   1.564 -1.9054 -2.0374 -0.7905
   30MOL   C211 6649   2.908   3.127   1.787  1.1882 -0.1025 -0.1751
   30MOL   C212 6650   2.940   2.989   1.747 -0.1060  0.1316 -0.1858
   30MOL   C213 6651   2.962   2.886   1.853  0.4766  0.2901 -0.0865
   30MOL   O214 6652   2.885   2.867   1.955 -0.0345  0.1281  0.9174
   30MOL   C215 6653   3.089   2.803   1.834 -0.1464 -0.0358 -0.3137
   30MOL   H216 6654   2.829   3.132   1.862 -0.8556  1.0234 -2.3524
   30MOL   H217 6655   2.865   3.178   1.701  0.7321  0.7474  0.5424
   30MOL   H218 6656   3.033   2.995   1.690  0.4577 -0.5362  0.6549
   30MOL   H219 6657   3.176   2.868   1.825 -0.3650  0.1946 -0.8211
   30MOL   H220 6658   3.106   2.729   1.912  1.6659  2.2408  1.5126
   30MOL   H221 6659   3.099   2.747   1.740 -1.9830  0.3648 -0.7670
   30MOL   H222 6660   2.879   2.943   1.669 -0.8616 -0.6060  0.8372
   31MOL     C1 6661   0.949   0.585   0.517  0.3428  0.6305  0.6331
   31MOL     C2 6662   0.866   0.460   0.500  0.3126  0.1069  0.2830
   31MOL     C3 6663   0.841   0.422   0.350 -0.0752  0.3501  0.1910
   31MOL     O4 6664   0.753   0.480   0.281 -0.9463  0.2575  0.4909
   31MOL     C5 6665   0.919   0.306   0.296  0.2611  0.2793 -0.1288
   31MOL     H6 6666   0.965   0.596   0.624  1.8710  0.1786  0.4569
   31MOL     H7 6667   0.898   0.679   0.492  0.9473  0.9805  0.7160
   31MOL     H8 6668   0.770   0.487   0.546 -1.2805 -3.2188 -0.9295
   31MOL     H9 6669   0.917   0.222   0.365 -1.6455  0.4389  0.0275
   31MOL    H10 6670   0.890   0.291   0.192 -0.3306 -0.3519  0.1221
   31MOL    H11 6671   1.021   0.344   0.297  0.2615  0.2951  1.2462
   31MOL    H12 6672   1.045   0.587   0.465  0.7874  3.6178  1.4526
   31MOL    C13 6673   0.915   0.344   0.584  0.5709  0.0900  0.1478
   31MOL    C14 6674   0.812   0.229   0.628  0.0718  0.2647  0.7766
   31MOL    C15 6675   0.680   0.290   0.688  0.6359 -0.2711 -0.3062
   31MOL    O16 6676   0.657   0.302   0.805  0.0582  0.0209 -0.0626
   31MOL    C17 6677   0.572   0.327   0.601 -0.0888  0.5517  0.4638
   31MOL    H18 6678   1.006   0.293   0.552 -0.9727 -1.5129 -1.8221
   31MOL    H19 6679   0.941   0.387   0.680  1.5713  2.3822 -1.1043
   31MOL    H20 6680   0.786   0.182   0.534 -0.3062 -0.2346  1.1252
   31MOL    H21 6681   0.484   0.262   0.604  0.3179 -0.0346 -0.1330
   31MOL    H22 6682   0.539   0.429   0.620 -0.3639  0.4642  0.4692
   31MOL    H23 6683   0.602   0.316   0.496 -1.4123  0.0887  0.1127
   31MOL    C24 6684   0.875   0.123   0.720  0.1077 -0.0973  0.3640
   31MOL    C25 6685   0.779   0.010   0.764  0.9077  0.0497 -0.2842
   31MOL    C26 6686   0.717   7.793   0.650 -0.1069 -0.8288 -0.0506
   31MOL    O27 6687   0.761   7.802   0.536 -0.0703 -0.2975 -0.2415
   31MOL    C28 6688   0.591   7.703   0.682 -0.3079  0.3028  0.2525
   31MOL    H29 6689   0.970   0.079   0.691 -1.3061 -2.4452 -0.8505
   31MOL    H30 6690   0.913   0.175   0.808  1.4636 -0.4545 -0.0014
   31MOL    H31 6691   0.698   0.059   0.818  2.2460  3.9864 -1.6602
   31MOL    H32 6692   0.624   7.613   0.734  1.7489  3.1114  4.0087
   31MOL    H33 6693   0.512   7.747   0.743  0.1547  1.3713  0.0830
   31MOL    H34 6694   0.535   7.685   0.590  1.2038 -1.2694 -0.3875
   31MOL    C35 6695   0.841   7.769   0.867  0.1227  0.1214  0.1302
   31MOL    C36 6696   0.901   7.832   0.995  0.1887  0.2312 -0.3278
   31MOL    C37 6697   0.796   0.049   1.076 -0.0194  0.0752 -0.1484
   31MOL    O38 6698   0.688   7.854   1.113 -0.5352 -0.5680 -0.3777
   31MOL    C39 6699   0.825   0.202   1.089  0.1112  0.7489 -0.1235
   31MOL    H40 6700   0.915   7.715   0.808  2.0723  0.7973  1.8677
   31MOL    H41 6701   0.769   7.692   0.893  0.4550 -0.3740 -0.3869
   31MOL    H42 6702   0.969   0.054   0.965 -0.2779  1.0371  0.7473
   31MOL    H43 6703   0.793   0.231   1.189 -0.9023  0.0462 -0.2369
   31MOL    H44 6704   0.766   0.258   1.016  1.6866 -0.1395 -2.1191
   31MOL    H45 6705   0.932   0.221   1.076 -0.1248  3.1811  1.2252
   31MOL    C46 6706   0.978   7.723   1.078 -0.2496 -0.7112  0.0072
   31MOL    C47 6707   1.079   7.800   1.175  0.1932  0.4628 -0.1125
   31MOL    C48 6708   1.113   7.716   1.303 -0.1566 -0.6818 -0.3964
   31MOL    O49 6709   1.120   7.597   1.299  0.2069 -0.5031 -0.3293
   31MOL    C50 6710   1.125   7.797   1.435  0.5774  0.2382  0.3624
   31MOL    H51 6711   1.032   7.646   1.023  1.4370  0.1273  0.4550
   31MOL    H52 6712   0.914   7.659   1.138 -1.3701  0.2554 -0.1444
   31MOL    H53 6713   1.022   0.027   1.214  1.2224  0.7562  0.7873
   31MOL    H54 6714   1.179   7.728   1.500 -0.6325 -1.7848 -0.7281
   31MOL    H55 6715   1.185   0.030   1.422  1.9177 -0.4736  1.4825
   31MOL    H56 6716   1.027   7.814   1.478  0.5174  0.7832  0.0110
   31MOL    C57 6717   1.201   0.012   1.116  0.3435 -0.0343  0.1968
   31MOL    C58 6718   1.299   7.791   1.023  0.1445  0.6756  0.1138
   31MOL    C59 6719   1.243   7.750   0.883  0.0630  0.2377  0.3394
   31MOL    O60 6720   1.195   7.841   0.813 -0.1206 -1.0924 -0.2876
   31MOL    C61 6721   1.256   7.608   0.839  0.8991 -0.4737  0.3277
   31MOL    H62 6722   1.266   0.063   1.187 -0.1334 -0.8851  1.2736
   31MOL    H63 6723   1.168   0.093   1.051 -0.8835 -0.1939  0.6145
   31MOL    H64 6724   1.330   7.693   1.059 -1.2306  0.1779 -0.0295
   31MOL    H65 6725   1.153   7.574   0.823  0.8116  1.5693 -4.0248
   31MOL    H66 6726   1.307   7.594   0.745  0.1317  2.9070 -0.6751
   31MOL    H67 6727   1.309   7.553   0.917  0.3940  0.6888  1.5073
   31MOL    C68 6728   1.426   0.027   0.998 -0.7416 -0.6671  0.0145
   31MOL    C69 6729   1.563   7.833   1.046  0.6735 -0.1011  0.1128
   31MOL    C70 6730   1.666   0.079   1.080  0.1093 -0.6612 -0.1583
   31MOL    O71 6731   1.692   0.173   1.004 -0.2877  0.3773  0.1766
   31MOL    C72 6732   1.733   0.068   1.216 -0.2868 -0.0989 -0.0113
   31MOL    H73 6733   1.440   0.048   0.892  1.3385  0.4965  0.4771
   31MOL    H74 6734   1.417   0.127   1.040  1.0162  0.0224 -1.1755
   31MOL    H75 6735   1.539   7.786   1.142 -1.3871  0.8338  0.0952
   31MOL    H76 6736   1.750   7.822   1.247 -2.9487 -0.3385  0.7730
   31MOL    H77 6737   1.829   0.116   1.201  0.7098 -2.8251 -3.0320
   31MOL    H78 6738   1.664   0.126   1.277  1.5889  2.2025 -0.0238
   31MOL    C79 6739   1.621   7.716   0.960  0.2361  0.2024 -0.5090
   31MOL    C80 6740   1.707   7.744   0.836  0.6045 -0.4943 -0.0455
   31MOL    C81 6741   1.614   7.773   0.711  0.1284 -0.3642 -0.4990
   31MOL    O82 6742   1.512   7.712   0.686 -0.4029 -0.4094  0.6530
   31MOL    C83 6743   1.649   0.036   0.629  0.3834 -0.3824  0.4298
   31MOL    H84 6744   1.545   7.640   0.941 -0.6594  0.9827 -0.1042
   31MOL    H85 6745   1.684   7.671   1.036  0.0719  0.1558 -0.3983
   31MOL    H86 6746   1.770   7.831   0.855  2.4199 -1.6374 -0.7279
   31MOL    H87 6747   1.687   7.850   0.537 -0.1666 -2.2802  1.0907
   31MOL    H88 6748   1.724   0.098   0.678 -1.9391  2.5540  0.4639
   31MOL    H89 6749   1.562   0.101   0.618 -0.8526 -1.6636  2.4225
   31MOL    C90 6750   1.791   7.615   0.817  0.5279  0.6251  0.0275
   31MOL    C91 6751   1.901   7.632   0.718 -0.9829  0.3672  0.2245
   31MOL    C92 6752   2.022   7.701   0.789  0.2754 -0.4821  0.1205
   31MOL    O93 6753   2.116   7.642   0.842 -0.1239  1.3734  0.2069
   31MOL    C94 6754   2.023   7.853   0.771  0.3553  0.0085 -0.0131
   31MOL    H95 6755   1.829   7.573   0.910  2.6092 -2.1792 -1.9825
   31MOL    H96 6756   1.724   7.536   0.783 -1.8700  2.3582  0.6451
   31MOL    H97 6757   1.874   7.693   0.632 -2.7041 -1.3681 -0.5169
   31MOL    H98 6758   2.120   0.039   0.750 -0.8387  2.2602 -1.0184
   31MOL    H99 6759   1.950   0.025   0.695 -0.1742  2.7168  1.4903
   31MOL   H100 6760   1.992   0.040   0.866 -3.4667 -0.1896 -1.0663
   31MOL   C101 6761   1.941   7.494   0.653  0.5226  0.3044 -0.1325
   31MOL   C102 6762   2.063   7.474   0.560 -0.7093 -0.1748  0.1026
   31MOL   C103 6763   2.062   7.565   0.438  0.0766  0.3778  0.0289
   31MOL   O104 6764   1.963   7.615   0.385 -0.3256 -0.5878 -0.2715
   31MOL   C105 6765   2.200   7.618   0.391  0.0297  0.4389 -0.5543
   31MOL   H106 6766   1.953   7.422   0.734  1.0107 -1.0037 -1.3470
   31MOL   H107 6767   1.852   7.465   0.597 -0.0148  1.0492  0.3172
   31MOL   H108 6768   2.146   7.502   0.625  0.5300  0.3114 -1.6754
   31MOL   H109 6769   2.250   7.655   0.481 -0.2494  0.0758 -0.2527
   31MOL   H110 6770   2.271   7.542   0.359 -1.3875 -0.9250 -0.5133
   31MOL   H111 6771   2.197   7.687   0.307  0.4173 -0.7619 -1.5590
   31MOL   C112 6772   2.099   7.327   0.512 -0.3937 -0.4316  0.8575
   31MOL   C113 6773   2.001   7.251   0.418  0.1741 -0.0600  0.3740
   31MOL   C114 6774   1.896   7.178   0.508  0.6768 -0.2167  0.4388
   31MOL   O115 6775   1.773   7.196   0.489 -0.4723 -0.3177 -0.9836
   31MOL   C116 6776   1.955   7.070   0.592  0.2343 -0.3545  0.6804
   31MOL   H117 6777   2.112   7.274   0.606  0.2452  1.5893  1.9467
   31MOL   H118 6778   2.201   7.332   0.473 -1.1961  0.0258 -1.2495
   31MOL   H119 6779   1.951   7.326   0.355  1.3954  0.9633  0.6041
   31MOL   H120 6780   1.907   6.973   0.577  0.3917 -0.1303 -1.4373
   31MOL   H121 6781   2.062   7.056   0.574  0.3457  2.0254 -0.6869
   31MOL   H122 6782   1.942   7.097   0.697  2.4571 -0.8031  1.1130
   31MOL   C123 6783   2.067   7.154   0.314 -0.7109 -0.6730 -0.6422
   31MOL   C124 6784   1.974   7.083   0.217  0.0069  0.1375  0.3849
   31MOL   C125 6785   1.944   6.932   0.251  0.3148 -1.3487 -0.1258
   31MOL   O126 6786   2.006   6.864   0.338  0.2534 -0.1707  0.0687
   31MOL   C127 6787   1.823   6.859   0.187  0.2377  0.0217 -0.8207
   31MOL   H128 6788   2.143   7.096   0.365  0.2438  1.3095  0.2447
   31MOL   H129 6789   2.143   7.211   0.262 -0.5255  0.0240  0.3729
   31MOL   H130 6790   1.877   7.128   0.237 -0.1742 -0.0323 -0.1049
   31MOL   H131 6791   1.741   6.930   0.196  0.0145 -0.1696 -1.2945
   31MOL   H132 6792   1.804   6.770   0.246  0.0662  1.3604  1.2144
   31MOL   H133 6793   1.835   6.832   0.082 -0.3846  1.7163 -1.3453
   31MOL   C134 6794   1.997   7.108   0.067 -0.1881 -0.0740 -0.2177
   31MOL   C135 6795   1.865   7.120   7.836 -0.1297  0.8807  0.4634
   31MOL   C136 6796   1.808   7.263   7.842  0.3497  0.0327 -0.0865
   31MOL   O137 6797   1.833   7.353   7.760  0.0840  0.2344 -0.0141
   31MOL   C138 6798   1.714   7.296   0.101 -0.4670 -0.0827 -0.0249
   31MOL   H139 6799   2.057   7.027   0.025  1.4380  1.3416 -0.6879
   31MOL   H140 6800   2.048   7.204   0.058 -2.6855  1.4845  1.4108
   31MOL   H141 6801   1.801   7.038   0.012  2.2427 -1.0341  0.4198
   31MOL   H142 6802   1.643   7.214   0.114 -0.7884  0.1002 -0.5891
   31MOL   H143 6803   1.666   7.391   0.079 -0.8317 -0.0354  0.9515
   31MOL   H144 6804   1.772   7.309   0.192  0.7126 -1.1566 -0.6050
   31MOL   C145 6805   1.896   7.081   7.680  0.0461 -0.0204 -0.5298
   31MOL   C146 6806   1.768   7.053   7.596 -0.2806  0.3072  0.4569
   31MOL   C147 6807   1.788   7.088   7.440  0.1903  0.3092 -0.0638
   31MOL   O148 6808   1.764   7.012   7.345  0.5365 -0.5931 -0.8872
   31MOL   C149 6809   1.823   7.238   7.417 -0.5413  0.0645 -0.5607
   31MOL   H150 6810   1.951   6.987   7.673 -1.0018 -0.6709 -0.1805
   31MOL   H151 6811   1.964   7.154   7.636 -0.0910  0.2226 -0.3382
   31MOL   H152 6812   1.693   7.125   7.628  0.6140  1.2172  0.5175
   31MOL   H153 6813   1.735   7.302   7.409  0.7867  2.1180  0.8276
   31MOL   H154 6814   1.886   7.280   7.496 -2.6695 -0.5808  1.5383
   31MOL   H155 6815   1.880   7.238   7.324  0.6547  0.1933  0.1617
   31MOL   C156 6816   1.718   6.906   7.613  1.1893  0.1002  0.2538
   31MOL   C157 6817   1.571   6.895   7.579  0.3184  0.6114  0.0513
   31MOL   C158 6818   1.483   6.982   7.670 -0.2133  0.2324 -1.0078
   31MOL   O159 6819   1.526   7.014   7.778 -0.1617  0.0326 -0.2115
   31MOL   C160 6820   1.353   7.039   7.618 -0.0343  0.4357  0.0139
   31MOL   H161 6821   1.783   6.843   7.552  1.5618  0.8302 -0.1097
   31MOL   H162 6822   1.735   6.863   7.712  0.0584 -1.0368 -0.0209
   31MOL   H163 6823   1.553   6.931   7.478  2.1993  2.4344  0.3311
   31MOL   H164 6824   1.350   7.039   7.509  0.3663  0.5559  0.0047
   31MOL   H165 6825   1.342   7.143   7.651 -1.2143  0.4554 -0.3910
   31MOL   H166 6826   1.268   6.975   7.645  1.3832 -1.5563 -0.1481
   31MOL   C167 6827   1.526   6.742   7.579 -0.1858 -0.1074  0.0994
   31MOL   C168 6828   1.495   6.675   7.715  0.2301 -0.3607 -0.0210
   31MOL   C169 6829   1.603   6.575   7.756 -0.2386  0.1703  0.0709
   31MOL   O170 6830   1.649   6.577   0.011  0.0826 -0.3826 -0.3647
   31MOL   C171 6831   1.647   6.474   7.658 -0.2937 -0.1037 -0.5445
   31MOL   H172 6832   1.440   6.742   7.512 -1.6856 -1.8177  1.9846
   31MOL   H173 6833   1.600   6.683   7.525 -1.2274 -1.8239  0.4881
   31MOL   H174 6834   1.492   6.754   7.790  0.9746 -1.5711  1.3213
   31MOL   H175 6835   1.644   6.373   7.698 -0.7287  0.5273  1.0613
   31MOL   H176 6836   1.746   6.504   7.626  1.1397 -3.8578  0.1828
   31MOL   H177 6837   1.593   6.476   7.563 -0.7807  0.3273 -0.2636
   31MOL   C178 6838   1.351   6.618   7.709 -0.3443 -0.8363  0.3354
   31MOL   C179 6839   1.314   6.561   7.851 -0.3559 -0.6103  0.2847
   31MOL   C180 6840   1.225   6.436   0.001  0.1782  0.3561  0.6306
   31MOL   O181 6841   1.117   6.432   0.054 -0.8500 -0.1125 -0.2509
   31MOL   C182 6842   1.269   6.314   7.769  0.1518 -0.0372  0.6399
   31MOL   H183 6843   1.286   6.700   7.680  0.5428  0.9025  3.0539
   31MOL   H184 6844   1.354   6.540   7.633 -2.7242 -1.4406  0.8317
   31MOL   H185 6845   1.405   6.514   0.032  0.1651  0.1810  0.0223
   31MOL   H186 6846   1.194   6.293   7.693  1.9847 -0.3276 -1.1133
   31MOL   H187 6847   1.277   6.224   7.830 -0.0069 -0.3197  0.2475
   31MOL   H188 6848   1.368   6.320   7.726 -0.1312 -0.2423 -0.0419
   31MOL   C189 6849   1.273   6.674   0.090  0.3069 -0.0687 -0.2948
   31MOL   C190 6850   1.292   6.640   0.241 -0.6193 -0.1918 -0.1816
   31MOL   C191 6851   1.438   6.670   0.289 -0.2166  1.5202  0.1145
   31MOL   O192 6852   1.489   6.782   0.297 -0.6018  0.1150  0.8901
   31MOL   C193 6853   1.518   6.548   0.339 -0.5277 -0.2620  0.5652
   31MOL   H194 6854   1.330   6.765   0.072  0.6510 -0.6470 -2.2925
   31MOL   H195 6855   1.171   6.705   0.067 -0.7821 -4.1520 -1.3475
   31MOL   H196 6856   1.273   6.535   0.264  0.4338 -0.4000 -0.2260
   31MOL   H197 6857   1.456   6.460   0.358 -0.0413 -1.0775 -1.4815
   31MOL   H198 6858   1.588   6.530   0.258 -0.5942  0.5172  0.3278
   31MOL   H199 6859   1.573   6.576   0.429  2.3002  2.2653 -1.8364
   31MOL   C200 6860   1.189   6.733   0.307 -0.0213  0.1038  0.7761
   31MOL   C201 6861   1.167   6.728   0.464 -0.8156 -0.4699  0.4747
   31MOL   C202 6862   1.163   6.579   0.517 -0.2009 -0.3105 -0.7200
   31MOL   O203 6863   1.088   6.491   0.468  0.6854  0.0759  0.3590
   31MOL   C204 6864   1.255   6.537   0.633 -0.0612  0.0585  0.1653
   31MOL   H205 6865   1.223   6.834   0.284 -0.1438  0.5172  2.3782
   31MOL   H206 6866   1.092   6.715   0.260  0.7758  0.1172 -0.9164
   31MOL   H207 6867   1.256   6.766   0.513  0.1888 -2.3765  0.2033
   31MOL   H208 6868   1.206   6.495   0.721  0.4926 -1.2722 -0.1355
   31MOL   H209 6869   1.311   6.454   0.590  0.8767  0.5460  0.4383
   31MOL   H210 6870   1.330   6.613   0.656  1.5035 -1.2206 -0.5522
   31MOL   C211 6871   1.056   6.822   0.522  0.2652 -0.2574  0.3242
   31MOL   C212 6872   0.915   6.766   0.484  1.0640  0.9451  0.2401
   31MOL   C213 6873   0.803   6.866   0.509  1.0946  0.3781 -0.8804
   31MOL   O214 6874   0.819   6.979   0.538 -0.0342 -0.3691  0.1404
   31MOL   C215 6875   0.660   6.816   0.496  0.4617 -0.1025  0.2244
   31MOL   H216 6876   1.057   6.818   0.631 -0.8138  0.3675  0.3614
   31MOL   H217 6877   1.076   6.924   0.487  3.0320 -0.5690  0.8548
   31MOL   H218 6878   0.898   6.678   0.546  0.5394  0.1202 -1.0582
   31MOL   H219 6879   0.630   6.781   0.594 -1.2058  0.0438 -0.2280
   31MOL   H220 6880   0.594   6.895   0.460  2.3853  0.3427 -2.5796
   31MOL   H221 6881   0.664   6.736   0.423  0.7007  0.3962 -0.3212
   31MOL   H222 6882   0.898   6.736   0.381 -0.1544  1.9593  0.1278
   32MOL     C1 6883   5.174   4.085   6.450 -0.3947 -0.6364 -0.2314
   32MOL     C2 6884   5.108   3.968   6.365 -0.1063 -0.6552 -0.1310
   32MOL     C3 6885   5.220   3.909   6.278 -0.3287 -0.7642  0.1117
   32MOL     O4 6886   5.312   3.852   6.333 -0.0534 -0.7454 -0.6242
   32MOL     C5 6887   5.207   3.918   6.128  0.7752 -0.3125 -0.8907
   32MOL     H6 6888   5.226   4.045   6.536 -0.3435 -0.6764 -0.2802
   32MOL     H7 6889   5.101   4.147   6.503  0.1282 -0.5657  0.4111
   32MOL     H8 6890   5.030   4.011   6.302  0.4730  0.9377  0.2288
   32MOL     H9 6891   5.263   3.831   6.094  3.7512  1.2449 -0.1348
   32MOL    H10 6892   5.107   3.922   6.086 -0.9356  0.9162  3.0383
   32MOL    H11 6893   5.255   4.012   6.102 -0.1596  0.5039  0.2674
   32MOL    H12 6894   5.239   4.157   6.400 -0.5376 -0.5047 -0.2313
   32MOL    C13 6895   5.039   3.867   6.454 -0.2520  0.3094 -0.7608
   32MOL    C14 6896   4.935   3.770   6.383  0.0220 -0.2542  0.0902
   32MOL    C15 6897   5.005   3.659   6.294 -0.8750 -0.2009 -0.0809
   32MOL    O16 6898   5.014   3.676   6.170 -0.1145 -0.4332 -0.2259
   32MOL    C17 6899   5.067   3.542   6.365  0.1757 -0.3487  0.2868
   32MOL    H18 6900   5.120   3.812   6.502 -1.9027  0.2548  2.0918
   32MOL    H19 6901   4.984   3.922   6.530 -1.7823  0.9967 -2.3398
   32MOL    H20 6902   4.877   3.717   6.458  2.4652 -1.1729  1.3755
   32MOL    H21 6903   4.983   3.493   6.414 -0.0351 -0.7810 -0.4880
   32MOL    H22 6904   5.107   3.464   6.301 -0.5710 -1.4427  1.1389
   32MOL    H23 6905   5.141   3.578   6.436  2.1203 -0.1813 -1.7678
   32MOL    C24 6906   4.830   3.852   6.297  0.1904  0.7671  0.0361
   32MOL    C25 6907   4.717   3.763   6.224  0.3002  0.0545 -0.3167
   32MOL    C26 6908   4.630   3.673   6.323 -0.5338  0.5656 -0.3523
   32MOL    O27 6909   4.519   3.705   6.357  0.4687 -0.3540 -0.6934
   32MOL    C28 6910   4.695   3.540   6.364  0.2374  0.1455  0.0589
   32MOL    H29 6911   4.774   3.904   6.374  1.6133  1.7802  0.3990
   32MOL    H30 6912   4.860   3.928   6.225 -1.6464 -1.7017 -3.4938
   32MOL    H31 6913   4.752   3.695   6.146 -0.8521 -1.9141  0.8394
   32MOL    H32 6914   4.626   3.468   6.321 -0.5893  1.0602 -0.1747
   32MOL    H33 6915   4.795   3.544   6.320  1.6622  1.2990  3.2688
   32MOL    H34 6916   4.719   3.541   6.470  0.6458  3.4075 -0.0048
   32MOL    C35 6917   4.630   3.856   6.133 -0.5233  0.0818 -0.1093
   32MOL    C36 6918   4.691   3.875   5.992  0.6707 -0.3902  0.1649
   32MOL    C37 6919   4.658   3.763   5.896 -0.3590  0.0330  0.7232
   32MOL    O38 6920   4.546   3.750   5.852 -0.2588  0.4435  0.0239
   32MOL    C39 6921   4.763   3.668   5.853 -0.7540  0.1159  0.4189
   32MOL    H40 6922   4.622   3.944   6.196  0.7084 -1.6260  2.5339
   32MOL    H41 6923   4.534   3.809   6.114 -1.2549  2.1928 -1.7980
   32MOL    H42 6924   4.800   3.870   6.002  0.6846  0.9656  0.8544
   32MOL    H43 6925   4.806   3.702   5.759 -0.7628  1.1540  0.7815
   32MOL    H44 6926   4.720   3.569   5.841  1.0455 -0.7297  0.7429
   32MOL    H45 6927   4.848   3.655   5.919 -0.5207 -2.3537 -0.3308
   32MOL    C46 6928   4.677   4.028   5.938  0.8263  0.7918  0.6394
   32MOL    C47 6929   4.779   4.086   5.832 -0.4847 -0.1310  0.0709
   32MOL    C48 6930   4.757   4.048   5.689  0.0428  0.3065 -0.0308
   32MOL    O49 6931   4.649   4.054   5.635  0.0141  0.1239  0.6131
   32MOL    C50 6932   4.875   4.006   5.601 -0.2354  0.0539  0.0350
   32MOL    H51 6933   4.685   4.098   6.021  0.6387  1.6459 -0.0550
   32MOL    H52 6934   4.574   4.030   5.902  1.5390 -1.5631 -1.6502
   32MOL    H53 6935   4.878   4.051   5.860  0.1265  3.2021  2.3919
   32MOL    H54 6936   4.970   4.025   5.651  0.2395 -1.9185 -0.0889
   32MOL    H55 6937   4.862   3.902   5.571 -3.1235  1.1420 -2.7013
   32MOL    H56 6938   4.865   4.077   5.519  4.2248  0.1601 -0.5389
   32MOL    C57 6939   4.793   4.242   5.845 -0.2597  0.3850 -0.0403
   32MOL    C58 6940   4.876   4.292   5.964 -0.0697  0.1246  0.5517
   32MOL    C59 6941   5.023   4.234   5.969 -0.3719  0.2077 -0.2755
   32MOL    O60 6942   5.077   4.207   6.076 -0.2671 -0.3117 -0.6203
   32MOL    C61 6943   5.105   4.234   5.844  0.0644  0.2291  0.0575
   32MOL    H62 6944   4.694   4.286   5.851 -0.7588 -0.3800 -2.2306
   32MOL    H63 6945   4.837   4.270   5.749 -0.2430 -0.2117 -0.2118
   32MOL    H64 6946   4.832   4.256   6.057 -2.0561 -1.2752 -0.8878
   32MOL    H65 6947   5.113   4.333   5.798  0.4000 -0.4018 -1.2596
   32MOL    H66 6948   5.208   4.204   5.863  0.5582  0.3533 -2.2122
   32MOL    H67 6949   5.075   4.157   5.773 -1.5716  1.8962 -1.1320
   32MOL    C68 6950   4.886   4.448   5.974  0.1608  0.0793 -0.1279
   32MOL    C69 6951   4.930   4.504   6.109 -1.0393  0.2474  0.2733
   32MOL    C70 6952   4.821   4.496   6.213 -0.1357 -0.6812 -0.5077
   32MOL    O71 6953   4.817   4.392   6.287 -0.2421 -0.2400  0.2654
   32MOL    C72 6954   4.708   4.603   6.235  0.0443  0.7062 -0.9500
   32MOL    H73 6955   4.956   4.484   5.899 -1.1572  0.5582 -1.1372
   32MOL    H74 6956   4.783   4.473   5.951 -0.5869 -1.1878  1.6963
   32MOL    H75 6957   5.012   4.444   6.148 -1.7015  0.8439  2.6974
   32MOL    H76 6958   4.681   4.665   6.149  1.7512 -0.5029 -2.3656
   32MOL    H77 6959   4.624   4.550   6.279  0.5257 -0.1032 -1.0029
   32MOL    H78 6960   4.749   4.668   6.313  2.0230  0.9527 -2.1631
   32MOL    C79 6961   4.971   4.651   6.095 -0.4230  0.1494  0.0296
   32MOL    C80 6962   5.123   4.668   6.065 -0.2296 -0.0882 -0.3005
   32MOL    C81 6963   5.214   4.644   6.187 -0.7100  0.6325 -0.2062
   32MOL    O82 6964   5.189   4.685   6.296 -0.0664 -0.1119  0.2968
   32MOL    C83 6965   5.337   4.554   6.176 -0.2250  0.3114  0.0443
   32MOL    H84 6966   4.957   4.699   6.192  0.4218 -1.5426  1.0201
   32MOL    H85 6967   4.912   4.714   6.028  1.5342 -1.5326 -3.4009
   32MOL    H86 6968   5.141   4.586   5.995  1.7564 -0.0782  0.1634
   32MOL    H87 6969   5.421   4.583   6.239 -1.4620  1.4523  1.2107
   32MOL    H88 6970   5.355   4.525   6.073  1.0438 -2.7178  1.0639
   32MOL    H89 6971   5.299   4.466   6.228  2.9201 -0.0466  1.9037
   32MOL    C90 6972   5.170   4.801   5.997  0.2000  0.1443 -0.1541
   32MOL    C91 6973   5.315   4.796   5.934 -0.2226  0.4867 -0.0066
   32MOL    C92 6974   5.319   4.700   5.811  0.5086 -0.4601 -0.3636
   32MOL    O93 6975   5.219   4.673   5.746  0.3792 -0.2622  0.1205
   32MOL    C94 6976   5.453   4.642   5.781 -0.0689  0.0239  0.5759
   32MOL    H95 6977   5.102   4.828   5.917  0.8255  2.2039 -0.0286
   32MOL    H96 6978   5.158   4.879   6.073 -0.5939 -0.6881  0.5937
   32MOL    H97 6979   5.388   4.755   6.004  1.8267  0.8950 -1.8430
   32MOL    H98 6980   5.476   4.582   5.869 -0.8985  0.8725  1.3791
   32MOL    H99 6981   5.443   4.581   5.691  0.4951  0.9699 -0.1280
   32MOL   H100 6982   5.530   4.715   5.757  1.6250 -1.7412  0.5448
   32MOL   C101 6983   5.362   4.940   5.894  0.0912 -0.7040  0.3135
   32MOL   C102 6984   5.411   5.022   6.013 -0.3642 -0.2572 -0.4649
   32MOL   C103 6985   5.435   5.158   5.954 -0.1164 -0.6176 -0.0345
   32MOL   O104 6986   5.524   5.187   5.869 -0.8176 -0.2463  0.4533
   32MOL   C105 6987   5.348   5.276   5.997  0.8858  0.2049  0.7549
   32MOL   H106 6988   5.450   4.929   5.831  1.2554  2.9856  1.1454
   32MOL   H107 6989   5.289   5.000   5.841  0.6502  0.5465  0.9179
   32MOL   H108 6990   5.332   5.023   6.087 -0.2805  2.3957 -0.3630
   32MOL   H109 6991   5.326   5.260   6.102 -0.8710  1.2761  0.5615
   32MOL   H110 6992   5.401   5.371   5.990  0.4663  0.2135 -3.2812
   32MOL   H111 6993   5.251   5.280   5.948  2.2349 -1.8483 -2.2510
   32MOL   C112 6994   5.531   4.980   6.103  0.1590  0.2174  0.1410
   32MOL   C113 6995   5.562   5.046   6.245  0.6514 -0.2462 -0.4549
   32MOL   C114 6996   5.439   5.048   6.337  0.3980 -0.8029  0.0676
   32MOL   O115 6997   5.356   5.135   6.315 -0.1090  1.1535 -0.5009
   32MOL   C116 6998   5.404   4.920   6.410  0.8431  0.2404 -1.0793
   32MOL   H117 6999   5.620   4.985   6.040 -0.0714  0.5264 -0.1654
   32MOL   H118 7000   5.527   4.874   6.127  0.6928  0.2559  0.4119
   32MOL   H119 7001   5.627   4.977   6.299 -0.9353  0.5611  2.6682
   32MOL   H120 7002   5.297   4.901   6.422  1.1909 -0.3021  1.2844
   32MOL   H121 7003   5.435   4.830   6.357 -1.0503 -0.4487 -1.0680
   32MOL   H122 7004   5.440   4.912   6.512 -0.6037  1.1994 -0.4721
   32MOL   C123 7005   5.632   5.185   6.229  0.3816  0.2844 -0.2144
   32MOL   C124 7006   5.676   5.252   6.360 -1.0992  0.0741 -0.5880
   32MOL   C125 7007   5.715   5.403   6.334 -0.0066 -0.1207 -0.8832
   32MOL   O126 7008   5.831   5.445   6.311  0.4609  0.0283 -0.2300
   32MOL   C127 7009   5.604   5.504   6.343  0.1749  0.4204 -0.1162
   32MOL   H128 7010   5.566   5.254   6.176  1.5252  0.3035 -1.6555
   32MOL   H129 7011   5.726   5.166   6.176  1.1413 -1.1915  1.6258
   32MOL   H130 7012   5.596   5.260   6.434 -1.4854  1.2710 -1.1196
   32MOL   H131 7013   5.530   5.479   6.267  0.8620  0.3303 -0.7705
   32MOL   H132 7014   5.636   5.607   6.326 -0.0080  0.5967  0.6141
   32MOL   H133 7015   5.564   5.503   6.444  0.2528 -0.6862 -0.0886
   32MOL   C134 7016   5.799   5.174   6.423  0.0703 -0.5465 -0.7057
   32MOL   C135 7017   5.822   5.194   6.574  0.9836 -0.4964  0.2519
   32MOL   C136 7018   5.717   5.150   6.681 -0.9930 -0.2792  0.1547
   32MOL   O137 7019   5.610   5.099   6.649 -0.2180  0.1137 -0.1210
   32MOL   C138 7020   5.744   5.180   6.825  0.3688  0.6087  0.3724
   32MOL   H139 7021   5.886   5.191   6.359  0.1172 -0.8588 -0.7246
   32MOL   H140 7022   5.781   5.067   6.412  1.4945 -0.9430  0.6262
   32MOL   H141 7023   5.822   5.303   6.578  1.1568 -0.4953  0.2628
   32MOL   H142 7024   5.842   5.144   6.855  0.0394 -1.5464 -1.0602
   32MOL   H143 7025   5.662   5.130   6.878 -1.9746  3.3707 -0.5095
   32MOL   H144 7026   5.747   5.288   6.842  3.4213  0.6591 -0.3046
   32MOL   C145 7027   5.964   5.148   6.620 -0.1924 -0.1711  0.2895
   32MOL   C146 7028   6.056   5.256   6.683  0.2724  0.3180 -0.1611
   32MOL   C147 7029   6.191   5.185   6.719  0.0260 -0.3399 -0.2668
   32MOL   O148 7030   6.289   5.173   6.647 -0.0398 -0.3202 -0.0015
   32MOL   C149 7031   6.201   5.137   6.862 -0.3339  0.1660 -0.2177
   32MOL   H150 7032   6.020   5.110   6.535  0.1352 -2.2527  1.3854
   32MOL   H151 7033   5.962   5.061   6.687 -0.2348  0.1543  0.7125
   32MOL   H152 7034   6.025   5.286   6.783 -0.2379 -1.6279  0.2885
   32MOL   H153 7035   6.285   5.070   6.882 -1.3611 -0.8728  0.6692
   32MOL   H154 7036   6.196   5.221   6.933 -0.8867  0.0744 -0.1492
   32MOL   H155 7037   6.108   5.083   6.853 -0.4231  0.1176  0.9339
   32MOL   C156 7038   6.070   5.382   6.591  0.3029  0.5395 -0.1577
   32MOL   C157 7039   6.182   5.486   6.619  0.2854  0.0413 -0.2096
   32MOL   C158 7040   6.182   5.554   6.752 -0.5794  0.6539 -0.1722
   32MOL   O159 7041   6.102   5.528   6.838 -0.4836 -0.3064  0.2443
   32MOL   C160 7042   6.300   5.641   6.781  0.4671 -0.3230 -0.0581
   32MOL   H161 7043   6.089   5.336   6.494 -2.3044  1.5075 -1.1602
   32MOL   H162 7044   5.976   5.437   6.589  2.1880  3.9142  0.7380
   32MOL   H163 7045   6.279   5.436   6.617 -0.3045 -1.0975 -1.1793
   32MOL   H164 7046   6.375   5.609   6.709 -0.6659 -1.3916 -0.7785
   32MOL   H165 7047   6.313   5.623   6.888  0.1047  1.8177  0.3692
   32MOL   H166 7048   6.275   5.745   6.759  4.5230  0.5086 -1.1459
   32MOL   C167 7049   6.173   5.584   6.498 -0.1648 -0.2260  0.4422
   32MOL   C168 7050   6.218   5.528   6.358  0.3618 -0.4216 -0.1351
   32MOL   C169 7051   6.357   5.473   6.359 -0.3793  0.2283 -0.6325
   32MOL   O170 7052   6.455   5.537   6.344  0.1710 -0.1193  0.0328
   32MOL   C171 7053   6.376   5.328   6.369 -0.7770  0.2575  0.5372
   32MOL   H172 7054   6.070   5.622   6.495  0.6423  2.0292  0.4359
   32MOL   H173 7055   6.239   5.669   6.511  0.1445 -0.5076  0.7105
   32MOL   H174 7056   6.153   5.446   6.328  1.1508 -1.6924  1.5198
   32MOL   H175 7057   6.327   5.276   6.451 -0.5625 -1.0954 -0.1672
   32MOL   H176 7058   6.483   5.311   6.359 -1.1147 -1.7770  0.0943
   32MOL   H177 7059   6.334   5.285   6.277  1.0711  0.7663 -0.5809
   32MOL   C178 7060   6.201   5.640   6.248  0.3431 -0.2379  0.4115
   32MOL   C179 7061   6.233   5.603   6.099  0.6444  0.3095  0.2535
   32MOL   C180 7062   6.226   5.727   6.009  0.6712  0.2311 -0.2205
   32MOL   O181 7063   6.147   5.726   5.912 -0.0777 -0.4570 -0.3695
   32MOL   C182 7064   6.305   5.845   6.052  0.8655  0.4945 -0.0060
   32MOL   H183 7065   6.101   5.684   6.247  0.7989  0.8081  0.4397
   32MOL   H184 7066   6.268   5.721   6.277 -1.2840  1.3321 -0.1589
   32MOL   H185 7067   6.338   5.577   6.098  0.5580 -0.0359 -0.3378
   32MOL   H186 7068   6.275   5.893   6.145 -0.0929  0.0329 -0.0719
   32MOL   H187 7069   6.294   5.913   5.967  4.4138  1.2100  0.0255
   32MOL   H188 7070   6.412   5.825   6.064  0.3074 -0.9300  2.9294
   32MOL   C189 7071   6.147   5.481   6.048 -0.2302 -0.0494 -0.1787
   32MOL   C190 7072   6.206   5.426   5.919 -0.1588 -0.2162  1.0139
   32MOL   C191 7073   6.345   5.374   5.921 -0.1366 -0.2941  0.5872
   32MOL   O192 7074   6.383   5.311   6.018  0.7629 -0.3155  0.5688
   32MOL   C193 7075   6.453   5.425   5.822 -0.0019  0.9790 -0.2356
   32MOL   H194 7076   6.161   5.404   6.124 -1.5219 -0.5024 -0.3825
   32MOL   H195 7077   6.039   5.489   6.034 -0.0917 -1.2568 -2.0334
   32MOL   H196 7078   6.202   5.517   5.859 -1.2625 -0.2463  1.0284
   32MOL   H197 7079   6.466   5.533   5.820  1.9227  0.7615 -0.0594
   32MOL   H198 7080   6.545   5.374   5.851 -1.7512 -1.7752  0.7329
   32MOL   H199 7081   6.437   5.389   5.720  0.5656 -0.9872  0.3413
   32MOL   C200 7082   6.124   5.307   5.860  0.5764  0.1466 -0.0230
   32MOL   C201 7083   6.131   5.292   5.700  0.3381 -0.7518  0.5282
   32MOL   C202 7084   6.095   5.411   5.611 -0.2537 -0.5760 -0.2941
   32MOL   O203 7085   6.151   5.433   5.503  0.7965 -0.3912 -0.6179
   32MOL   C204 7086   5.974   5.497   5.660 -0.5235  0.4460  1.2738
   32MOL   H205 7087   6.152   5.209   5.898  1.5889  0.6072  0.4171
   32MOL   H206 7088   6.021   5.317   5.895  0.9387 -0.8540  1.3405
   32MOL   H207 7089   6.236   5.269   5.685  0.0844 -0.7309 -1.3966
   32MOL   H208 7090   6.005   5.597   5.692  0.5864  0.4895  0.0796
   32MOL   H209 7091   5.898   5.510   5.584  0.3929  1.5885  0.5314
   32MOL   H210 7092   5.921   5.451   5.744 -2.0976 -0.2199 -0.0534
   32MOL   C211 7093   6.059   5.159   5.661  0.6946 -0.8174 -0.2675
   32MOL   C212 7094   5.911   5.145   5.702 -0.3614 -0.0379  0.2352
   32MOL   C213 7095   5.865   5.003   5.730 -0.4133  0.0549 -0.2432
   32MOL   O214 7096   5.947   4.913   5.760  0.2511  0.4922  0.2459
   32MOL   C215 7097   5.715   4.975   5.723 -0.2807  0.0061  0.0890
   32MOL   H216 7098   6.062   5.154   5.552  2.9327 -0.7269 -0.2240
   32MOL   H217 7099   6.112   5.071   5.697 -0.6458 -1.5804 -0.1153
   32MOL   H218 7100   5.842   5.175   5.624  1.2549  2.0140 -0.4693
   32MOL   H219 7101   5.660   5.033   5.648 -2.1789 -0.5630  0.9906
   32MOL   H220 7102   5.690   4.870   5.715  0.6074 -0.2113  0.1434
   32MOL   H221 7103   5.682   5.011   5.821  2.8738  1.0707  0.8203
   32MOL   H222 7104   5.882   5.207   5.788 -0.1236  0.9395 -0.3798
   33MOL     C1 7105   6.834   0.668   2.052  0.1331  0.1584  0.1317
   33MOL     C2 7106   6.865   0.651   2.207 -0.0456  0.0363  0.3375
   33MOL     C3 7107   7.007   0.602   2.212 -0.0536  0.2156 -0.3454
   33MOL     O4 7108   7.103   0.681   2.228 -0.6335 -0.1945  0.6213
   33MOL     C5 7109   7.028   0.452   2.188 -0.6334  0.2163  0.1418
   33MOL     H6 7110   6.863   0.577   1.999 -0.1696  1.1367 -1.7756
   33MOL     H7 7111   6.890   0.743   1.996  0.2898 -0.4471 -0.5232
   33MOL     H8 7112   6.789   0.585   2.250  0.5816  0.7412  2.6151
   33MOL     H9 7113   7.020   0.394   2.279  0.7507 -1.0869 -0.5515
   33MOL    H10 7114   6.957   0.412   2.115 -1.4088  2.7951 -0.5879
   33MOL    H11 7115   7.129   0.437   2.151 -1.3026 -2.4557 -0.7252
   33MOL    H12 7116   6.734   0.705   2.031 -0.2473 -0.7789  0.2703
   33MOL    C13 7117   6.830   0.784   2.284 -0.6122  0.9353 -0.0089
   33MOL    C14 7118   6.878   0.813   2.427 -0.5525 -0.0908 -0.5751
   33MOL    C15 7119   6.803   0.721   2.525 -0.8767  0.1505 -0.0287
   33MOL    O16 7120   6.710   0.647   2.484 -0.4139 -0.4873 -0.5375
   33MOL    C17 7121   6.856   0.730   2.668  0.2096  0.4744 -0.4081
   33MOL    H18 7122   6.878   0.856   2.218  2.1028 -0.3846  0.4831
   33MOL    H19 7123   6.723   0.805   2.280 -0.5647  1.1983  0.1569
   33MOL    H20 7124   6.985   0.792   2.428 -0.7411 -1.0925 -0.3908
   33MOL    H21 7125   6.880   0.628   2.700 -0.7126  0.6563  0.9096
   33MOL    H22 7126   6.945   0.790   2.654  0.1953  0.6902  0.4115
   33MOL    H23 7127   6.798   0.790   2.738  1.7511  1.0729  0.3677
   33MOL    C24 7128   6.866   0.962   2.465  0.0626 -0.2712  0.3723
   33MOL    C25 7129   6.735   1.034   2.430 -0.1688 -0.4490 -0.4638
   33MOL    C26 7130   6.611   0.983   2.511 -0.1376  0.1443 -0.2955
   33MOL    O27 7131   6.615   0.977   2.637  0.8181  0.4134  0.2470
   33MOL    C28 7132   6.493   0.940   2.424 -0.2371  0.0140 -0.1094
   33MOL    H29 7133   6.900   0.974   2.568  0.3343  0.2020  0.2305
   33MOL    H30 7134   6.941   1.013   2.405  0.3399  0.1329  1.0615
   33MOL    H31 7135   6.714   1.016   2.324 -0.9987  0.3788 -0.4435
   33MOL    H32 7136   6.400   0.988   2.454 -0.8486  0.6372 -2.8662
   33MOL    H33 7137   6.491   0.978   2.322 -0.1696  0.7466  0.1576
   33MOL    H34 7138   6.473   0.833   2.429  2.8357 -0.6900 -1.6784
   33MOL    C35 7139   6.762   1.185   2.463  0.0760  0.1584 -0.5921
   33MOL    C36 7140   6.647   1.265   2.405 -0.5393  0.1154 -0.1100
   33MOL    C37 7141   6.651   1.407   2.460 -0.2556 -0.2610 -0.1539
   33MOL    O38 7142   6.756   1.458   2.493 -0.4193  0.5082  0.7795
   33MOL    C39 7143   6.521   1.474   2.489  0.0781 -0.0869  0.3915
   33MOL    H40 7144   6.856   1.226   2.428 -0.0469  1.1117  0.1835
   33MOL    H41 7145   6.759   1.202   2.571  2.4040 -0.2938 -0.4415
   33MOL    H42 7146   6.551   1.232   2.445 -0.5507 -1.2952 -1.2664
   33MOL    H43 7147   6.467   1.432   2.574 -0.8482  0.4315  0.0718
   33MOL    H44 7148   6.453   1.460   2.405  0.3132  2.1210 -0.1939
   33MOL    H45 7149   6.528   1.582   2.505 -0.7153 -0.2342  1.7825
   33MOL    C46 7150   6.663   1.272   2.251  0.0973  0.4987 -1.0043
   33MOL    C47 7151   6.564   1.348   2.166 -0.5000  0.1379  0.5592
   33MOL    C48 7152   6.629   1.373   2.024  0.3339 -0.0443  0.1847
   33MOL    O49 7153   6.624   1.281   1.942  0.2333 -0.2590 -0.2964
   33MOL    C50 7154   6.691   1.508   1.996 -0.0570  0.1191  0.3733
   33MOL    H51 7155   6.658   1.169   2.214  0.3545 -0.4776  1.5791
   33MOL    H52 7156   6.766   1.303   2.236  0.2045  1.4773  1.4994
   33MOL    H53 7157   6.553   1.445   2.214  2.0499  1.1117 -0.6976
   33MOL    H54 7158   6.766   1.495   1.918 -0.6360 -3.0163  0.2579
   33MOL    H55 7159   6.614   1.567   1.947 -1.0230 -2.2173 -1.0194
   33MOL    H56 7160   6.721   1.553   2.091  0.6096  0.5632 -0.0481
   33MOL    C57 7161   6.429   1.272   2.153 -0.8041 -0.4665 -0.4539
   33MOL    C58 7162   6.314   1.358   2.082  0.1768  1.0967 -0.6061
   33MOL    C59 7163   6.241   1.266   1.986  0.3473 -0.0155  0.3004
   33MOL    O60 7164   6.139   1.209   2.008  0.1278 -0.3793 -0.2342
   33MOL    C61 7165   6.315   1.235   1.853 -0.3611  0.3106  0.0472
   33MOL    H62 7166   6.396   1.240   2.252 -2.4966  3.6987  0.4002
   33MOL    H63 7167   6.433   1.174   2.104  0.5573  0.6304 -2.5580
   33MOL    H64 7168   6.363   1.432   2.018 -1.1701  2.0795 -0.5343
   33MOL    H65 7169   6.386   1.313   1.826 -0.8133  1.0211  0.8695
   33MOL    H66 7170   6.375   1.145   1.863 -2.1650 -1.0997 -1.4911
   33MOL    H67 7171   6.248   1.220   1.769 -1.8869  1.3701  1.0387
   33MOL    C68 7172   6.228   1.442   2.188 -0.4211 -0.8127  0.5431
   33MOL    C69 7173   6.188   1.590   2.145  0.6878 -0.1038  0.3165
   33MOL    C70 7174   6.314   1.676   2.115  0.2928 -0.3852 -0.3398
   33MOL    O71 7175   6.422   1.646   2.156  0.1270  1.2583 -0.5618
   33MOL    C72 7176   6.292   1.800   2.032  0.4867 -0.0063 -0.0497
   33MOL    H73 7177   6.138   1.386   2.210 -1.6549  1.5076  1.5310
   33MOL    H74 7178   6.277   1.455   2.285  0.0188 -0.3654  0.2633
   33MOL    H75 7179   6.136   1.577   2.050 -1.0170 -2.0857  1.4389
   33MOL    H76 7180   6.190   1.797   1.996  0.1462  0.7059  0.8339
   33MOL    H77 7181   6.299   1.879   2.107  1.9673  1.1463 -1.3651
   33MOL    H78 7182   6.361   1.824   1.951  0.4947  1.3230  0.3324
   33MOL    C79 7183   6.102   1.650   2.262  0.3732  0.5082  0.3800
   33MOL    C80 7184   5.955   1.587   2.277 -0.1961 -0.5092 -0.1442
   33MOL    C81 7185   5.857   1.631   2.165 -0.0573  0.7113  0.7961
   33MOL    O82 7186   5.820   1.556   2.070  0.0341  0.0297  0.6790
   33MOL    C83 7187   5.795   1.769   2.181 -0.7693 -0.0380  0.2563
   33MOL    H84 7188   6.078   1.753   2.235 -2.7102 -0.9330 -2.8215
   33MOL    H85 7189   6.153   1.649   2.358  1.1915 -1.3909 -0.0624
   33MOL    H86 7190   5.974   1.480   2.265 -1.6471 -0.9183  0.9734
   33MOL    H87 7191   5.691   1.768   2.213 -0.4399 -0.4615  1.3333
   33MOL    H88 7192   5.820   1.815   2.085  2.1316 -1.3350  0.3302
   33MOL    H89 7193   5.840   1.842   2.248  0.3537  0.7393 -1.2918
   33MOL    C90 7194   5.893   1.602   2.412  0.1753  0.8172  0.1368
   33MOL    C91 7195   5.752   1.548   2.446 -0.1069 -0.6266 -0.1626
   33MOL    C92 7196   5.745   1.394   2.459  0.4669 -0.5463  0.8268
   33MOL    O93 7197   5.731   1.333   2.564 -0.2369 -0.5784 -0.4623
   33MOL    C94 7198   5.756   1.312   2.332 -0.4727  0.1483 -0.4701
   33MOL    H95 7199   5.957   1.555   2.487 -0.9818 -1.3653 -0.1990
   33MOL    H96 7200   5.894   1.710   2.431 -0.0607  1.0755 -1.2322
   33MOL    H97 7201   5.683   1.576   2.366  0.4702  2.3114  0.3363
   33MOL    H98 7202   5.655   1.291   2.297 -0.5334  0.6004 -0.5741
   33MOL    H99 7203   5.786   1.383   2.254 -1.0836  3.1737  1.9513
   33MOL   H100 7204   5.816   1.221   2.332  1.3237  1.2805  0.3534
   33MOL   C101 7205   5.692   1.618   2.573 -0.0505  0.2034 -0.3089
   33MOL   C102 7206   5.565   1.564   2.640  0.5491  0.3206  0.5293
   33MOL   C103 7207   5.429   1.591   2.564 -0.7765 -0.0098  0.0593
   33MOL   O104 7208   5.366   1.689   2.591  0.5031 -0.0380  0.3046
   33MOL   C105 7209   5.376   1.498   2.460 -0.0723  0.1256 -0.2012
   33MOL   H106 7210   5.778   1.607   2.638  0.5658  1.1917 -0.9450
   33MOL   H107 7211   5.673   1.724   2.559  0.4224  0.2202 -0.8525
   33MOL   H108 7212   5.565   1.455   2.634  0.5498  0.4315 -2.1821
   33MOL   H109 7213   5.463   1.436   2.435 -1.8762 -2.7169  0.4390
   33MOL   H110 7214   5.293   1.440   2.497 -0.3641 -0.4770 -1.7495
   33MOL   H111 7215   5.355   1.557   2.370  0.2350  1.5429  0.6385
   33MOL   C112 7216   5.555   1.603   2.790 -0.2030 -0.7835 -0.2393
   33MOL   C113 7217   5.467   1.514   2.872 -0.3404 -0.0853  0.2467
   33MOL   C114 7218   5.432   1.557   3.013  0.1980  0.1836  0.2653
   33MOL   O115 7219   5.315   1.548   3.050 -0.1515  0.0189 -0.3955
   33MOL   C116 7220   5.544   1.584   3.113 -0.3289 -0.1476 -0.5005
   33MOL   H117 7221   5.543   1.710   2.808 -0.6047 -1.2000  2.1105
   33MOL   H118 7222   5.655   1.595   2.831 -0.2132 -0.4035 -0.1398
   33MOL   H119 7223   5.370   1.530   2.824  0.1703  0.1382 -0.7234
   33MOL   H120 7224   5.636   1.618   3.065 -1.5817 -1.1622 -3.6972
   33MOL   H121 7225   5.488   1.656   3.171 -1.2346  0.8403 -2.5637
   33MOL   H122 7226   5.567   1.493   3.169  0.2971  0.9535  1.0983
   33MOL   C123 7227   5.514   1.363   2.866 -0.5545 -0.9126  0.0222
   33MOL   C124 7228   5.445   1.274   2.768  0.4083 -0.5798  0.0224
   33MOL   C125 7229   5.298   1.252   2.808 -0.2375  0.0014  0.5797
   33MOL   O126 7230   5.270   1.170   2.900 -0.7759  0.0587  0.6472
   33MOL   C127 7231   5.194   1.344   2.743 -0.2760  0.3041  0.2891
   33MOL   H128 7232   5.508   1.301   2.955 -1.5098  0.2967  0.8057
   33MOL   H129 7233   5.620   1.359   2.837 -0.0990  2.5064  1.0778
   33MOL   H130 7234   5.453   1.304   2.664  0.3843  0.5498  0.3409
   33MOL   H131 7235   5.094   1.341   2.786 -0.9980  0.3212 -1.3486
   33MOL   H132 7236   5.186   1.315   2.638  3.2875  0.1521 -0.0115
   33MOL   H133 7237   5.223   1.448   2.756  1.3689 -0.3545  2.2487
   33MOL   C134 7238   5.509   1.130   2.774 -0.3508  0.2549  0.2863
   33MOL   C135 7239   5.462   1.028   2.670 -0.7380 -0.1103 -0.5801
   33MOL   C136 7240   5.531   1.036   2.534 -0.3724 -0.2418 -0.1423
   33MOL   O137 7241   5.645   0.998   2.524  0.6156 -0.3802 -0.0164
   33MOL   C138 7242   5.455   1.123   2.427 -0.3918 -0.1730  0.5820
   33MOL   H139 7243   5.520   1.082   2.871  1.0332  2.5287  1.2954
   33MOL   H140 7244   5.611   1.141   2.738  0.8293 -1.8383  2.8657
   33MOL   H141 7245   5.355   1.044   2.659 -0.6358  1.2278  0.3475
   33MOL   H142 7246   5.347   1.116   2.418 -0.1281 -3.7844 -0.9533
   33MOL   H143 7247   5.510   1.120   2.333  0.9715  0.0398  1.3664
   33MOL   H144 7248   5.471   1.227   2.453 -2.2859  0.4046 -0.4970
   33MOL   C145 7249   5.496   0.883   2.715  0.3171  0.5722 -0.5827
   33MOL   C146 7250   5.397   0.824   2.818  1.0267 -0.3344 -0.0953
   33MOL   C147 7251   5.254   0.802   2.753 -0.0722 -0.2674  0.0244
   33MOL   O148 7252   5.240   0.758   2.638  0.2402 -0.1075 -0.2427
   33MOL   C149 7253   5.124   0.839   2.825 -0.4968 -0.4575  0.2711
   33MOL   H150 7254   5.597   0.894   2.756  0.2466 -1.0686  0.0857
   33MOL   H151 7255   5.491   0.807   2.637 -0.3395  1.5857 -1.5420
   33MOL   H152 7256   5.392   0.898   2.898  1.2573 -1.5510  1.0620
   33MOL   H153 7257   5.055   0.887   2.755  0.4228 -1.9285 -1.7069
   33MOL   H154 7258   5.084   0.750   2.873 -1.3772  0.4689  1.2985
   33MOL   H155 7259   5.157   0.913   2.898 -0.3332 -2.0635  1.8386
   33MOL   C156 7260   5.445   0.701   2.900 -0.5736  0.2865  0.3511
   33MOL   C157 7261   5.474   0.580   2.810 -0.1878  0.0799 -0.2386
   33MOL   C158 7262   5.358   0.484   2.809  0.3041  0.1823 -0.1225
   33MOL   O159 7263   5.301   0.445   2.912 -0.2004 -0.2447  0.2620
   33MOL   C160 7264   5.306   0.436   2.667  0.2762 -0.3114 -0.3912
   33MOL   H161 7265   5.535   0.736   2.951  0.7178  0.5285 -1.9993
   33MOL   H162 7266   5.374   0.681   2.980 -0.2528  0.5461  0.7041
   33MOL   H163 7267   5.501   0.603   2.707  2.1566  1.5284  0.6624
   33MOL   H164 7268   5.254   0.341   2.678 -1.7170  0.7965 -0.0239
   33MOL   H165 7269   5.385   0.427   2.592 -0.9172  1.3614 -1.8837
   33MOL   H166 7270   5.246   0.513   2.619  1.2706  0.9586  0.3762
   33MOL   C167 7271   5.612   0.507   2.857 -0.2358  0.2118 -0.2617
   33MOL   C168 7272   5.660   0.386   2.777 -0.6022 -0.3128  0.6074
   33MOL   C169 7273   5.724   0.276   2.863  0.3533 -0.5687 -0.1016
   33MOL   O170 7274   5.819   0.301   2.941  0.0137  0.0931  0.0411
   33MOL   C171 7275   5.661   0.135   2.878  0.2497 -0.3704  0.1793
   33MOL   H172 7276   5.694   0.580   2.859 -1.2335  1.5081 -3.3551
   33MOL   H173 7277   5.596   0.467   2.957 -0.8886 -0.7773 -0.7579
   33MOL   H174 7278   5.577   0.327   2.738 -0.7952 -0.1975  0.8526
   33MOL   H175 7279   5.722   0.049   2.904  2.7562  0.7721 -1.7068
   33MOL   H176 7280   5.624   0.110   2.778  0.9067 -0.4946 -0.0298
   33MOL   H177 7281   5.575   0.133   2.946 -1.0618 -1.0925 -1.4581
   33MOL   C178 7282   5.753   0.422   2.653  0.6390 -0.3265 -0.0695
   33MOL   C179 7283   5.772   0.316   2.551  0.3599 -0.0836  0.9028
   33MOL   C180 7284   5.911   0.323   2.487 -0.0131 -0.0100  0.1439
   33MOL   O181 7285   5.990   0.226   2.487  0.6503  0.7142  0.3341
   33MOL   C182 7286   5.932   0.448   2.399  0.7821  0.3344 -0.3396
   33MOL   H183 7287   5.721   0.510   2.598  0.3722 -0.7735 -0.6426
   33MOL   H184 7288   5.851   0.435   2.700  0.2488 -2.4091  1.3800
   33MOL   H185 7289   5.777   0.218   2.599  0.1511 -0.0271  1.0404
   33MOL   H186 7290   6.035   0.477   2.380  0.1426  0.2268 -4.4262
   33MOL   H187 7291   5.874   0.528   2.445 -1.1478 -0.6633 -0.9939
   33MOL   H188 7292   5.896   0.434   2.297 -0.2748 -0.6897  0.1752
   33MOL   C189 7293   5.655   0.308   2.452 -0.5923  0.5811 -0.1371
   33MOL   C190 7294   5.663   0.220   2.328  0.0694 -0.4845 -0.0562
   33MOL   C191 7295   5.676   0.069   2.370  0.1748 -0.2920  0.0794
   33MOL   O192 7296   5.626   0.034   2.477  0.0258  0.4839  0.3129
   33MOL   C193 7297   5.762   7.837   2.283 -0.3961  0.3057  0.0391
   33MOL   H194 7298   5.570   0.273   2.510  0.1873 -1.7432 -0.3489
   33MOL   H195 7299   5.629   0.410   2.425  0.5880  0.2880 -2.5504
   33MOL   H196 7300   5.745   0.262   2.270 -0.2757  0.0077 -0.1877
   33MOL   H197 7301   5.700   7.769   2.225 -0.1966  1.5319 -1.6602
   33MOL   H198 7302   5.821   0.038   2.212  0.8546 -1.5305 -0.4890
   33MOL   H199 7303   5.840   7.783   2.337  2.2086  1.9149 -1.9746
   33MOL   C200 7304   5.542   0.244   2.232 -0.1430  0.1754  0.2875
   33MOL   C201 7305   5.591   0.228   2.083 -0.2558 -0.5192  0.0937
   33MOL   C202 7306   5.692   0.335   2.040  0.5388  0.0857  0.6989
   33MOL   O203 7307   5.709   0.436   2.113  0.2489 -0.0186  0.4655
   33MOL   C204 7308   5.765   0.309   1.916  0.0539 -0.3545 -0.4987
   33MOL   H205 7309   5.449   0.186   2.238  0.2132 -0.5575 -0.9969
   33MOL   H206 7310   5.507   0.347   2.238  1.3351  0.7929 -1.1568
   33MOL   H207 7311   5.634   0.128   2.085 -0.9584 -0.8152  1.3907
   33MOL   H208 7312   5.796   0.206   1.900  1.2068  0.3783 -3.3536
   33MOL   H209 7313   5.709   0.343   1.829  0.6519  0.1506 -0.6886
   33MOL   H210 7314   5.855   0.371   1.913 -0.0865 -0.1945 -3.5241
   33MOL   C211 7315   5.459   0.210   1.997 -0.1787 -0.4327  0.1475
   33MOL   C212 7316   5.377   0.337   1.972  0.0369 -0.2541 -0.0968
   33MOL   C213 7317   5.392   0.404   1.840  0.5218 -1.0057  0.1040
   33MOL   O214 7318   5.427   0.349   1.731  0.2150  0.3182  0.1787
   33MOL   C215 7319   5.360   0.555   1.844 -0.7941 -0.5042  0.0975
   33MOL   H216 7320   5.496   0.178   1.900  1.9082  2.1394  0.0116
   33MOL   H217 7321   5.395   0.130   2.034 -0.6146  0.5355  1.5425
   33MOL   H218 7322   5.392   0.407   2.055  1.6980 -3.5214  2.5216
   33MOL   H219 7323   5.412   0.620   1.915 -0.8464  1.1293 -1.3054
   33MOL   H220 7324   5.377   0.611   1.752 -2.3015 -2.7838 -1.6019
   33MOL   H221 7325   5.255   0.555   1.874 -1.1062  1.4732 -0.9232
   33MOL   H222 7326   5.273   0.307   1.968 -0.7063  2.2275 -0.2127
   34MOL     C1 7327   7.566   4.717   4.537 -0.3770 -0.4685  0.3940
   34MOL     C2 7328   7.493   4.767   4.660 -0.1760  0.0686 -0.1567
   34MOL     C3 7329   7.552   4.733   4.798 -0.1942  0.4127  0.6909
   34MOL     O4 7330   7.507   4.784   4.901 -0.4986  0.0407 -0.1566
   34MOL     C5 7331   7.677   4.647   4.802 -0.0592  0.3389  0.0922
   34MOL     H6 7332   7.499   4.743   4.455  1.7642 -1.0548 -1.5932
   34MOL     H7 7333   7.565   4.608   4.533 -2.8801 -0.4121 -2.9988
   34MOL     H8 7334   7.404   4.705   4.658 -0.2957  0.2781 -1.5673
   34MOL     H9 7335   7.665   4.584   4.890  0.3402  1.3137  0.8513
   34MOL    H10 7336   7.691   4.596   4.707 -1.7201 -0.5477  0.2934
   34MOL    H11 7337   7.767   4.705   4.819  1.7433 -2.2128 -0.5245
   34MOL    H12 7338   7.667   4.757   4.533 -0.8422  0.7490  0.4300
   34MOL    C13 7339   7.476   4.922   4.649 -0.4997 -0.5262 -0.6572
   34MOL    C14 7340   7.349   4.987   4.700  0.1595 -0.3314 -0.1138
   34MOL    C15 7341   7.219   4.947   4.633  0.9953 -0.2140 -0.3587
   34MOL    O16 7342   7.165   5.019   4.548 -0.0700  0.5673  0.2437
   34MOL    C17 7343   7.172   4.809   4.666  0.6205  0.3099 -0.1296
   34MOL    H18 7344   7.567   4.980   4.666 -0.6731 -0.6230  0.6395
   34MOL    H19 7345   7.477   4.944   4.542  1.0485 -1.7432 -0.9261
   34MOL    H20 7346   7.325   4.943   4.797  0.3011  2.0804  1.0793
   34MOL    H21 7347   7.193   4.735   4.589 -0.1037 -0.1185  0.0692
   34MOL    H22 7348   7.200   4.766   4.763 -2.7470 -3.3340 -0.6491
   34MOL    H23 7349   7.063   4.807   4.674  0.6403 -3.3521  0.1357
   34MOL    C24 7350   7.371   5.136   4.726 -1.2373  0.0026  0.4223
   34MOL    C25 7351   7.337   5.198   4.861 -0.2651 -0.1676 -0.5914
   34MOL    C26 7352   7.182   5.215   4.891 -0.3345 -0.2226  0.1175
   34MOL    O27 7353   7.114   5.142   4.965  0.4878  0.0955 -0.4941
   34MOL    C28 7354   7.113   5.318   4.804 -0.2223  0.2579 -0.1944
   34MOL    H29 7355   7.476   5.164   4.717 -0.5764 -2.0141  1.3524
   34MOL    H30 7356   7.324   5.192   4.646 -0.7310 -0.1065  0.0471
   34MOL    H31 7357   7.376   5.300   4.860  0.6381 -0.4485  1.5198
   34MOL    H32 7358   7.169   5.323   4.711  2.1713 -1.7507  1.0982
   34MOL    H33 7359   7.010   5.282   4.800  0.1892 -0.9049 -0.6527
   34MOL    H34 7360   7.120   5.418   4.847 -2.2602  0.2354  0.2491
   34MOL    C35 7361   7.401   5.124   4.980 -0.6543  0.3486 -0.7815
   34MOL    C36 7362   7.555   5.116   4.976  0.3444 -0.3061  0.3892
   34MOL    C37 7363   7.614   5.261   4.983  0.6380 -0.3432 -0.7990
   34MOL    O38 7364   7.594   5.341   5.078 -0.1043  0.5270 -0.1221
   34MOL    C39 7365   7.699   5.311   4.870  0.3387 -0.0189  0.5860
   34MOL    H40 7366   7.353   5.026   4.985 -0.3181  0.2823  1.9258
   34MOL    H41 7367   7.368   5.161   5.077 -0.7793 -0.5839 -0.4599
   34MOL    H42 7368   7.584   5.064   4.884  1.5131  2.4376 -0.8484
   34MOL    H43 7369   7.654   5.287   4.773  0.4387 -0.7181  0.7130
   34MOL    H44 7370   7.794   5.258   4.873  0.8888  0.9707  0.6957
   34MOL    H45 7371   7.709   5.418   4.889  0.2363  0.2974 -1.0644
   34MOL    C46 7372   7.600   5.041   5.105  0.3773  0.1289  0.7135
   34MOL    C47 7373   7.748   5.028   5.135 -0.0058 -1.0778  0.4826
   34MOL    C48 7374   7.776   4.989   5.284 -0.5959  0.1629 -0.0951
   34MOL    O49 7375   7.771   4.874   5.313 -0.5145  0.7952 -0.7995
   34MOL    C50 7376   7.791   5.104   5.383  0.0766  0.9267  0.4631
   34MOL    H51 7377   7.553   4.943   5.097 -1.1305  0.7947  1.1798
   34MOL    H52 7378   7.539   5.081   5.186  0.1966 -0.2601  0.7717
   34MOL    H53 7379   7.802   5.121   5.114  0.0732 -1.0100  0.9884
   34MOL    H54 7380   0.040   5.127   5.388  0.6026 -1.4220  0.8270
   34MOL    H55 7381   7.719   5.186   5.378 -0.2354  0.6640  0.6429
   34MOL    H56 7382   7.756   5.063   5.478 -1.0238 -1.0972 -0.7713
   34MOL    C57 7383   7.813   4.928   5.037 -0.0142 -0.6461  0.0762
   34MOL    C58 7384   0.103   4.918   5.044  1.0149 -0.1537  0.2117
   34MOL    C59 7385   0.150   4.775   5.016 -0.1393  0.1575  0.6187
   34MOL    O60 7386   0.178   4.733   4.904  0.3730 -0.3110  0.2656
   34MOL    C61 7387   0.181   4.698   5.142  0.1300  0.9145  0.2627
   34MOL    H62 7388   7.780   4.954   4.936  0.6222  1.5326  0.4198
   34MOL    H63 7389   7.772   4.827   5.045 -0.6943 -0.6136 -2.5649
   34MOL    H64 7390   0.131   4.933   5.148  0.1901  4.2559 -0.1050
   34MOL    H65 7391   0.094   4.685   5.206  0.0853  0.8429  0.1883
   34MOL    H66 7392   0.211   4.599   5.107  0.0979  0.5862  1.1491
   34MOL    H67 7393   0.263   4.745   5.195  0.2149  0.3419  0.6389
   34MOL    C68 7394   0.171   5.024   4.962 -0.2376  0.0783 -0.1714
   34MOL    C69 7395   0.316   5.058   4.987  0.2102  0.7044 -0.2546
   34MOL    C70 7396   0.330   5.110   5.134 -0.2092 -0.0199 -0.4677
   34MOL    O71 7397   0.285   5.218   5.168 -0.4815  0.0367  0.4092
   34MOL    C72 7398   0.406   5.030   5.233 -0.3054  0.3712  0.1182
   34MOL    H73 7399   0.155   5.003   4.856 -0.8677 -0.1912 -0.0276
   34MOL    H74 7400   0.121   5.119   4.981  0.8313  0.7955 -0.9673
   34MOL    H75 7401   0.362   4.961   4.971 -1.6061 -0.2185  0.0525
   34MOL    H76 7402   0.400   5.076   5.332 -1.7917  0.9333 -0.2186
   34MOL    H77 7403   0.377   4.925   5.230  2.2876 -0.3419 -2.0364
   34MOL    H78 7404   0.509   5.022   5.197 -1.2923 -0.3076 -2.6192
   34MOL    C79 7405   0.364   5.175   4.885  0.6657 -0.3156 -0.1457
   34MOL    C80 7406   0.341   5.147   4.732 -0.6706 -0.1218  0.2470
   34MOL    C81 7407   0.459   5.187   4.641 -0.2411  0.2729  0.0154
   34MOL    O82 7408   0.464   5.280   4.557 -0.3070 -0.2450 -0.4724
   34MOL    C83 7409   0.579   5.091   4.643  0.2750 -0.2385 -0.1950
   34MOL    H84 7410   0.465   5.185   4.923  1.2285 -0.6511 -1.5183
   34MOL    H85 7411   0.313   5.268   4.912 -1.4350 -1.7035  0.8563
   34MOL    H86 7412   0.333   5.039   4.721  0.5372 -0.0112 -1.8817
   34MOL    H87 7413   0.581   5.043   4.740  1.4968 -0.3094 -0.2453
   34MOL    H88 7414   0.668   5.154   4.631 -0.4393  0.6745 -0.8120
   34MOL    H89 7415   0.570   5.012   4.568 -1.4058  1.3018 -1.6809
   34MOL    C90 7416   0.214   5.209   4.679  0.1962 -0.1876 -0.1959
   34MOL    C91 7417   0.161   5.148   4.551 -0.1167  0.0749  0.4400
   34MOL    C92 7418   0.091   5.021   4.589 -0.2315  0.2565 -0.0226
   34MOL    O93 7419   7.835   5.021   4.638 -0.4727  1.0627  0.5678
   34MOL    C94 7420   0.168   4.893   4.568  0.0074  0.3785  0.6559
   34MOL    H95 7421   0.144   5.210   4.762  0.6700 -0.2216  0.2084
   34MOL    H96 7422   0.243   5.314   4.665 -0.5063  0.5017  3.0065
   34MOL    H97 7423   0.243   5.119   4.486  0.9878  0.4697  1.6568
   34MOL    H98 7424   0.200   4.840   4.657  1.2153 -1.4163 -0.7981
   34MOL    H99 7425   0.097   4.824   4.521  1.0404  0.8340 -1.6769
   34MOL   H100 7426   0.250   4.900   4.496 -2.7424  0.9218 -2.5766
   34MOL   C101 7427   0.082   5.250   4.473 -0.0718  0.4367  0.0735
   34MOL   C102 7428   0.029   5.200   4.340  0.2214 -0.2451 -0.0906
   34MOL   C103 7429   0.138   5.167   4.239 -0.5840 -0.0912 -0.4098
   34MOL   O104 7430   0.212   5.252   4.184  0.2467  0.4484 -0.7677
   34MOL   C105 7431   0.168   5.018   4.216 -0.0466  0.2492  0.0193
   34MOL   H106 7432   0.005   5.303   4.530  1.6243  2.1634  0.8010
   34MOL   H107 7433   0.146   5.336   4.455  0.7989  0.0297  1.1815
   34MOL   H108 7434   7.832   5.106   4.349  1.0770 -0.6705  0.7135
   34MOL   H109 7435   0.202   4.979   4.312  1.5777  1.4796 -0.0289
   34MOL   H110 7436   0.093   4.964   4.160  1.0605 -0.7316 -0.5515
   34MOL   H111 7437   0.247   5.026   4.142 -0.3983  0.6963 -0.3035
   34MOL   C112 7438   7.793   5.304   4.276  0.6763  0.0094 -0.1441
   34MOL   C113 7439   7.651   5.300   4.348 -1.0800 -0.2638 -0.2884
   34MOL   C114 7440   7.571   5.171   4.317  0.2560 -0.1271 -0.1362
   34MOL   O115 7441   7.614   5.077   4.251 -0.4029  0.0901 -0.0537
   34MOL   C116 7442   7.437   5.163   4.378  1.4307 -0.0511 -0.4154
   34MOL   H117 7443   7.767   5.295   4.170 -1.1703  0.5597  0.2455
   34MOL   H118 7444   7.832   5.405   4.289  0.8160 -0.4550  3.4374
   34MOL   H119 7445   7.667   5.291   4.455 -0.4301 -2.5435 -0.5532
   34MOL   H120 7446   7.354   5.214   4.329  2.3625  0.5034 -1.4331
   34MOL   H121 7447   7.399   5.063   4.398  0.5033  0.4460  0.3054
   34MOL   H122 7448   7.446   5.212   4.475 -0.1997 -0.2958 -0.1321
   34MOL   C123 7449   7.577   5.425   4.318 -0.7179 -0.4288 -0.1001
   34MOL   C124 7450   7.604   5.550   4.405 -0.2204 -0.5613 -0.5631
   34MOL   C125 7451   7.557   5.522   4.551  0.1249 -0.3683 -0.3272
   34MOL   O126 7452   7.445   5.479   4.574  0.5084  0.0812  0.3514
   34MOL   C127 7453   7.650   5.536   4.663  0.2188  0.3455  0.2089
   34MOL   H128 7454   7.469   5.409   4.324 -0.8364 -1.1457 -3.1654
   34MOL   H129 7455   7.593   5.440   4.211  2.9411  0.0441  0.4569
   34MOL   H130 7456   7.710   5.576   4.410 -0.8610  1.7656  1.7513
   34MOL   H131 7457   7.678   5.639   4.683  0.9410  0.1585  0.1764
   34MOL   H132 7458   7.747   5.487   4.652  0.2952  0.7293 -0.9377
   34MOL   H133 7459   7.597   5.503   4.752 -1.4084  0.3110 -0.7592
   34MOL   C134 7460   7.543   5.679   4.347  0.3131  0.2394  0.2345
   34MOL   C135 7461   7.545   5.805   4.438 -0.4715  0.3174 -0.2155
   34MOL   C136 7462   7.685   5.868   4.452  0.4014  0.2162 -0.5350
   34MOL   O137 7463   7.732   5.869   4.563 -0.3098 -0.4542  0.1635
   34MOL   C138 7464   7.761   5.918   4.328  0.3060  0.0611  0.1899
   34MOL   H139 7465   7.441   5.645   4.328  0.2540  1.9799 -2.7785
   34MOL   H140 7466   7.581   5.698   4.247 -2.0078  1.2448 -0.5036
   34MOL   H141 7467   7.513   5.777   4.538  0.0652 -0.3447 -0.2278
   34MOL   H142 7468   7.787   5.843   4.254  0.0247  1.0576 -0.9309
   34MOL   H143 7469   0.003   5.949   4.359  0.0309  2.1284 -0.9609
   34MOL   H144 7470   7.702   5.997   4.282 -0.1536 -0.1937  0.3310
   34MOL   C145 7471   7.439   5.913   4.405  0.1857  0.3162 -0.0028
   34MOL   C146 7472   7.290   5.874   4.437  0.3752  0.9781  0.1309
   34MOL   C147 7473   7.259   5.840   4.583 -0.2109  0.2016 -0.5237
   34MOL   O148 7474   7.301   5.916   4.668 -0.0019  0.0458 -0.4362
   34MOL   C149 7475   7.183   5.718   4.624 -0.5355 -0.1956  0.3029
   34MOL   H150 7476   7.445   5.932   4.298  1.1077  1.5592  0.2462
   34MOL   H151 7477   7.455   6.007   4.458  0.2928 -0.1762  0.8458
   34MOL   H152 7478   7.267   5.789   4.373 -0.5217 -0.0716  1.8269
   34MOL   H153 7479   7.124   5.693   4.536 -0.9172 -2.2016  1.0975
   34MOL   H154 7480   7.250   5.633   4.642 -0.4787 -0.5522 -1.4453
   34MOL   H155 7481   7.122   5.739   4.712 -2.2834 -0.0022 -0.9309
   34MOL   C156 7482   7.201   5.998   4.391  0.3895 -0.9415 -0.0023
   34MOL   C157 7483   7.064   5.955   4.335 -0.2162  0.4711  0.5565
   34MOL   C158 7484   7.076   5.911   4.184  0.7294 -0.6574  0.2481
   34MOL   O159 7485   7.182   5.903   4.130 -0.2432 -0.0023  0.4624
   34MOL   C160 7486   6.949   5.878   4.112  0.3183 -0.0127 -0.4456
   34MOL   H161 7487   7.189   6.073   4.469 -1.8917 -2.0248  0.7405
   34MOL   H162 7488   7.239   6.053   4.305 -3.5489  0.1827 -1.1564
   34MOL   H163 7489   7.022   5.873   4.393 -2.1259  2.1646  1.6186
   34MOL   H164 7490   6.942   5.952   4.033  0.1129  0.4239 -0.0231
   34MOL   H165 7491   6.858   5.889   4.171  1.1778  1.5382  0.6389
   34MOL   H166 7492   6.957   5.774   4.080  0.4167 -0.1477  0.0045
   34MOL   C167 7493   6.963   6.069   4.361  0.4476  0.3045 -0.8589
   34MOL   C168 7494   6.885   6.056   4.494  1.6203 -0.3364 -0.7759
   34MOL   C169 7495   6.806   5.929   4.514 -0.5075 -0.9099  0.6364
   34MOL   O170 7496   6.691   5.919   4.463  0.1991  0.3973  0.0659
   34MOL   C171 7497   6.862   5.826   4.604  0.0274 -1.4884 -0.0061
   34MOL   H172 7498   7.019   6.163   4.370 -2.7475  2.0694  1.6303
   34MOL   H173 7499   6.893   6.086   4.280  2.0351  1.7003 -1.9745
   34MOL   H174 7500   6.960   6.048   4.573  0.2822 -2.2087  0.3186
   34MOL   H175 7501   6.941   5.861   4.670 -1.4621 -1.5336  1.8345
   34MOL   H176 7502   6.899   5.749   4.536  1.0308  1.4641 -2.9162
   34MOL   H177 7503   6.790   5.788   4.676  1.2942 -0.6403  1.7315
   34MOL   C178 7504   6.812   6.195   4.523 -0.0500 -0.5224 -0.1061
   34MOL   C179 7505   6.811   6.247   4.667  0.4417  0.9161 -0.1858
   34MOL   C180 7506   6.731   6.164   4.766  0.1237  0.0645 -0.2075
   34MOL   O181 7507   6.775   6.101   4.863  0.1873  0.2128 -0.3037
   34MOL   C182 7508   6.579   6.142   4.735 -0.2994  0.4762  0.3490
   34MOL   H183 7509   6.853   6.273   4.459 -1.0129 -1.2171 -1.6118
   34MOL   H184 7510   6.709   6.181   4.490  0.7816 -1.4848 -2.3745
   34MOL   H185 7511   6.917   6.230   4.687  0.3096  0.9370  0.5686
   34MOL   H186 7512   6.572   6.033   4.744  1.5181  0.2984 -0.1059
   34MOL   H187 7513   6.553   6.171   4.633 -0.3190  2.1718  0.8288
   34MOL   H188 7514   6.509   6.194   4.799 -0.1008 -1.1139  1.8992
   34MOL   C189 7515   6.788   6.403   4.674  0.0364 -0.0378 -0.1591
   34MOL   C190 7516   6.775   6.472   4.813 -0.2243 -0.0204 -0.1071
   34MOL   C191 7517   6.856   6.403   4.927 -0.3073 -0.4922 -0.6234
   34MOL   O192 7518   6.972   6.371   4.911  0.5269  0.3918  0.5872
   34MOL   C193 7519   6.793   6.384   5.062  0.3599  0.2687  0.2388
   34MOL   H194 7520   6.865   6.462   4.625 -1.1372  1.5572 -0.1237
   34MOL   H195 7521   6.694   6.426   4.623 -0.9174 -1.9954  0.6764
   34MOL   H196 7522   6.674   6.463   4.853  0.2729 -0.7285  1.0168
   34MOL   H197 7523   6.807   6.279   5.084  1.6861  0.0206 -1.6831
   34MOL   H198 7524   6.838   6.445   5.141 -0.3671  1.6667 -0.4134
   34MOL   H199 7525   6.686   6.405   5.054  0.6294  1.8083  0.3446
   34MOL   C200 7526   6.807   6.627   4.799 -0.1151  0.2039 -0.0184
   34MOL   C201 7527   6.786   6.711   4.926  0.0946  0.2750 -0.0202
   34MOL   C202 7528   6.633   6.747   4.966 -0.2841 -0.3738  0.7660
   34MOL   O203 7529   6.565   6.817   4.887 -0.2792  0.1878  0.0310
   34MOL   C204 7530   6.569   6.680   5.089 -0.2206 -0.1251 -0.4144
   34MOL   H205 7531   6.908   6.645   4.762  0.6245 -1.1843  1.2897
   34MOL   H206 7532   6.733   6.660   4.726  0.0606  0.7136  0.0340
   34MOL   H207 7533   6.825   6.657   5.012 -0.4664 -0.3490 -0.1520
   34MOL   H208 7534   6.500   6.607   5.047 -0.6527 -3.9478  6.3236
   34MOL   H209 7535   6.644   6.618   5.139  1.0453 -1.5630 -3.9083
   34MOL   H210 7536   6.520   6.757   5.149  1.4588  0.3936  0.3311
   34MOL   C211 7537   6.871   6.833   4.929  0.4811 -1.2848 -0.0507
   34MOL   C212 7538   6.992   6.828   5.025  0.2522 -0.2643  0.3799
   34MOL   C213 7539   6.960   6.840   5.170  0.4656 -0.2341 -0.0830
   34MOL   O214 7540   6.845   6.841   5.208  0.5586  0.1604  0.0266
   34MOL   C215 7541   7.076   6.817   5.271  0.1475 -0.6485 -0.2779
   34MOL   H216 7542   6.915   6.855   4.832  1.5264 -1.4234  0.3874
   34MOL   H217 7543   6.820   6.924   4.963  1.4739  0.0944 -2.1921
   34MOL   H218 7544   7.055   6.912   4.995  0.9373 -1.3460 -1.3067
   34MOL   H219 7545   7.172   6.775   5.242  0.8435  0.3162  0.5889
   34MOL   H220 7546   7.104   6.917   5.303  0.0571 -0.1890 -1.6312
   34MOL   H221 7547   7.041   6.755   5.354  1.9075 -1.1329  0.1241
   34MOL   H222 7548   7.061   6.744   5.012  1.0680  0.5832 -0.8603
   35MOL     C1 7549   1.710   4.102   6.681 -0.6947 -0.3572 -0.1856
   35MOL     C2 7550   1.824   4.013   6.747 -0.1201 -0.1154 -0.2449
   35MOL     C3 7551   1.764   3.871   6.771 -0.0681  0.2899  0.1703
   35MOL     O4 7552   1.802   3.782   6.705 -0.2628 -0.0380  0.1821
   35MOL     C5 7553   1.660   3.858   6.878  0.0705 -0.4078 -0.0490
   35MOL     H6 7554   1.749   4.199   6.653  1.9503 -1.1163  0.7172
   35MOL     H7 7555   1.634   4.113   6.759 -1.0625 -3.7578  0.0415
   35MOL     H8 7556   1.844   4.059   6.844  0.7711  0.4907 -0.7115
   35MOL     H9 7557   1.692   3.913   6.967 -0.3358 -0.0794 -0.1025
   35MOL    H10 7558   1.569   3.902   6.838  1.5750  0.6997 -2.3842
   35MOL    H11 7559   1.646   3.755   6.910 -0.8340 -0.5795 -0.9728
   35MOL    H12 7560   1.667   4.059   6.590  1.0492 -1.5071 -0.4904
   35MOL    C13 7561   1.957   4.004   6.662 -0.5538  0.3060  0.9335
   35MOL    C14 7562   2.079   3.964   6.750 -0.4843  0.0047  0.0551
   35MOL    C15 7563   2.115   4.083   6.841 -0.2053  0.3715 -0.3291
   35MOL    O16 7564   2.062   4.191   6.823  0.0750  0.1786 -0.1706
   35MOL    C17 7565   2.205   4.061   6.960 -0.2010  0.3806 -0.3821
   35MOL    H18 7566   1.939   3.938   6.577  0.8048  0.2497  0.6771
   35MOL    H19 7567   1.976   4.098   6.611 -1.8998 -1.5101 -3.1791
   35MOL    H20 7568   2.051   3.884   6.819 -0.6433  0.9349  1.0804
   35MOL    H21 7569   2.236   3.959   6.984 -0.1494  0.4787 -0.0249
   35MOL    H22 7570   2.301   4.110   6.944 -0.9345  1.8160 -0.4087
   35MOL    H23 7571   2.159   4.094   7.053 -1.8975 -0.0217 -1.0742
   35MOL    C24 7572   2.199   3.925   6.659 -0.2396 -0.4341  0.0960
   35MOL    C25 7573   2.315   3.848   6.732 -0.1258  0.0807  0.2812
   35MOL    C26 7574   2.262   3.721   6.804  0.5176 -0.0302 -0.0855
   35MOL    O27 7575   2.170   3.662   6.754  0.1570 -0.0605  0.1840
   35MOL    C28 7576   2.320   3.695   6.941 -0.2767  0.5077  0.5243
   35MOL    H29 7577   2.159   3.867   6.576 -0.5367 -0.2110  0.0817
   35MOL    H30 7578   2.231   4.014   6.604 -3.8730  0.4960 -0.6478
   35MOL    H31 7579   2.365   3.921   6.796  0.5037  1.5532 -1.7980
   35MOL    H32 7580   2.428   3.711   6.946 -0.0408 -1.2374  2.0431
   35MOL    H33 7581   2.273   3.741   7.028 -2.0578 -1.0305  0.4113
   35MOL    H34 7582   2.317   3.589   6.966  2.3020 -0.0892 -1.4587
   35MOL    C35 7583   2.419   3.802   6.622 -0.5110 -0.1033 -0.1166
   35MOL    C36 7584   2.551   3.727   6.660  0.3889 -0.3112  0.2659
   35MOL    C37 7585   2.634   3.694   6.533 -0.7039 -0.2334  0.7843
   35MOL    O38 7586   2.602   3.739   6.422  0.1431 -0.4097  0.1576
   35MOL    C39 7587   2.751   3.606   6.538 -0.0991  1.1743  0.2721
   35MOL    H40 7588   2.449   3.892   6.568  0.3279 -0.4741 -0.2787
   35MOL    H41 7589   2.366   3.734   6.556  0.5846 -0.2305 -0.8799
   35MOL    H42 7590   2.520   3.631   6.702 -0.2116  1.2257  3.4777
   35MOL    H43 7591   2.812   3.629   6.625 -0.1814  0.9815  0.3782
   35MOL    H44 7592   2.804   3.616   6.443 -0.5445  1.4979  0.0556
   35MOL    H45 7593   2.715   3.503   6.536  1.1836  0.7268 -0.1977
   35MOL    C46 7594   2.642   3.807   6.755 -0.0262 -0.1853  0.4959
   35MOL    C47 7595   2.716   3.931   6.702 -0.6398  0.0856  0.5085
   35MOL    C48 7596   2.627   4.054   6.682  0.8218  0.1384  0.2321
   35MOL    O49 7597   2.534   4.070   6.755  0.3015 -0.1087  0.1226
   35MOL    C50 7598   2.662   4.145   6.572 -0.6992  0.5855  0.1831
   35MOL    H51 7599   2.711   3.730   6.790  0.8039  0.9354  1.3731
   35MOL    H52 7600   2.580   3.837   6.840 -0.6375 -0.0573  0.0101
   35MOL    H53 7601   2.757   3.918   6.602 -0.1138 -0.1840  0.7543
   35MOL    H54 7602   2.754   4.198   6.600  1.4139 -2.6493 -0.3890
   35MOL    H55 7603   2.680   4.086   6.482 -3.1681 -0.5514  0.4175
   35MOL    H56 7604   2.582   4.214   6.548 -1.3320 -1.0410 -2.5464
   35MOL    C57 7605   2.842   3.950   6.797  0.8490  0.6944  0.3219
   35MOL    C58 7606   2.798   3.981   6.937  0.0121 -0.5340 -0.1267
   35MOL    C59 7607   2.851   3.880   7.036 -0.2580  0.6447 -0.2384
   35MOL    O60 7608   2.961   3.888   7.086  0.4700  0.4476  0.0862
   35MOL    C61 7609   2.759   3.766   7.072 -0.2383 -0.3777 -0.6248
   35MOL    H62 7610   2.908   4.032   6.768  0.6407  0.8772  0.3574
   35MOL    H63 7611   2.904   3.862   6.784  0.9406  0.3471  2.7646
   35MOL    H64 7612   2.690   3.972   6.950 -0.0811  0.1403 -0.4032
   35MOL    H65 7613   2.693   3.799   7.152  0.6279 -1.2090  0.4458
   35MOL    H66 7614   2.694   3.746   6.987 -0.5077  0.9136 -0.7448
   35MOL    H67 7615   2.814   3.683   7.116  3.2879  1.4441 -1.3714
   35MOL    C68 7616   2.833   4.134   6.973  0.0523  0.0101 -0.8517
   35MOL    C69 7617   2.790   4.166   7.123 -0.1679 -0.5529  0.0299
   35MOL    C70 7618   2.643   4.216   7.138 -0.2224 -0.3154 -0.3446
   35MOL    O71 7619   2.620   4.335   7.131 -0.4529  0.4743  0.5866
   35MOL    C72 7620   2.538   4.112   7.131  0.3419  0.2654 -0.3200
   35MOL    H73 7621   2.941   4.150   6.964 -0.1654  1.6239 -0.7969
   35MOL    H74 7622   2.778   4.205   6.911 -0.0705  0.7025  0.0440
   35MOL    H75 7623   2.792   4.075   7.183 -2.0221  0.3590  1.5214
   35MOL    H76 7624   2.566   4.009   7.156  1.3422  0.5855 -0.1296
   35MOL    H77 7625   2.464   4.133   7.209  0.6505 -1.3681  0.4336
   35MOL    H78 7626   2.493   4.098   7.032  0.4750 -0.3419 -0.2992
   35MOL    C79 7627   2.896   4.261   7.186  0.7582  0.1831  0.1703
   35MOL    C80 7628   3.025   4.187   7.237 -0.5916 -0.1307  0.3688
   35MOL    C81 7629   3.003   4.128   7.377  0.2037  0.5964 -0.2814
   35MOL    O82 7630   2.911   4.176   7.446  0.4123  0.2187  0.6922
   35MOL    C83 7631   3.083   4.004   7.428  0.3833 -0.3099  0.2966
   35MOL    H84 7632   2.858   4.329   7.262 -1.7722 -0.5259 -0.4341
   35MOL    H85 7633   2.937   4.322   7.104  0.1957  2.3980  1.5012
   35MOL    H86 7634   3.046   4.107   7.166 -0.4186  0.4977 -0.2948
   35MOL    H87 7635   3.148   3.957   7.354 -1.2391 -0.6137 -0.9523
   35MOL    H88 7636   3.010   3.937   7.475  2.1197 -0.4951  2.8639
   35MOL    H89 7637   3.145   4.036   7.512 -0.0913  1.2045  0.0831
   35MOL    C90 7638   3.145   4.286   7.243  0.3438  1.2056  0.6695
   35MOL    C91 7639   3.279   4.249   7.174  0.6024 -0.1960 -0.0878
   35MOL    C92 7640   3.274   4.284   7.027  0.2058  0.2579 -0.3742
   35MOL    O93 7641   3.186   4.355   6.984  0.5818 -0.3458 -0.0013
   35MOL    C94 7642   3.379   4.224   6.940  0.6642 -0.2568  0.3278
   35MOL    H95 7643   3.112   4.385   7.212 -0.5776  0.3029 -1.4041
   35MOL    H96 7644   3.152   4.304   7.350 -0.7155  0.1626  0.9287
   35MOL    H97 7645   3.301   4.142   7.174 -1.9642 -0.7563 -0.4198
   35MOL    H98 7646   3.412   4.127   6.978 -0.9655 -1.2757 -0.7881
   35MOL    H99 7647   3.331   4.215   6.842 -4.7310 -2.5110  2.9614
   35MOL   H100 7648   3.461   4.296   6.939 -1.3743  2.1477  0.4582
   35MOL   C101 7649   3.405   4.307   7.240 -0.6818  0.0420  0.8189
   35MOL   C102 7650   3.457   4.231   7.365  0.0913 -0.3832  0.3371
   35MOL   C103 7651   3.485   4.076   7.343  0.1901 -0.6947 -0.6309
   35MOL   O104 7652   3.447   3.994   7.424 -0.6172  0.0653  0.8678
   35MOL   C105 7653   3.576   4.040   7.225  0.5405  0.2676  0.4939
   35MOL   H106 7654   3.472   4.322   7.156 -1.5704 -0.4964  0.0036
   35MOL   H107 7655   3.388   4.413   7.260  0.1375 -0.2324  3.2116
   35MOL   H108 7656   3.555   4.277   7.381  0.3181  0.0532 -2.1060
   35MOL   H109 7657   3.675   4.058   7.266 -0.0141 -1.1232  2.5453
   35MOL   H110 7658   3.559   3.935   7.198 -0.7095  0.1123  1.8270
   35MOL   H111 7659   3.564   4.104   7.138  0.6206 -0.0150  0.2754
   35MOL   C112 7660   3.378   4.264   7.505 -0.7723  0.4486 -0.0817
   35MOL   C113 7661   3.462   4.221   7.637  0.1019  0.3457  0.6859
   35MOL   C114 7662   3.368   4.177   7.754 -0.8088  0.5876  0.3337
   35MOL   O115 7663   3.267   4.240   7.775  0.0618 -0.0102  0.4861
   35MOL   C116 7664   3.419   4.074   7.851 -0.1467 -0.8827  0.0538
   35MOL   H117 7665   3.285   4.209   7.493 -1.1646  0.4412  2.7001
   35MOL   H118 7666   3.357   4.371   7.507  1.3897  0.9453 -1.7066
   35MOL   H119 7667   3.514   4.127   7.620  0.0594  0.8363 -2.6319
   35MOL   H120 7668   3.438   3.989   7.786 -1.4186 -0.2721 -1.1391
   35MOL   H121 7669   3.508   4.111   0.045 -0.4282 -1.4211  0.9329
   35MOL   H122 7670   3.345   4.056   0.071 -0.0043  0.6943  0.5842
   35MOL   C123 7671   3.562   4.331   7.690  0.4090  0.9708 -0.7681
   35MOL   C124 7672   3.665   4.394   7.605  1.0809  0.0165  0.2941
   35MOL   C125 7673   3.784   4.299   7.576 -0.6404 -0.6483 -0.2441
   35MOL   O126 7674   3.844   4.244   7.671  0.5421 -0.0812 -0.1448
   35MOL   C127 7675   3.823   4.276   7.429  0.1347  0.0590 -0.1580
   35MOL   H128 7676   3.607   4.292   7.781 -1.4383  0.3136 -0.1026
   35MOL   H129 7677   3.497   4.411   7.727 -0.6596 -0.3573  0.2872
   35MOL   H130 7678   3.614   4.398   7.509  0.9127 -1.7024  0.2873
   35MOL   H131 7679   3.785   4.345   7.354  1.6717  1.2011  0.1028
   35MOL   H132 7680   3.816   4.173   7.393  2.4366  0.1006 -0.8372
   35MOL   H133 7681   3.931   4.292   7.423  0.2276 -0.3031  0.4809
   35MOL   C134 7682   3.694   4.534   7.648  0.3119  0.6799 -0.3305
   35MOL   C135 7683   3.752   4.625   7.541 -0.2219  0.0956  0.2240
   35MOL   C136 7684   3.665   4.628   7.414 -0.0317 -1.0651  0.0838
   35MOL   O137 7685   3.698   4.572   7.310  0.1893 -0.5480  0.3967
   35MOL   C138 7686   3.531   4.687   7.422  0.2540  1.0676 -0.1328
   35MOL   H139 7687   3.755   4.528   7.738 -0.2445 -1.0940 -0.0475
   35MOL   H140 7688   3.608   4.590   7.684  0.3976 -0.9030  2.4666
   35MOL   H141 7689   3.847   4.575   7.524  0.3768  1.8282 -1.7448
   35MOL   H142 7690   3.530   4.772   7.490  1.1158  1.0264 -0.0714
   35MOL   H143 7691   3.455   4.617   7.455  1.3598 -0.4321 -0.7026
   35MOL   H144 7692   3.496   4.725   7.325 -1.9547 -1.6320 -0.4483
   35MOL   C145 7693   3.781   4.766   7.600 -0.7076  0.3936  0.2661
   35MOL   C146 7694   3.933   4.799   7.605  0.2235  0.0390  0.1405
   35MOL   C147 7695   3.977   4.832   7.463  0.1875 -0.1728 -0.5646
   35MOL   O148 7696   3.963   4.939   7.411  0.3204  0.4325  0.0700
   35MOL   C149 7697   4.044   4.716   7.385 -0.0031 -0.0581  0.0577
   35MOL   H150 7698   3.752   4.753   7.704 -0.3731  0.1555  0.3341
   35MOL   H151 7699   3.722   4.843   7.550 -1.0528 -0.6806 -1.0142
   35MOL   H152 7700   3.989   4.710   7.633  0.1883 -0.3811 -1.0797
   35MOL   H153 7701   4.069   4.633   7.452  0.7795  0.4215  0.3634
   35MOL   H154 7702   3.990   4.673   7.301  0.1847  1.8382 -1.0505
   35MOL   H155 7703   4.134   4.750   7.335  0.2289 -2.6591 -1.3915
   35MOL   C156 7704   3.972   4.911   7.705  0.0911  0.6206 -0.9290
   35MOL   C157 7705   4.105   4.872   7.775 -0.5850 -0.4781 -0.2462
   35MOL   C158 7706   4.222   4.868   7.675 -0.0960 -0.1797 -0.2451
   35MOL   O159 7707   4.250   4.767   7.606  0.0124 -0.1339 -0.0975
   35MOL   C160 7708   4.283   4.996   7.644  0.0247 -0.1035 -0.0803
   35MOL   H161 7709   3.999   5.007   7.662 -1.8275  0.6581 -2.1189
   35MOL   H162 7710   3.891   4.940   7.772  2.1678  0.5598  1.6715
   35MOL   H163 7711   4.126   4.963   7.831 -2.9629 -0.2358  0.2843
   35MOL   H164 7712   4.317   5.046   7.735  1.5831 -2.8178  0.8611
   35MOL   H165 7713   4.224   5.074   7.596  0.5893 -0.7668 -1.9111
   35MOL   H166 7714   4.373   4.981   7.584  0.0760 -0.0945 -0.0050
   35MOL   C167 7715   4.091   4.745   0.006 -0.0683 -0.0068  0.5209
   35MOL   C168 7716   4.168   4.722   0.139 -0.0917 -0.5776 -0.2642
   35MOL   C169 7717   4.133   4.587   0.201 -0.9685  0.6620 -0.7457
   35MOL   O170 7718   4.020   4.565   0.246 -0.1466  0.2286  0.1474
   35MOL   C171 7719   4.226   4.471   0.199 -0.3389 -0.1463  0.2335
   35MOL   H172 7720   3.983   4.734   0.020  0.3643 -2.0720  2.4707
   35MOL   H173 7721   4.130   4.665   7.802 -1.7929 -1.5909  1.4170
   35MOL   H174 7722   4.273   4.710   0.112  0.6385  1.4020  1.5355
   35MOL   H175 7723   4.183   4.383   0.247 -1.0124 -0.4227 -0.8503
   35MOL   H176 7724   4.318   4.502   0.248  0.4649  1.0740 -1.9773
   35MOL   H177 7725   4.251   4.440   0.097  0.6117  0.4512  0.2871
   35MOL   C178 7726   4.181   4.836   0.239  0.8237  0.4292  0.4666
   35MOL   C179 7727   4.046   4.896   0.297 -0.2640  0.1164 -0.2945
   35MOL   C180 7728   3.987   5.011   0.208  0.4082 -0.2747 -0.2226
   35MOL   O181 7729   4.065   5.100   0.163  0.0320  0.2297  0.2447
   35MOL   C182 7730   3.839   5.014   0.194  0.6550 -0.4611  1.4531
   35MOL   H183 7731   4.243   4.803   0.322 -1.0066  0.7856  2.0183
   35MOL   H184 7732   4.232   4.917   0.187  0.6076  0.8529  0.9173
   35MOL   H185 7733   3.968   4.819   0.298  0.0719 -0.2275 -0.3992
   35MOL   H186 7734   3.815   5.120   0.194 -0.2101 -0.6393  0.4898
   35MOL   H187 7735   3.794   4.969   0.282 -1.0956 -2.2412 -0.2854
   35MOL   H188 7736   3.799   4.971   0.102 -1.0440  0.5592  1.6961
   35MOL   C189 7737   4.059   4.941   0.441 -0.1082 -0.1354  0.4276
   35MOL   C190 7738   4.188   5.024   0.475 -0.3934 -0.4066  0.3355
   35MOL   C191 7739   4.154   5.178   0.462 -0.3111  0.1241 -0.1291
   35MOL   O192 7740   4.055   5.229   0.514 -0.0033  0.2789  0.6840
   35MOL   C193 7741   4.255   5.258   0.375 -0.4452  0.6050 -0.1102
   35MOL   H194 7742   3.965   4.986   0.470 -0.4065  2.0826 -3.6393
   35MOL   H195 7743   4.064   4.854   0.507  0.9891  1.7685  2.9613
   35MOL   H196 7744   4.270   4.995   0.410 -2.2876 -2.5273 -1.2033
   35MOL   H197 7745   4.342   5.197   0.351 -0.6000  1.3239 -2.6907
   35MOL   H198 7746   4.208   5.288   0.281 -1.6753  0.0784  0.3276
   35MOL   H199 7747   4.295   5.339   0.436 -2.6410  2.7646 -1.4217
   35MOL   C200 7748   4.234   5.004   0.616 -0.2572  0.6325  0.2110
   35MOL   C201 7749   4.374   5.037   0.660 -0.1733 -0.0500  0.5408
   35MOL   C202 7750   4.394   5.195   0.671 -0.6546  0.0366  0.5459
   35MOL   O203 7751   4.467   5.260   0.592 -0.0657 -0.0991  0.0736
   35MOL   C204 7752   4.310   5.277   0.763  0.4157 -0.2993  0.1190
   35MOL   H205 7753   4.155   5.037   0.684 -0.3718  1.5435 -0.3586
   35MOL   H206 7754   4.232   4.896   0.635 -0.4768  0.5573 -0.2363
   35MOL   H207 7755   4.372   5.020   0.768 -0.4823  0.1150  0.5610
   35MOL   H208 7756   4.252   5.211   0.828  0.9270 -0.6788  0.1896
   35MOL   H209 7757   4.384   5.329   0.825 -0.4836  2.4187 -0.9984
   35MOL   H210 7758   4.236   5.338   0.712 -1.5624 -2.9306 -0.2874
   35MOL   C211 7759   4.493   4.959   0.594 -0.5624  0.4164 -0.1936
   35MOL   C212 7760   4.626   4.965   0.672 -0.1681  0.4604  0.2129
   35MOL   C213 7761   4.621   4.899   0.806 -0.5754  0.2928 -0.8897
   35MOL   O214 7762   4.554   4.934   0.901  0.0469 -0.4350 -0.0022
   35MOL   C215 7763   4.722   4.788   0.830 -0.3497 -0.6121  0.7271
   35MOL   H216 7764   4.461   4.855   0.588 -0.3688  0.3194  0.3365
   35MOL   H217 7765   4.516   4.996   0.494 -0.5253 -2.0109 -1.1263
   35MOL   H218 7766   4.647   5.071   0.689 -0.8998  0.4667  1.1625
   35MOL   H219 7767   4.782   4.819   0.916  3.2468  1.1165 -2.2329
   35MOL   H220 7768   4.665   4.696   0.837  1.3884 -1.7928 -0.0937
   35MOL   H221 7769   4.791   4.781   0.745 -0.8104  0.7962  0.2118
   35MOL   H222 7770   4.712   4.928   0.617 -0.4483  1.3367 -0.8366
   36MOL     C1 7771   3.917   0.431   4.212  0.2777 -0.6683 -0.2956
   36MOL     C2 7772   3.777   0.451   4.279  0.6279  0.0583 -0.1955
   36MOL     C3 7773   3.667   0.404   4.182 -0.4426 -0.2652  0.1273
   36MOL     O4 7774   3.560   0.472   4.177  0.4615 -0.2663  0.6793
   36MOL     C5 7775   3.690   0.294   4.084 -0.4121  0.5967 -0.5557
   36MOL     H6 7776   3.914   0.423   4.103  0.6034  1.4452 -0.4789
   36MOL     H7 7777   3.968   0.341   4.247  1.4201  0.1342  0.1467
   36MOL     H8 7778   3.748   0.556   4.290  0.1815 -0.0317 -0.4916
   36MOL     H9 7779   3.612   0.220   4.105 -1.2277  1.3864 -0.7435
   36MOL    H10 7780   3.676   0.339   3.985  1.4599 -0.7683 -1.4685
   36MOL    H11 7781   3.787   0.244   4.082 -0.1632  1.0193  0.8470
   36MOL    H12 7782   3.971   0.525   4.227 -1.1523  1.2678 -6.0822
   36MOL    C13 7783   3.767   0.370   4.417 -0.3438  0.3218  0.0422
   36MOL    C14 7784   3.639   0.398   4.502 -0.7847 -0.5753  0.5067
   36MOL    C15 7785   3.617   0.547   4.522 -0.6721  0.3250  0.4525
   36MOL    O16 7786   3.715   0.620   4.556 -0.0736 -0.3020  0.1062
   36MOL    C17 7787   3.480   0.607   4.505 -0.3976  0.0390 -0.1930
   36MOL    H18 7788   3.771   0.262   4.406  1.0329 -0.0362  3.4121
   36MOL    H19 7789   3.850   0.408   4.477 -1.5612  0.2477  1.8043
   36MOL    H20 7790   3.548   0.362   4.455 -0.2520 -0.6676 -0.4631
   36MOL    H21 7791   3.429   0.564   4.419 -2.9170  0.7374  0.9064
   36MOL    H22 7792   3.429   0.590   4.600  0.8028  2.5260  0.9606
   36MOL    H23 7793   3.482   0.714   4.481  1.6627 -0.4396 -2.3690
   36MOL    C24 7794   3.648   0.337   4.645  0.0002  0.0471 -0.1976
   36MOL    C25 7795   3.638   0.181   4.652  0.6291  0.4544  0.0466
   36MOL    C26 7796   3.767   0.117   4.697  0.4241 -0.6635  0.8927
   36MOL    O27 7797   3.859   0.178   4.746  0.0384 -0.4580  0.1611
   36MOL    C28 7798   3.795   7.828   4.670 -0.1687  0.0088 -0.2355
   36MOL    H29 7799   3.739   0.382   4.686 -0.1619  0.3366 -0.1551
   36MOL    H30 7800   3.563   0.376   4.700  0.9019 -1.6185  2.5023
   36MOL    H31 7801   3.616   0.148   4.551 -0.7756  1.9896 -0.1671
   36MOL    H32 7802   3.900   7.810   4.648  0.1228 -1.4511  2.2375
   36MOL    H33 7803   3.768   7.777   4.762 -1.6393  1.5195  0.1992
   36MOL    H34 7804   3.721   7.784   4.603 -0.5663 -0.7092  0.6638
   36MOL    C35 7805   3.522   0.131   4.753  0.1272 -0.0825  0.3249
   36MOL    C36 7806   3.383   0.112   4.687  0.0335 -0.9401  0.3570
   36MOL    C37 7807   3.371   7.854   4.592  0.2305 -0.3501  0.2911
   36MOL    O38 7808   3.441   7.753   4.609  0.5167  0.3568  0.8217
   36MOL    C39 7809   3.254   7.857   4.492 -0.2623  0.3650 -0.2865
   36MOL    H40 7810   3.510   0.198   4.839 -4.5994  0.7527 -0.7971
   36MOL    H41 7811   3.555   0.042   4.805  2.1635 -0.0687 -0.8817
   36MOL    H42 7812   3.356   0.196   4.623 -1.7994 -2.4556 -0.9097
   36MOL    H43 7813   3.167   0.004   4.558 -2.4389  1.4461 -3.1178
   36MOL    H44 7814   3.252   7.765   4.434  1.7311  0.3041 -0.2885
   36MOL    H45 7815   3.266   0.092   4.437 -0.8344  0.0758 -0.9072
   36MOL    C46 7816   3.281   0.109   4.799  0.6758 -0.4354  0.2864
   36MOL    C47 7817   3.253   0.234   4.893 -0.0288  0.4530  0.0001
   36MOL    C48 7818   3.215   0.360   4.831  0.3660 -0.6715  0.2361
   36MOL    O49 7819   3.189   0.361   4.711  0.5999 -0.5170 -0.7028
   36MOL    C50 7820   3.212   0.484   4.915  0.1230  0.0940  0.9566
   36MOL    H51 7821   3.288   0.019   4.861 -0.0559 -1.1747 -0.6898
   36MOL    H52 7822   3.188   0.088   4.746 -0.2086  0.2587  1.5120
   36MOL    H53 7823   3.349   0.268   4.932 -0.5725  0.2734  1.5110
   36MOL    H54 7824   3.109   0.517   4.929 -0.0832  0.6442 -1.6227
   36MOL    H55 7825   3.244   0.455   5.015  2.2159 -0.1920  0.2174
   36MOL    H56 7826   3.266   0.571   4.878 -0.5991  0.3959  0.6113
   36MOL    C57 7827   3.172   0.189   5.016  0.2026  0.0893 -0.8868
   36MOL    C58 7828   3.016   0.181   4.999  0.2502  0.3760  0.2044
   36MOL    C59 7829   2.965   0.054   4.927 -0.0403  0.4669 -0.2627
   36MOL    O60 7830   2.999   7.799   4.959 -0.0455  0.2490 -0.7917
   36MOL    C61 7831   2.868   0.070   4.813 -0.1372 -0.3303  0.2390
   36MOL    H62 7832   3.194   0.263   5.092  0.1135 -1.0732  0.2941
   36MOL    H63 7833   3.206   0.095   5.059  2.3718  1.4914  0.5174
   36MOL    H64 7834   2.983   0.267   4.941 -1.2683 -0.1276  0.2940
   36MOL    H65 7835   2.845   7.831   4.769  0.4429 -0.0748 -0.6371
   36MOL    H66 7836   2.783   0.134   4.838  0.7112  1.1965 -0.6911
   36MOL    H67 7837   2.924   0.118   4.733  0.4813 -0.8012  0.3811
   36MOL    C68 7838   2.933   0.202   5.131  0.4083  0.3040 -0.2210
   36MOL    C69 7839   2.785   0.256   5.116  0.3976  0.2695 -0.1666
   36MOL    C70 7840   2.791   0.407   5.089  0.2826  0.5268 -0.4187
   36MOL    O71 7841   2.896   0.473   5.110  0.1723  0.3067 -0.0389
   36MOL    C72 7842   2.667   0.485   5.042 -0.1879 -0.2981  0.4469
   36MOL    H73 7843   2.933   0.105   5.179  1.9245  1.1081  1.4494
   36MOL    H74 7844   2.991   0.271   5.192 -0.4496  0.5813  0.2975
   36MOL    H75 7845   2.747   0.217   5.021  0.8789 -2.3228  0.6778
   36MOL    H76 7846   2.595   0.469   5.122 -1.4815  2.3663 -0.1035
   36MOL    H77 7847   2.681   0.593   5.035 -2.3840 -0.1823 -5.4693
   36MOL    H78 7848   2.617   0.453   4.950 -0.3536 -0.0987  0.4660
   36MOL    C79 7849   2.696   0.238   5.244 -0.2742 -0.0494 -0.6195
   36MOL    C80 7850   2.659   0.092   5.273 -0.2213  0.1686  0.0125
   36MOL    C81 7851   2.578   0.026   5.153  0.0921  0.7749  0.6328
   36MOL    O82 7852   2.529   0.095   5.071 -0.2138 -0.3204 -0.0806
   36MOL    C83 7853   2.592   7.737   5.135  0.5892  0.3805  0.0293
   36MOL    H84 7854   2.606   0.299   5.235  0.8644  1.5319 -1.4005
   36MOL    H85 7855   2.766   0.271   5.320  2.8203 -0.2067 -3.2984
   36MOL    H86 7856   2.744   0.026   5.291  0.8932  1.7357  0.5481
   36MOL    H87 7857   2.493   7.708   5.101  0.2692  2.1747 -0.6728
   36MOL    H88 7858   2.608   7.687   5.230 -1.7604 -2.4839 -1.0040
   36MOL    H89 7859   2.658   7.705   5.054  0.8118 -1.1170  0.7989
   36MOL    C90 7860   2.562   0.078   5.394  0.0810  0.1984  0.0760
   36MOL    C91 7861   2.628   0.054   5.531 -0.0324  0.6426 -0.4676
   36MOL    C92 7862   2.541   0.104   5.644 -0.1367  0.2546  0.8791
   36MOL    O93 7863   2.483   0.028   5.728 -0.0072 -0.5893 -0.1480
   36MOL    C94 7864   2.520   0.249   5.657  0.2767  1.1265 -0.1199
   36MOL    H95 7865   2.491   0.160   5.400 -0.4776 -0.2779 -0.0004
   36MOL    H96 7866   2.496   7.850   5.381  0.4143  0.0766 -0.8959
   36MOL    H97 7867   2.720   0.110   5.550 -0.4955  1.3278 -0.2190
   36MOL    H98 7868   2.463   0.262   5.749  3.2754 -0.3673  2.0376
   36MOL    H99 7869   2.613   0.305   5.667  1.7563 -1.5278  1.6453
   36MOL   H100 7870   2.454   0.286   5.578 -0.0870  2.9744  1.0135
   36MOL   C101 7871   2.673   7.763   5.548 -0.7384  0.0935  0.6221
   36MOL   C102 7872   2.761   7.735   5.669 -0.7218  0.3951  0.1036
   36MOL   C103 7873   2.905   7.710   5.622 -0.2411  0.1193  0.0377
   36MOL   O104 7874   2.963   7.601   5.623  0.1479  0.1034 -0.3519
   36MOL   C105 7875   2.991   7.827   5.595 -0.4903  0.0771 -0.6002
   36MOL   H106 7876   2.587   7.696   5.548 -1.1247  0.5875  0.6065
   36MOL   H107 7877   2.723   7.738   5.455 -1.4858  1.7754 -0.2587
   36MOL   H108 7878   2.773   7.825   5.729 -0.1199  1.3867 -1.5024
   36MOL   H109 7879   3.086   7.788   5.559  0.0903 -0.2513  1.2590
   36MOL   H110 7880   2.940   0.038   5.526 -1.0036 -1.2816 -1.6129
   36MOL   H111 7881   3.000   0.012   5.694  0.4789 -1.1139 -0.1596
   36MOL   C112 7882   2.703   7.628   5.761 -0.3527  0.2718  0.2893
   36MOL   C113 7883   2.774   7.584   5.888  0.1686  0.0293 -0.1676
   36MOL   C114 7884   2.708   7.459   5.955  0.0570 -0.4443 -0.0870
   36MOL   O115 7885   2.602   7.457   6.020  0.5334 -0.2499 -0.3475
   36MOL   C116 7886   2.793   7.329   5.946  0.0890 -0.1846 -0.5963
   36MOL   H117 7887   2.697   7.539   5.699  4.4296  1.4683 -2.0697
   36MOL   H118 7888   2.604   7.670   5.781 -2.3109 -2.8392 -2.2427
   36MOL   H119 7889   2.876   7.553   5.865  0.1692 -0.5785  0.6373
   36MOL   H120 7890   2.842   7.341   5.849 -1.2037 -1.0983 -1.3713
   36MOL   H121 7891   2.862   7.333   6.031  0.2350  1.7897 -0.7742
   36MOL   H122 7892   2.727   7.243   5.958 -1.6068  1.3080  1.1165
   36MOL   C123 7893   2.800   7.695   5.992 -0.1262 -0.7356 -0.5005
   36MOL   C124 7894   2.938   7.678   6.062 -0.4874 -0.0929  0.9560
   36MOL   C125 7895   2.938   7.780   6.173 -0.5891 -0.1933  0.0221
   36MOL   O126 7896   2.984   0.033   6.160 -0.5323 -0.0484  0.1143
   36MOL   C127 7897   2.878   7.738   6.303  0.0966 -0.1264 -0.1536
   36MOL   H128 7898   2.714   7.698   6.059 -0.0538 -0.1754 -0.4315
   36MOL   H129 7899   2.811   7.789   5.936 -2.3283  0.2496  0.6691
   36MOL   H130 7900   2.957   7.578   6.102 -0.7151 -1.4705 -2.1827
   36MOL   H131 7901   2.958   7.676   6.344  1.7349 -0.0112 -2.9959
   36MOL   H132 7902   2.786   7.681   6.295 -0.2411  0.5109 -0.9265
   36MOL   H133 7903   2.865   7.818   6.375  0.6115 -0.2300  0.0573
   36MOL   C134 7904   3.053   7.690   5.960  0.5595  0.0138  0.1304
   36MOL   C135 7905   3.200   7.673   6.018  0.0225  0.2524  0.5123
   36MOL   C136 7906   3.223   7.533   6.078 -0.1732 -0.5758  0.0546
   36MOL   O137 7907   3.153   7.438   6.041  0.1852  0.2553 -0.0628
   36MOL   C138 7908   3.338   7.506   6.180  0.5020  0.1196 -0.1422
   36MOL   H139 7909   3.045   7.786   5.908  3.2324  0.5625  0.6683
   36MOL   H140 7910   3.052   7.628   5.870  1.5062  0.8830 -0.5071
   36MOL   H141 7911   3.216   7.759   6.083 -0.3181  0.9057 -0.2518
   36MOL   H142 7912   3.295   7.475   6.276 -0.2548  2.1490  0.2089
   36MOL   H143 7913   3.391   7.600   6.194 -0.9039  0.5955  2.3503
   36MOL   H144 7914   3.407   7.430   6.144 -0.5746 -1.3451  0.8253
   36MOL   C145 7915   3.300   7.705   5.909 -0.3599 -0.0311  0.3202
   36MOL   C146 7916   3.342   7.853   5.883  0.5608  0.1795 -0.2683
   36MOL   C147 7917   3.446   0.048   5.991 -0.2853  0.3281 -0.0992
   36MOL   O148 7918   3.550   7.848   6.015  0.4219 -0.0051  0.1445
   36MOL   C149 7919   3.403   0.172   6.068  0.4154  0.6668 -0.6131
   36MOL   H150 7920   3.255   7.667   5.818 -0.5526  4.2624 -1.5086
   36MOL   H151 7921   3.391   7.644   5.914  0.6666  1.2364 -2.1240
   36MOL   H152 7922   3.249   0.053   5.892 -0.1841 -1.1848  0.9227
   36MOL   H153 7923   3.453   0.262   6.032  0.3094  1.6392  1.5816
   36MOL   H154 7924   3.295   0.177   6.080  0.3392  1.1531 -1.4754
   36MOL   H155 7925   3.444   0.164   6.169 -2.1798  0.0288  0.4259
   36MOL   C156 7926   3.370   0.038   5.736 -0.5984  0.6897  0.1946
   36MOL   C157 7927   3.469   7.804   5.663 -0.6756  0.4389  0.3767
   36MOL   C158 7928   3.617   7.838   5.685  0.6126 -0.0545  0.2599
   36MOL   O159 7929   3.651   0.097   5.690  0.2134 -0.0770  0.5741
   36MOL   C160 7930   3.705   7.723   5.726  0.3558 -0.0426 -0.1684
   36MOL   H161 7931   3.271   0.033   5.690  0.0887  1.9605 -1.4803
   36MOL   H162 7932   3.401   0.142   5.735 -0.8159  0.7479 -0.5141
   36MOL   H163 7933   3.463   7.703   5.704 -1.4328  1.7172  3.5469
   36MOL   H164 7934   3.798   7.720   5.669  0.2713 -1.6904 -0.2446
   36MOL   H165 7935   3.652   7.627   5.718 -1.4797  0.9949 -0.8017
   36MOL   H166 7936   3.725   7.735   5.832  1.3568  1.6082 -0.5337
   36MOL   C167 7937   3.420   7.790   5.513  0.0149 -0.7531 -0.6899
   36MOL   C168 7938   3.506   7.712   5.415 -0.2802 -0.0479 -0.5823
   36MOL   C169 7939   3.535   7.574   5.473  0.5724  0.1652  0.2063
   36MOL   O170 7940   3.647   7.519   5.459  0.1737 -0.3332 -0.1109
   36MOL   C171 7941   3.421   7.489   5.521  0.4412  0.0963 -0.6159
   36MOL   H172 7942   3.317   7.755   5.511  0.2795 -1.6454  0.7723
   36MOL   H173 7943   3.416   0.036   5.481 -0.9918 -0.7112 -0.4287
   36MOL   H174 7944   3.445   7.695   5.326 -0.7328  0.5815 -0.3915
   36MOL   H175 7945   3.325   7.536   5.502 -0.2994 -0.6658  1.1072
   36MOL   H176 7946   3.448   7.496   5.626 -1.2269  2.3980 -0.3244
   36MOL   H177 7947   3.416   7.386   5.484 -3.3264 -0.1391  0.3992
   36MOL   C178 7948   3.634   7.784   5.360  0.3406  0.1477 -0.3459
   36MOL   C179 7949   3.602   0.070   5.295  0.1083  0.3557  0.6541
   36MOL   C180 7950   3.594   0.063   5.140 -0.3228  0.5778  0.1443
   36MOL   O181 7951   3.488   0.077   5.080 -0.0000  0.0675  0.0147
   36MOL   C182 7952   3.725   0.036   5.058 -0.2509  0.2760  0.6105
   36MOL   H183 7953   3.715   7.778   5.433 -2.1832  0.5237  2.5794
   36MOL   H184 7954   3.661   7.705   5.290  1.4692  0.4229 -0.2354
   36MOL   H185 7955   3.499   0.097   5.320 -1.0147 -0.3291 -2.8749
   36MOL   H186 7956   3.765   0.135   5.037 -1.4774  0.5484 -0.4876
   36MOL   H187 7957   3.720   7.853   4.957 -0.6102  0.4615  0.5506
   36MOL   H188 7958   3.802   7.840   5.114  0.4767 -1.1314 -1.6614
   36MOL   C189 7959   3.701   0.178   5.341 -0.3942  0.5237 -0.3624
   36MOL   C190 7960   3.667   0.330   5.317 -0.8230  0.1188 -0.2789
   36MOL   C191 7961   3.624   0.400   5.445 -0.2797  0.2668  0.2840
   36MOL   O192 7962   3.678   0.495   5.484 -0.1582 -0.2795  0.1427
   36MOL   C193 7963   3.504   0.350   5.526  0.0485  0.5878 -0.8586
   36MOL   H194 7964   3.720   0.155   5.446 -1.1988 -0.9534 -0.5436
   36MOL   H195 7965   3.791   0.153   5.284 -2.1429  0.2421 -3.0600
   36MOL   H196 7966   3.585   0.341   5.246 -1.1907  0.2108  0.1600
   36MOL   H197 7967   3.521   0.373   5.631 -0.1765 -1.3739 -0.3802
   36MOL   H198 7968   3.413   0.390   5.481  0.0156  1.4154 -0.0698
   36MOL   H199 7969   3.490   0.243   5.513  0.6576  0.5275 -1.0126
   36MOL   C200 7970   3.791   0.399   5.257  0.4057 -0.6253 -0.2511
   36MOL   C201 7971   3.746   0.529   5.175 -0.1709  0.2200 -0.0376
   36MOL   C202 7972   3.705   0.507   5.029  0.4699 -0.1013 -0.0397
   36MOL   O203 7973   3.793   0.482   4.945  0.3201  0.7385  1.0025
   36MOL   C204 7974   3.554   0.508   5.000  0.0408  0.2246  0.3223
   36MOL   H205 7975   3.866   0.412   5.335  0.3514 -0.3147 -0.2505
   36MOL   H206 7976   3.834   0.326   5.188  1.8335 -0.1521  0.1326
   36MOL   H207 7977   3.651   0.563   5.216 -0.4267  0.2856 -0.6724
   36MOL   H208 7978   3.480   0.504   5.080 -0.9379  0.8121 -0.5379
   36MOL   H209 7979   3.524   0.596   4.942  1.4115  1.0421  0.8249
   36MOL   H210 7980   3.535   0.421   4.938 -0.6109 -0.4913  1.5035
   36MOL   C211 7981   3.844   0.648   5.202 -0.2980 -0.7048  0.0808
   36MOL   C212 7982   3.807   0.779   5.129  0.3456 -0.3366 -0.5661
   36MOL   C213 7983   3.875   0.899   5.200 -0.3035 -0.4103 -0.0554
   36MOL   O214 7984   3.996   0.908   5.203  0.1004 -0.6417  0.0583
   36MOL   C215 7985   3.794   1.004   5.274  0.1792  0.4776  0.1758
   36MOL   H216 7986   3.852   0.654   5.310  0.1126 -0.6705  0.0507
   36MOL   H217 7987   3.945   0.615   5.176  0.0572  0.6075 -0.2215
   36MOL   H218 7988   3.700   0.798   5.134 -0.2164 -2.8496 -2.5010
   36MOL   H219 7989   3.735   1.064   5.206  0.6694  0.5184 -0.2173
   36MOL   H220 7990   3.730   0.955   5.348  0.0148  1.1548  0.4833
   36MOL   H221 7991   3.868   1.072   5.317  0.9035 -0.8315  1.0454
   36MOL   H222 7992   3.829   0.782   5.023 -1.0608  3.3195 -0.8229
   37MOL     C1 7993   2.990   6.966   0.518 -0.2692  0.4545  0.0619
   37MOL     C2 7994   3.023   7.038   0.385  0.0628 -0.2067  0.0106
   37MOL     C3 7995   3.170   7.036   0.359 -0.4304 -0.7900  0.2360
   37MOL     O4 7996   3.223   7.014   0.256 -0.4535  0.0146  0.4770
   37MOL     C5 7997   3.265   7.066   0.473 -0.2661  0.4248 -0.0577
   37MOL     H6 7998   3.015   7.035   0.598  1.2964  1.0970 -0.9655
   37MOL     H7 7999   3.059   6.882   0.529 -1.7052 -1.3331 -3.7814
   37MOL     H8 8000   2.992   7.139   0.414 -2.2561 -1.0869  0.6960
   37MOL     H9 8001   3.299   6.979   0.528  2.1138  2.5409  1.9769
   37MOL    H10 8002   3.359   7.108   0.436 -0.9624  1.8706 -0.2357
   37MOL    H11 8003   3.224   7.138   0.544  2.7179  0.8205  1.3583
   37MOL    H12 8004   2.888   6.931   0.531  0.4953 -2.6059 -1.6737
   37MOL    C13 8005   2.944   6.985   0.271 -0.1672  0.1143 -0.3818
   37MOL    C14 8006   2.793   7.015   0.279  0.0805  0.1111 -0.1041
   37MOL    C15 8007   2.705   6.892   0.310 -0.5033  0.3341 -0.2184
   37MOL    O16 8008   2.712   6.794   0.232  0.0148 -0.2583  0.3493
   37MOL    C17 8009   2.619   6.905   0.439  0.2365  0.0089 -0.5381
   37MOL    H18 8010   2.980   7.018   0.173 -0.5814  3.3335  0.5079
   37MOL    H19 8011   2.970   6.880   0.253  0.0134  0.0016  0.5026
   37MOL    H20 8012   2.794   7.078   0.369  0.2760  1.0329 -0.7453
   37MOL    H21 8013   2.535   6.838   0.420 -1.0460  1.1307  1.0155
   37MOL    H22 8014   2.672   6.889   0.533 -1.1296 -0.3896  0.1776
   37MOL    H23 8015   2.565   6.999   0.452 -0.7414 -0.3971 -1.5762
   37MOL    C24 8016   2.735   7.099   0.161  0.6461 -0.5336  0.4099
   37MOL    C25 8017   2.598   7.152   0.186 -0.3407  0.4037 -0.1596
   37MOL    C26 8018   2.577   7.279   0.271 -0.9148 -0.8772  0.6260
   37MOL    O27 8019   2.677   7.349   0.298 -0.4738 -0.7584  0.0758
   37MOL    C28 8020   2.441   7.321   0.320 -0.1918 -0.7770  0.1683
   37MOL    H29 8021   2.812   7.172   0.136  3.2837 -2.9534  1.1714
   37MOL    H30 8022   2.734   7.020   0.086 -1.0286 -2.5855  2.4970
   37MOL    H31 8023   2.546   7.078   0.246  2.3429 -0.2371  1.4711
   37MOL    H32 8024   2.440   7.428   0.344  0.5486 -0.6499 -0.3482
   37MOL    H33 8025   2.356   7.306   0.253 -1.6854  1.1651  1.5639
   37MOL    H34 8026   2.418   7.261   0.408 -0.8270  0.0688  0.5861
   37MOL    C35 8027   2.523   7.177   0.055 -0.6842  0.5209 -0.1001
   37MOL    C36 8028   2.472   7.050   7.839  0.3190  0.8707 -0.1666
   37MOL    C37 8029   2.382   6.958   0.073 -0.1302  0.1339 -0.3419
   37MOL    O38 8030   2.320   7.014   0.166 -0.1581  0.4546  0.2032
   37MOL    C39 8031   2.370   6.808   0.048  0.3214  0.0474  0.2437
   37MOL    H40 8032   2.591   7.239   7.856  0.8403 -0.5184  0.5535
   37MOL    H41 8033   2.436   7.243   0.060 -1.1532  0.0978 -2.3220
   37MOL    H42 8034   2.556   6.990   7.804 -1.3774 -0.9402 -1.1680
   37MOL    H43 8035   2.323   6.781   7.812  1.9300  0.4622 -0.6964
   37MOL    H44 8036   2.322   6.754   0.130  0.6484 -1.3785 -0.4888
   37MOL    H45 8037   2.471   6.769   0.035 -0.1192 -0.3812 -2.0340
   37MOL    C46 8038   2.389   7.069   7.711  0.1816 -0.1937  0.1669
   37MOL    C47 8039   2.450   7.168   7.601 -0.1915  0.2050 -0.6816
   37MOL    C48 8040   2.569   7.114   7.534 -0.5739 -0.8058  0.7304
   37MOL    O49 8041   2.685   7.164   7.536  0.3159 -0.2212 -0.4320
   37MOL    C50 8042   2.549   6.984   7.460 -0.1114  0.2192 -0.3002
   37MOL    H51 8043   2.290   7.105   7.740  0.1772  0.5364 -0.7300
   37MOL    H52 8044   2.384   6.967   7.672 -0.5790 -0.3709  0.7196
   37MOL    H53 8045   2.485   7.257   7.654  0.3296 -1.1566  1.3153
   37MOL    H54 8046   2.534   6.901   7.529  4.3510 -0.0782  0.4362
   37MOL    H55 8047   2.465   6.995   7.390 -0.2361 -0.2591 -0.2293
   37MOL    H56 8048   2.634   6.965   7.395 -1.1072  0.5256 -1.7305
   37MOL    C57 8049   2.336   7.216   7.503 -0.7528  0.6768  0.1705
   37MOL    C58 8050   2.321   7.368   7.491  0.4002 -0.2239 -0.2079
   37MOL    C59 8051   2.255   7.434   7.607 -0.5794  0.5447  0.0402
   37MOL    O60 8052   2.318   7.465   7.711 -0.0075  0.2989 -0.3227
   37MOL    C61 8053   2.107   7.448   7.611 -0.1590  0.5731  0.1610
   37MOL    H62 8054   2.239   7.169   7.521 -1.2782  1.7880  0.3075
   37MOL    H63 8055   2.362   7.174   7.406  0.9880 -1.3928  1.4844
   37MOL    H64 8056   2.257   7.383   7.405  0.1222 -1.6514 -0.2567
   37MOL    H65 8057   2.073   7.550   7.590  2.6189  1.3312 -0.7922
   37MOL    H66 8058   2.068   7.375   7.539 -3.1852  0.9099  1.3664
   37MOL    H67 8059   2.080   7.425   7.714  1.0096  1.8777  0.7716
   37MOL    C68 8060   2.462   7.430   7.451  0.0561 -0.2967 -0.0188
   37MOL    C69 8061   2.438   7.563   7.393 -0.1548 -0.4369  0.3815
   37MOL    C70 8062   2.493   7.584   7.248 -0.0980  0.4341 -0.4215
   37MOL    O71 8063   2.556   7.683   7.216  0.0630 -0.2063 -0.1336
   37MOL    C72 8064   2.460   7.478   7.149 -0.4102 -0.3048  0.3697
   37MOL    H73 8065   2.527   7.449   7.536  0.4140 -1.3249 -0.0532
   37MOL    H74 8066   2.521   7.368   7.383  1.3804  0.2296  0.6468
   37MOL    H75 8067   2.329   7.572   7.387 -0.0509  0.2268 -0.6202
   37MOL    H76 8068   2.514   7.494   7.055  0.9810 -1.5617  0.9330
   37MOL    H77 8069   2.480   7.377   7.186  1.1074  0.5137  1.8478
   37MOL    H78 8070   2.356   7.474   7.117 -0.5460 -2.0352  0.9782
   37MOL    C79 8071   2.483   7.676   7.492 -0.4917  0.3853  0.5731
   37MOL    C80 8072   2.436   7.814   7.459 -0.2297 -0.0374 -0.4795
   37MOL    C81 8073   2.513   0.053   7.550 -0.2451  0.5913 -0.3886
   37MOL    O82 8074   2.473   0.096   7.660  0.3438  0.6260 -0.1271
   37MOL    C83 8075   2.647   0.095   7.493 -0.2529  0.2419  0.3720
   37MOL    H84 8076   2.590   7.675   7.516 -1.5634 -4.2271  6.1079
   37MOL    H85 8077   2.439   7.649   7.588 -1.7682 -0.3913 -0.2203
   37MOL    H86 8078   2.465   7.852   7.361 -0.4629 -1.6101 -1.1763
   37MOL    H87 8079   2.727   0.097   7.567 -2.3449  0.1187  2.7055
   37MOL    H88 8080   2.647   0.199   7.461  1.8460  0.4488  0.9922
   37MOL    H89 8081   2.678   0.025   7.415  1.1157  1.5896 -0.3287
   37MOL    C90 8082   2.280   7.832   7.470 -0.0652  0.2035 -0.5021
   37MOL    C91 8083   2.232   0.102   7.397 -1.0527  0.1913 -0.3459
   37MOL    C92 8084   2.227   0.073   7.245  0.7609 -0.2337  0.0935
   37MOL    O93 8085   2.172   7.828   7.195 -0.1463 -0.6227  0.1245
   37MOL    C94 8086   2.281   0.186   7.157 -0.3945  0.5814 -0.4406
   37MOL    H95 8087   2.231   7.743   7.430  0.5586  0.3510 -1.6048
   37MOL    H96 8088   2.248   7.835   7.574 -1.5315 -0.1881 -0.9330
   37MOL    H97 8089   2.310   0.171   7.430 -1.0944 -0.3476  0.9195
   37MOL    H98 8090   2.388   0.199   7.173 -0.3502 -0.7481  0.5085
   37MOL    H99 8091   2.256   0.160   7.054  2.0403 -0.1144 -0.8845
   37MOL   H100 8092   2.224   0.274   7.187  0.1638  1.0559 -0.7784
   37MOL   C101 8093   2.095   0.155   7.443 -0.5177 -0.6622 -0.1803
   37MOL   C102 8094   2.100   0.311   7.452 -0.3816  0.2135 -0.0962
   37MOL   C103 8095   2.104   0.361   7.602 -0.4039 -0.0137  0.3261
   37MOL   O104 8096   1.998   0.361   7.662  0.0045  0.1199 -0.4754
   37MOL   C105 8097   2.236   0.394   7.668 -0.4196  0.3354 -0.3401
   37MOL   H106 8098   2.016   0.120   7.377  0.5296 -1.3324 -1.1013
   37MOL   H107 8099   2.066   0.123   7.543  0.0070 -0.3456  0.0797
   37MOL   H108 8100   2.193   0.353   7.415  0.7609 -2.4306 -0.3115
   37MOL   H109 8101   2.226   0.423   7.773  2.2484 -0.8387  0.2888
   37MOL   H110 8102   2.317   0.321   7.662  0.1494  0.7053  2.0919
   37MOL   H111 8103   2.266   0.487   7.620  1.0174 -0.4952 -1.0990
   37MOL   C112 8104   1.985   0.379   7.372  0.0873 -0.4038  0.4926
   37MOL   C113 8105   1.831   0.353   7.404  0.1808  0.0041 -0.2313
   37MOL   C114 8106   1.771   0.231   7.334  0.1564  0.0534 -0.2832
   37MOL   O115 8107   1.780   0.218   7.216 -0.7547 -0.3117 -0.7143
   37MOL   C116 8108   1.729   0.113   7.426 -0.1823 -0.5215  0.3495
   37MOL   H117 8109   2.007   0.355   7.268  0.2549  2.3627 -0.1319
   37MOL   H118 8110   2.013   0.484   7.379 -2.6293  0.5038 -1.6484
   37MOL   H119 8111   1.823   0.343   7.512 -3.8415  1.9026 -0.2556
   37MOL   H120 8112   1.624   0.136   7.442 -0.1204  1.0403 -1.2892
   37MOL   H121 8113   1.736   0.010   7.390  2.5415  0.6630 -2.7629
   37MOL   H122 8114   1.781   0.118   7.522  1.2217 -0.0820 -0.4078
   37MOL   C123 8115   1.763   0.482   7.362  1.2255 -0.3984  0.1371
   37MOL   C124 8116   1.791   0.589   7.475  0.8379 -0.4706 -0.2621
   37MOL   C125 8117   1.665   0.628   7.559  0.5163  0.1092 -0.3453
   37MOL   O126 8118   1.658   0.613   7.681 -0.0954 -0.9732 -0.6082
   37MOL   C127 8119   1.548   0.689   7.490  0.3519  0.4780 -0.0303
   37MOL   H128 8120   1.655   0.475   7.358  1.1854  1.1179 -1.5830
   37MOL   H129 8121   1.794   0.515   7.263  1.6011  1.2992  0.7954
   37MOL   H130 8122   1.857   0.538   7.545  0.7850 -0.3186 -0.1014
   37MOL   H131 8123   1.532   0.781   7.546 -0.5456 -0.4440  1.2377
   37MOL   H132 8124   1.461   0.623   7.493  1.4527 -0.9585  1.0073
   37MOL   H133 8125   1.574   0.726   7.390  1.2016  1.1028  0.4175
   37MOL   C134 8126   1.868   0.714   7.432 -0.0549 -0.2740 -0.5019
   37MOL   C135 8127   1.928   0.815   7.549  0.3771 -0.4325 -0.4160
   37MOL   C136 8128   2.023   0.734   7.641 -0.1478 -0.5614  0.4264
   37MOL   O137 8129   2.141   0.711   7.613  0.0500  0.2056 -0.1434
   37MOL   C138 8130   1.969   0.682   7.774  0.4299  0.0058  0.6033
   37MOL   H139 8131   1.812   0.776   7.362 -1.9848 -1.7329 -0.2738
   37MOL   H140 8132   1.958   0.683   7.378  1.0586  1.3362  0.3933
   37MOL   H141 8133   1.848   0.855   7.611  1.1449  1.4402 -0.6245
   37MOL   H142 8134   2.035   0.721   7.852  0.1981 -1.1629  1.3833
   37MOL   H143 8135   1.967   0.573   7.776 -0.9075  0.0391  2.3809
   37MOL   H144 8136   1.878   0.724   7.818 -0.1572 -0.4992 -0.1194
   37MOL   C145 8137   1.995   0.938   7.496 -0.1112  0.2494 -0.3921
   37MOL   C146 8138   2.062   1.023   7.608  0.1676 -0.3534  0.0172
   37MOL   C147 8139   2.151   1.130   7.546 -0.3871 -0.1449 -0.0491
   37MOL   O148 8140   2.110   1.222   7.474  0.0695  0.4959  0.1362
   37MOL   C149 8141   2.293   1.140   7.594  0.0434 -0.7291 -0.4344
   37MOL   H150 8142   1.928   1.001   7.438  0.7174 -0.0640 -1.7206
   37MOL   H151 8143   2.074   0.904   7.429  0.2627 -0.5479  0.4411
   37MOL   H152 8144   2.120   0.964   7.679  0.2336 -0.2173  0.0748
   37MOL   H153 8145   2.323   1.242   7.570 -1.1252  0.1682  1.7534
   37MOL   H154 8146   2.313   1.136   7.701  1.5694 -0.0090 -0.6798
   37MOL   H155 8147   2.366   1.085   7.536  1.8344  0.2193  0.8453
   37MOL   C156 8148   1.949   1.086   7.698 -0.5670 -0.3242  0.4267
   37MOL   C157 8149   1.981   1.171   7.826  0.1645  0.4163 -0.2073
   37MOL   C158 8150   2.061   1.089   0.072 -0.4907 -0.1527  0.6614
   37MOL   O159 8151   2.034   0.970   0.092 -0.7441  0.0156 -0.5076
   37MOL   C160 8152   2.170   1.168   0.140  0.4581  0.3410  0.6270
   37MOL   H161 8153   1.885   1.152   7.640  2.2314  1.0775 -1.1540
   37MOL   H162 8154   1.899   0.998   7.739  0.3309 -0.8371  0.4404
   37MOL   H163 8155   2.059   1.243   7.803 -0.0810  0.3191 -1.3776
   37MOL   H164 8156   2.260   1.171   0.078 -0.0382 -1.3813 -0.2045
   37MOL   H165 8157   2.197   1.139   0.242  1.2725 -0.6547  0.1487
   37MOL   H166 8158   2.129   1.267   0.157  0.7559  0.3860  1.0838
   37MOL   C167 8159   1.861   1.236   0.033 -0.0981  0.1978  0.1184
   37MOL   C168 8160   1.792   1.359   7.821 -0.1714  0.4473 -0.5507
   37MOL   C169 8161   1.887   1.480   7.802 -0.5318 -0.0537 -0.0359
   37MOL   O170 8162   1.929   1.541   0.041  0.7112  0.5742 -0.2403
   37MOL   C171 8163   1.939   1.520   7.661 -0.0149  0.2664 -0.0574
   37MOL   H172 8164   1.794   1.152   0.051  1.8092 -1.0621  1.5111
   37MOL   H173 8165   1.887   1.271   0.133 -2.0627 -1.0651  1.1100
   37MOL   H174 8166   1.756   1.329   7.723  0.9893  1.6978 -1.3715
   37MOL   H175 8167   2.048   1.523   7.658 -0.0103 -0.6808 -1.1796
   37MOL   H176 8168   1.896   1.617   7.637 -0.3774  0.3562  0.9126
   37MOL   H177 8169   1.903   1.448   7.588 -3.6738  1.5203  0.3982
   37MOL   C178 8170   1.657   1.395   0.042 -0.2239 -0.0777 -0.4737
   37MOL   C179 8171   1.562   1.508   7.846  1.1241 -0.3194 -0.2136
   37MOL   C180 8172   1.512   1.595   0.108  0.7305 -0.7757 -0.5726
   37MOL   O181 8173   1.391   1.608   0.132 -1.0213  0.0183 -0.9520
   37MOL   C182 8174   1.616   1.679   0.185  0.0809  0.3051  0.4118
   37MOL   H183 8175   1.605   1.299   0.039 -2.5479  1.0206  2.2327
   37MOL   H184 8176   1.673   1.405   0.149  2.2056  0.4593 -0.8656
   37MOL   H185 8177   1.628   1.576   7.792  1.2713  0.0678  0.4525
   37MOL   H186 8178   1.717   1.658   0.149 -0.2720 -0.5386 -0.0882
   37MOL   H187 8179   1.623   1.633   0.284 -0.5369  0.5734  0.5867
   37MOL   H188 8180   1.597   1.785   0.202 -0.4659 -0.0553  2.1739
   37MOL   C189 8181   1.459   1.454   7.754  1.1641 -0.3557 -0.1679
   37MOL   C190 8182   1.406   1.552   7.648 -0.0997  0.5492 -0.0622
   37MOL   C191 8183   1.503   1.581   7.536 -0.4838  0.3155  0.4620
   37MOL   O192 8184   1.619   1.535   7.534  0.8580 -0.7836  0.0081
   37MOL   C193 8185   1.471   1.685   7.431  0.3266 -0.3152 -0.2979
   37MOL   H194 8186   1.486   1.358   7.710  0.1690 -0.7803  0.1356
   37MOL   H195 8187   1.380   1.426   7.824  1.3936  3.4604  1.7939
   37MOL   H196 8188   1.374   1.642   7.700  0.4209  0.5470  0.2687
   37MOL   H197 8189   1.561   1.744   7.416  1.3806 -1.7795  0.1752
   37MOL   H198 8190   1.436   1.638   7.339  1.0805 -1.2396 -0.1211
   37MOL   H199 8191   1.399   1.755   7.473 -0.6633 -1.2592 -0.3828
   37MOL   C200 8192   1.282   1.491   7.589  0.4092 -0.4914  0.2176
   37MOL   C201 8193   1.177   1.586   7.528  0.3812 -0.4021  0.0701
   37MOL   C202 8194   1.129   1.702   7.620 -0.0527  0.1522 -0.5033
   37MOL   O203 8195   1.127   1.702   7.744  0.6049 -0.4724  0.6099
   37MOL   C204 8196   1.096   1.828   7.546  1.0649 -0.2190 -0.4181
   37MOL   H205 8197   1.323   1.435   7.505  0.2950 -0.8141  0.3744
   37MOL   H206 8198   1.226   1.422   7.652  0.3278  0.6619  1.4304
   37MOL   H207 8199   1.231   1.633   7.446  0.2151 -1.5856 -0.7350
   37MOL   H208 8200   1.187   1.873   7.507  2.1557 -3.0708 -1.2899
   37MOL   H209 8201   1.027   1.805   7.464 -0.6435 -1.2069  1.2457
   37MOL   H210 8202   1.048   1.905   7.607  1.1705  1.2542 -2.1461
   37MOL   C211 8203   1.057   1.508   7.464 -0.2485 -0.4242  0.3896
   37MOL   C212 8204   1.082   1.420   7.340  0.3161 -0.0535  0.7373
   37MOL   C213 8205   1.109   1.506   7.211 -0.4331  0.1202  0.5072
   37MOL   O214 8206   1.096   1.626   7.202  0.0478 -0.8398 -0.1278
   37MOL   C215 8207   1.169   1.435   7.089  0.0331 -0.7651 -0.0413
   37MOL   H216 8208   1.019   1.444   7.544 -1.5256 -0.1792  0.0012
   37MOL   H217 8209   0.983   1.584   7.439 -0.4130  0.0811  2.3323
   37MOL   H218 8210   1.004   1.347   7.321 -0.2041  0.2058  1.8537
   37MOL   H219 8211   1.109   1.345   7.077 -1.3262 -0.0036  0.8827
   37MOL   H220 8212   1.151   1.501   7.004  2.7952 -1.4893 -1.2130
   37MOL   H221 8213   1.276   1.418   7.097  0.3732  1.1957 -0.2263
   37MOL   H222 8214   1.172   1.360   7.351  0.8414  0.9437  2.1139
   38MOL     C1 8215   6.206   5.306   0.650  0.2698  0.2930 -0.0255
   38MOL     C2 8216   6.179   5.341   0.798 -0.0319 -0.2832  0.1027
   38MOL     C3 8217   6.277   5.268   0.889 -0.3843  0.1583 -0.0570
   38MOL     O4 8218   6.394   5.264   0.864 -0.6677  0.3714  0.3104
   38MOL     C5 8219   6.221   5.213   1.022 -0.1182 -0.1454  0.2152
   38MOL     H6 8220   6.186   5.202   0.623 -0.3340  0.1714  0.8800
   38MOL     H7 8221   6.310   5.319   0.620 -0.0149  0.1645 -1.1006
   38MOL     H8 8222   6.091   5.282   0.825 -1.2607  0.7183 -1.6334
   38MOL     H9 8223   6.301   5.188   1.090  0.0953  1.2141  0.4782
   38MOL    H10 8224   6.143   5.283   1.055  1.3959  0.7098  2.0581
   38MOL    H11 8225   6.158   5.126   1.006 -1.3816  0.3530  2.2637
   38MOL    H12 8226   6.153   5.378   0.588  3.1470  2.3375 -0.2390
   38MOL    C13 8227   6.181   5.491   0.824 -0.3130 -0.1183  0.9063
   38MOL    C14 8228   6.115   5.542   0.952  0.7281  0.3848 -0.6043
   38MOL    C15 8229   5.967   5.510   0.956  0.6626  0.4915  0.4837
   38MOL    O16 8230   5.888   5.559   0.875 -0.2230  0.1856  0.0180
   38MOL    C17 8231   5.910   5.416   1.063  0.5610  0.2742  0.6039
   38MOL    H18 8232   6.284   5.527   0.822  0.8104 -3.1112  1.6826
   38MOL    H19 8233   6.141   5.541   0.736 -1.6850 -1.8982  0.4789
   38MOL    H20 8234   6.149   5.483   1.037  1.8962 -1.1858 -2.1553
   38MOL    H21 8235   5.806   5.440   1.080  0.2029 -1.9969  1.8110
   38MOL    H22 8236   5.922   5.310   1.040  0.0195  0.5082 -0.8429
   38MOL    H23 8237   5.964   5.439   1.155  0.6466 -0.2038  0.6751
   38MOL    C24 8238   6.158   5.696   0.961 -0.4273  0.5208 -0.9598
   38MOL    C25 8239   6.117   5.776   1.086 -0.3669  0.4345  0.4554
   38MOL    C26 8240   6.181   5.712   1.204 -0.3935  0.0755  0.2267
   38MOL    O27 8241   6.286   5.652   1.196 -0.4536 -0.1913  0.1620
   38MOL    C28 8242   6.108   5.726   1.331  0.2914 -0.9909  0.2053
   38MOL    H29 8243   6.266   5.698   0.949 -0.0193 -1.2198  1.7713
   38MOL    H30 8244   6.117   5.746   0.873  0.7817 -0.5338 -2.1382
   38MOL    H31 8245   6.010   5.775   1.101 -0.2826 -1.7726  1.0349
   38MOL    H32 8246   6.059   5.823   1.344 -0.3046 -0.8841 -2.5234
   38MOL    H33 8247   6.027   5.655   1.319 -0.1484 -0.6002  0.8549
   38MOL    H34 8248   6.167   5.706   1.420  2.0290 -1.3960 -0.9905
   38MOL    C35 8249   6.151   5.931   1.066  0.0734 -0.3260  0.3460
   38MOL    C36 8250   6.031   5.998   0.990  0.8632  0.3244  0.0307
   38MOL    C37 8251   5.957   6.095   1.094 -0.1697 -0.1341 -0.6221
   38MOL    O38 8252   5.951   6.214   1.074  0.5389  0.3584 -0.3411
   38MOL    C39 8253   5.883   6.032   1.213  0.2777  0.4828  0.4537
   38MOL    H40 8254   6.253   5.948   1.032 -0.3322 -1.8300 -1.7894
   38MOL    H41 8255   6.150   5.971   1.167 -0.5130  0.6987 -0.0507
   38MOL    H42 8256   5.963   5.916   0.966  1.2508  0.9409 -3.3483
   38MOL    H43 8257   5.796   6.091   1.240  0.1547 -0.1309  1.4438
   38MOL    H44 8258   5.951   6.018   1.297  1.3331  0.4599 -0.3952
   38MOL    H45 8259   5.862   5.927   1.191  0.3316  0.5972 -0.1485
   38MOL    C46 8260   6.079   6.068   0.857 -1.1275 -0.4554  0.2138
   38MOL    C47 8261   5.983   6.078   0.733  0.0035 -0.4427  0.2581
   38MOL    C48 8262   5.911   5.941   0.711  0.2272 -0.4759  0.1632
   38MOL    O49 8263   5.803   5.917   0.764  0.3980 -0.0991 -0.3528
   38MOL    C50 8264   5.978   5.836   0.624  0.2302 -0.0572  0.0626
   38MOL    H51 8265   6.171   6.010   0.845 -1.2362 -1.0384  2.0486
   38MOL    H52 8266   6.115   6.167   0.883  0.5798 -1.1440  0.5215
   38MOL    H53 8267   6.044   6.085   0.643  0.7433 -2.2491  0.5918
   38MOL    H54 8268   6.084   5.854   0.641 -0.4720  4.6547  0.0878
   38MOL    H55 8269   5.947   5.733   0.635 -2.2292  0.7421  0.9002
   38MOL    H56 8270   5.950   5.863   0.522  0.6651 -1.9890 -0.5815
   38MOL    C57 8271   5.879   6.188   0.764  0.2343  0.4146 -0.4347
   38MOL    C58 8272   5.803   6.240   0.642 -0.4593  0.8719  0.3933
   38MOL    C59 8273   5.684   6.325   0.682  0.4322 -1.1848  0.3196
   38MOL    O60 8274   5.684   6.410   0.772 -0.3235  0.4419 -0.0680
   38MOL    C61 8275   5.557   6.290   0.607  0.0327  0.1053 -0.4051
   38MOL    H62 8276   5.924   6.271   0.818  0.0316  0.0816  0.2527
   38MOL    H63 8277   5.810   6.145   0.837  0.8925 -1.2250 -0.7419
   38MOL    H64 8278   5.759   6.156   0.588  1.7156  0.5080 -0.8778
   38MOL    H65 8279   5.556   6.185   0.633  2.0304 -0.5705 -2.7947
   38MOL    H66 8280   5.480   6.340   0.665  0.6153  1.1017 -0.4689
   38MOL    H67 8281   5.541   6.306   0.500  0.9456  2.0363 -0.2889
   38MOL    C68 8282   5.894   6.310   0.535  0.3359  0.5919  0.1563
   38MOL    C69 8283   5.833   6.333   0.394  0.2539  0.5620  1.0215
   38MOL    C70 8284   5.791   6.211   0.317  0.5548 -0.5331  0.7384
   38MOL    O71 8285   5.680   6.206   0.261 -0.1828 -0.3283  0.3320
   38MOL    C72 8286   5.887   6.093   0.288 -0.3568 -0.3168 -0.6209
   38MOL    H73 8287   5.922   6.408   0.574  0.3168  0.5051  0.3852
   38MOL    H74 8288   5.979   6.242   0.525 -0.4887 -0.4861  0.3328
   38MOL    H75 8289   5.741   6.389   0.413  0.7076  1.2205  1.2848
   38MOL    H76 8290   5.878   6.023   0.371 -2.3550 -1.3035 -1.6452
   38MOL    H77 8291   5.857   6.069   0.186 -1.7010  0.1195 -0.3412
   38MOL    H78 8292   5.985   6.140   0.296  0.6414 -2.3698 -0.7791
   38MOL    C79 8293   5.938   6.407   0.300 -0.3575  0.1308 -0.4180
   38MOL    C80 8294   5.904   6.557   0.266  0.6026  0.5303  0.7550
   38MOL    C81 8295   5.759   6.568   0.206 -0.0228 -0.7073 -0.8838
   38MOL    O82 8296   5.670   6.614   0.277 -0.3886  0.1274  0.0181
   38MOL    C83 8297   5.726   6.513   0.063 -0.4870  0.6724 -0.1037
   38MOL    H84 8298   5.961   6.357   0.205  2.2590  0.0062  0.2342
   38MOL    H85 8299   6.031   6.397   0.356  0.8824 -0.3818 -2.4798
   38MOL    H86 8300   5.896   6.617   0.357  2.3461  1.8840  0.0347
   38MOL    H87 8301   5.800   6.434   0.048  1.2746  2.0227  1.3713
   38MOL    H88 8302   5.736   6.586   7.840  0.3402  1.0905  0.3859
   38MOL    H89 8303   5.623   6.477   0.057 -0.2359 -0.1600  0.4870
   38MOL    C90 8304   6.025   6.620   0.183  0.0975  0.1367 -0.1879
   38MOL    C91 8305   6.011   6.763   0.119  0.2412 -0.3655 -1.0742
   38MOL    C92 8306   6.120   6.861   0.163 -0.1771 -0.2060 -0.1425
   38MOL    O93 8307   6.181   6.938   0.091 -0.0712 -0.2079 -0.2417
   38MOL    C94 8308   6.151   6.883   0.311 -0.3606 -0.8316 -0.3792
   38MOL    H95 8309   6.112   6.625   0.248  0.4055 -2.4212 -0.3778
   38MOL    H96 8310   6.056   6.545   0.111 -0.8710  0.3321 -0.8153
   38MOL    H97 8311   5.914   6.795   0.158  0.0197 -0.5836 -1.4397
   38MOL    H98 8312   6.123   6.808   0.386  2.7931 -0.7111  0.9959
   38MOL    H99 8313   6.257   6.904   0.325 -0.6015 -1.1722  2.3419
   38MOL   H100 8314   6.091   6.973   0.322  2.9196  1.5199 -1.1169
   38MOL   C101 8315   5.991   6.770   7.816 -0.0511 -0.1696 -0.5768
   38MOL   C102 8316   5.933   6.896   7.742 -1.0613  0.0563  0.9604
   38MOL   C103 8317   5.789   6.931   7.776  0.5039  0.7192  0.7707
   38MOL   O104 8318   5.725   6.840   7.834 -0.2630 -0.4541 -0.0606
   38MOL   C105 8319   5.733   7.069   7.738 -0.1239  0.5398  0.9947
   38MOL   H106 8320   6.084   6.735   7.772  0.1028  0.7400 -0.9762
   38MOL   H107 8321   5.920   6.688   7.802 -1.1932  0.6948  0.1352
   38MOL   H108 8322   6.000   6.976   7.773  1.6591 -0.5642 -2.9041
   38MOL   H109 8323   5.647   7.052   7.672  2.0163 -1.1049 -1.5006
   38MOL   H110 8324   5.704   7.133   7.821  0.2385 -2.3805  3.4387
   38MOL   H111 8325   5.794   7.132   7.674  0.6947 -1.7926 -0.6104
   38MOL   C112 8326   5.940   6.879   7.584 -0.2920  0.6188 -0.6535
   38MOL   C113 8327   6.075   6.850   7.516 -0.4325 -0.2378 -0.0578
   38MOL   C114 8328   6.194   6.929   7.562  0.0971  0.4295 -0.6711
   38MOL   O115 8329   6.192   7.051   7.548  0.2426  0.0737  0.2332
   38MOL   C116 8330   6.314   6.864   7.637  0.2647 -0.1829  0.1180
   38MOL   H117 8331   5.892   6.965   7.538  1.2170 -0.0601 -3.6112
   38MOL   H118 8332   5.872   6.797   7.558 -0.6435  1.0693 -1.1685
   38MOL   H119 8333   6.090   6.746   7.545 -0.0537 -0.0120  0.5715
   38MOL   H120 8334   6.287   6.770   7.686 -1.6324  0.2678 -0.0240
   38MOL   H121 8335   6.389   6.853   7.558 -0.6207  1.1859 -0.9490
   38MOL   H122 8336   6.361   6.925   7.713 -2.3240  1.9902  0.0474
   38MOL   C123 8337   6.050   6.873   7.368 -0.1731  0.3105 -0.1259
   38MOL   C124 8338   6.167   6.822   7.279  0.1355  0.7666 -0.1351
   38MOL   C125 8339   6.199   6.935   7.180  0.0263 -0.4164  0.4227
   38MOL   O126 8340   6.130   6.954   7.080 -0.3028  0.0086 -0.3528
   38MOL   C127 8341   6.332   7.001   7.205 -0.4062 -0.0388  0.3990
   38MOL   H128 8342   6.036   6.980   7.352  2.2890  0.6443 -0.1297
   38MOL   H129 8343   5.956   6.831   7.331 -0.7507  0.2759  1.3324
   38MOL   H130 8344   6.250   6.815   7.349  0.8150  1.9508 -0.8106
   38MOL   H131 8345   6.362   7.081   7.137 -0.6201 -0.5636 -0.3195
   38MOL   H132 8346   6.415   6.930   7.208  0.2129  0.7409  2.8161
   38MOL   H133 8347   6.327   7.053   7.301  0.7131  0.7082  0.0633
   38MOL   C134 8348   6.139   6.681   7.216 -0.3673 -0.5234 -0.3848
   38MOL   C135 8349   6.245   6.598   7.143  0.4213  0.3201 -0.6776
   38MOL   C136 8350   6.347   6.534   7.228 -0.3682  0.3478 -0.4446
   38MOL   O137 8351   6.328   6.507   7.351  0.0033 -0.5718  0.5183
   38MOL   C138 8352   6.480   6.498   7.177  0.9416 -0.2746 -0.1630
   38MOL   H139 8353   6.052   6.688   7.151  0.2118  0.6113 -1.0581
   38MOL   H140 8354   6.103   6.621   7.300  1.3065 -1.1455 -0.0880
   38MOL   H141 8355   6.313   6.663   7.088 -1.4835  2.1269 -0.9706
   38MOL   H142 8356   6.482   6.392   7.150  1.6474 -0.7327  1.5580
   38MOL   H143 8357   6.560   6.517   7.249  2.1924 -0.6197 -1.4472
   38MOL   H144 8358   6.508   6.551   7.086  3.7707 -0.2571  0.6704
   38MOL   C145 8359   6.182   6.497   7.032  0.0293 -0.1706 -0.1993
   38MOL   C146 8360   6.111   6.358   7.070  0.5208 -0.5727 -0.1298
   38MOL   C147 8361   5.985   6.387   7.148  0.4394  0.1049 -0.4342
   38MOL   O148 8362   5.906   6.471   7.106  0.2767  0.1583 -0.4353
   38MOL   C149 8363   5.949   6.308   7.266  0.0630 -0.0798  0.3423
   38MOL   H150 8364   6.268   6.472   6.970 -1.5105  1.0909 -2.9319
   38MOL   H151 8365   6.119   6.553   6.963  1.4883  0.3041 -1.1804
   38MOL   H152 8366   6.179   6.306   7.136  0.0522 -1.0278  0.0004
   38MOL   H153 8367   5.919   6.372   7.349 -2.3845  0.2828 -0.7686
   38MOL   H154 8368   5.871   6.235   7.242 -0.7062  0.4257  1.2448
   38MOL   H155 8369   6.035   6.249   7.298 -0.6788 -2.2618 -1.5475
   38MOL   C156 8370   6.074   6.269   6.946 -0.6216  0.1001  0.6368
   38MOL   C157 8371   6.036   6.125   6.986  0.1511  0.3114  0.3932
   38MOL   C158 8372   6.147   6.052   7.068 -0.0415  0.1502 -0.5597
   38MOL   O159 8373   6.122   5.977   7.163  0.5011 -0.2990  0.0027
   38MOL   C160 8374   6.292   6.048   7.027 -1.0213 -0.4272 -0.5392
   38MOL   H161 8375   5.994   6.314   6.886 -1.7083 -0.0497  1.9454
   38MOL   H162 8376   6.157   6.255   6.877 -0.2387 -0.4145  1.2086
   38MOL   H163 8377   5.951   6.139   7.052 -1.3881 -3.6345 -0.6052
   38MOL   H164 8378   6.308   5.958   6.967  0.6303 -0.4997 -0.0137
   38MOL   H165 8379   6.355   6.049   7.116 -0.2431 -2.7929 -1.0134
   38MOL   H166 8380   6.324   6.138   6.975  2.1607  0.1001  2.1797
   38MOL   C167 8381   5.991   6.033   6.864  0.2308  0.0785 -0.4339
   38MOL   C168 8382   5.888   5.918   6.889  0.1996  0.5801 -0.5585
   38MOL   C169 8383   5.894   5.811   6.786  0.3780  0.2338  0.4773
   38MOL   O170 8384   5.955   5.826   6.678  0.5226  0.1227 -0.1001
   38MOL   C171 8385   5.827   5.678   6.809 -0.3386 -0.1377  0.3136
   38MOL   H172 8386   5.946   6.095   6.786  0.8450  1.9465  0.6553
   38MOL   H173 8387   6.080   5.991   6.817  0.2498 -0.5458  0.1666
   38MOL   H174 8388   5.936   5.868   6.973 -3.0285 -0.9532  0.4392
   38MOL   H175 8389   5.719   5.680   6.827 -0.2148  1.2897  1.0188
   38MOL   H176 8390   5.870   5.619   6.889  1.1148  0.0917 -0.2866
   38MOL   H177 8391   5.849   5.618   6.721 -0.6890  0.9050 -0.5052
   38MOL   C178 8392   5.744   5.974   6.924 -0.0650 -0.1481 -0.5045
   38MOL   C179 8393   5.652   6.022   6.809 -0.5277 -0.2006 -0.1226
   38MOL   C180 8394   5.681   6.166   6.763 -0.5510  0.0190 -0.5066
   38MOL   O181 8395   5.726   6.196   6.653  0.1513 -0.1096 -0.1920
   38MOL   C182 8396   5.657   6.280   6.863 -0.5062  0.7457  0.5167
   38MOL   H183 8397   5.683   5.888   6.953  1.4205 -0.9135  0.4075
   38MOL   H184 8398   5.754   6.043   7.008  1.6634  1.3591 -1.9129
   38MOL   H185 8399   5.661   5.964   6.717  0.3975  0.0074 -0.1709
   38MOL   H186 8400   5.679   6.372   6.809  2.3217 -0.4213 -0.4282
   38MOL   H187 8401   5.720   6.269   6.951  0.4444  0.1509 -0.2249
   38MOL   H188 8402   5.550   6.281   6.885 -0.4833  0.5736  0.6378
   38MOL   C189 8403   5.504   6.007   6.835 -0.3954  0.4762 -0.1981
   38MOL   C190 8404   5.409   6.003   6.711 -0.5612 -0.1781  0.0448
   38MOL   C191 8405   5.438   5.877   6.626  0.3392  0.0093  0.2557
   38MOL   O192 8406   5.492   5.889   6.516  0.0934 -0.6618 -0.4295
   38MOL   C193 8407   5.439   5.742   6.689  0.8735 -0.2500 -0.7585
   38MOL   H194 8408   5.489   5.911   6.884  0.4205  0.8598  0.8307
   38MOL   H195 8409   5.481   6.078   6.915  1.2960  2.7205 -1.6497
   38MOL   H196 8410   5.431   6.084   6.642 -1.4799 -1.2318 -1.5317
   38MOL   H197 8411   5.346   5.720   6.741  1.1757 -0.8098 -0.4508
   38MOL   H198 8412   5.443   5.665   6.611  1.2026 -0.8454 -0.1559
   38MOL   H199 8413   5.524   5.724   6.755  0.2987 -0.0964  0.0286
   38MOL   C200 8414   5.265   6.017   6.763  0.5792  0.5181 -0.2199
   38MOL   C201 8415   5.166   6.035   6.648 -0.4053  0.1022 -0.6056
   38MOL   C202 8416   5.185   6.168   6.579 -0.3772 -0.0387  0.3403
   38MOL   O203 8417   5.150   6.278   6.630 -0.1220  0.4548 -0.0258
   38MOL   C204 8418   5.248   6.168   6.436  0.7077 -0.8832 -0.5689
   38MOL   H205 8419   5.228   5.939   6.830  2.1459  0.7526  0.9542
   38MOL   H206 8420   5.261   6.095   6.839 -1.8720 -1.0915  1.4155
   38MOL   H207 8421   5.182   5.956   6.575  0.0267 -0.9459  0.5970
   38MOL   H208 8422   5.224   6.070   6.395  0.8530 -0.5695 -1.4115
   38MOL   H209 8423   5.223   6.245   6.363 -2.2128 -1.5199 -0.2920
   38MOL   H210 8424   5.355   6.179   6.453  0.5052 -0.1886  0.2746
   38MOL   C211 8425   5.017   6.012   6.691 -0.1509  0.4744 -0.1385
   38MOL   C212 8426   4.896   6.039   6.591 -0.4060  0.6404 -0.2713
   38MOL   C213 8427   4.904   5.972   6.454 -0.2119  0.1943 -0.8186
   38MOL   O214 8428   4.991   5.891   6.420 -0.0320 -0.1880 -0.1466
   38MOL   C215 8429   4.787   6.000   6.359 -0.2524  0.0242 -0.2637
   38MOL   H216 8430   5.012   5.912   6.734  2.8640  0.5136  0.4194
   38MOL   H217 8431   4.997   6.083   6.771 -0.2900  1.6493 -1.2093
   38MOL   H218 8432   4.892   6.146   6.573  1.7649  1.0869  1.6739
   38MOL   H219 8433   4.775   6.101   6.318 -0.2355 -0.4437 -1.4363
   38MOL   H220 8434   4.774   5.928   6.279 -1.7323  1.6775 -1.5502
   38MOL   H221 8435   4.698   5.985   6.420  0.4079  0.4525  0.8225
   38MOL   H222 8436   4.804   6.007   6.641 -1.1394 -0.2011 -2.1130
   39MOL     C1 8437   0.369   0.044   3.080 -0.0916 -0.5165 -0.3400
   39MOL     C2 8438   0.421   0.178   3.136  0.5827 -0.1559  0.1274
   39MOL     C3 8439   0.295   0.239   3.212  0.1025 -0.4074  0.4205
   39MOL     O4 8440   0.241   0.181   3.312 -0.0716  0.6367 -0.2696
   39MOL     C5 8441   0.232   0.361   3.145 -0.2106  0.6602 -0.5083
   39MOL     H6 8442   0.345   0.064   2.976 -2.0040  1.6135  0.4671
   39MOL     H7 8443   0.285   7.854   3.130  1.2736 -1.6356  0.9685
   39MOL     H8 8444   0.457   0.247   3.060  1.5185  0.8363  1.4561
   39MOL     H9 8445   0.308   0.432   3.112  0.7907  0.6984  1.7892
   39MOL    H10 8446   0.169   0.343   3.059  0.4324  0.0153 -0.8556
   39MOL    H11 8447   0.177   0.415   3.222  0.8519 -0.8661  1.3696
   39MOL    H12 8448   0.455   7.834   3.081 -0.8924 -1.5593 -1.1360
   39MOL    C13 8449   0.529   0.147   3.241 -0.1744  0.4534  0.3296
   39MOL    C14 8450   0.602   0.274   3.300  0.1175 -0.0208  0.0535
   39MOL    C15 8451   0.686   0.354   3.198 -0.1624 -0.1705 -0.1172
   39MOL    O16 8452   0.738   0.295   3.104 -0.1576  0.1011 -0.2106
   39MOL    C17 8453   0.711   0.501   3.224  0.0991 -0.1707  0.2788
   39MOL    H18 8454   0.491   0.091   3.327 -0.2042  1.2042  0.8131
   39MOL    H19 8455   0.606   0.087   3.192 -0.9441  0.4990 -0.9447
   39MOL    H20 8456   0.520   0.339   3.330  0.3810 -0.3448  1.5131
   39MOL    H21 8457   0.720   0.546   3.125  0.5016  0.8919  0.7846
   39MOL    H22 8458   0.624   0.552   3.264  0.5396 -0.0031  1.0391
   39MOL    H23 8459   0.805   0.527   3.273 -0.2824  2.0788 -0.0865
   39MOL    C24 8460   0.694   0.236   3.418  0.0891  0.3590 -0.6902
   39MOL    C25 8461   0.626   0.218   3.560  0.8765 -0.3374  0.1138
   39MOL    C26 8462   0.726   0.164   3.664  0.5135 -0.0946 -0.7830
   39MOL    O27 8463   0.702   0.162   3.781 -0.4316  0.1362  0.5618
   39MOL    C28 8464   0.857   0.098   3.611  1.0063  0.0085  0.4457
   39MOL    H29 8465   0.741   0.142   3.387  0.2177 -0.1312  0.9234
   39MOL    H30 8466   0.767   0.316   3.423 -1.4135  1.9114 -2.5908
   39MOL    H31 8467   0.559   0.132   3.569  0.5157  0.0025  0.6972
   39MOL    H32 8468   0.902   0.157   3.532  1.3749 -1.3278 -0.3548
   39MOL    H33 8469   0.927   0.093   3.695  1.6559  1.7809  0.0176
   39MOL    H34 8470   0.836   7.849   3.595  0.8733  0.1624 -0.4008
   39MOL    C35 8471   0.550   0.347   3.606 -0.2304 -0.0744 -0.0749
   39MOL    C36 8472   0.446   0.320   3.706  0.1336  0.6906 -0.0254
   39MOL    C37 8473   0.438   0.437   3.806 -0.0651  0.0120 -0.6561
   39MOL    O38 8474   0.392   0.548   3.775  0.3718  0.5980 -0.3235
   39MOL    C39 8475   0.482   0.406   3.951 -0.2111 -0.7822 -0.6079
   39MOL    H40 8476   0.518   0.412   3.525  1.1918 -0.5396 -1.0415
   39MOL    H41 8477   0.623   0.407   3.660  0.2726 -1.3356  0.6888
   39MOL    H42 8478   0.460   0.225   3.757  1.7857  1.6210  1.3506
   39MOL    H43 8479   0.543   0.487   3.992 -1.0000 -0.5154  0.0617
   39MOL    H44 8480   0.539   0.314   3.964  2.4725  0.9090  0.0728
   39MOL    H45 8481   0.398   0.392   4.019  0.9640 -3.5237  0.3007
   39MOL    C46 8482   0.305   0.297   3.637 -0.4286 -0.0405  0.0905
   39MOL    C47 8483   0.193   0.255   3.730 -0.5172  0.0010 -0.3487
   39MOL    C48 8484   0.063   0.301   3.665  0.4567 -1.1709  0.0774
   39MOL    O49 8485   7.853   0.393   3.714  0.3513 -0.7146  0.2309
   39MOL    C50 8486   0.016   0.226   3.537  0.3103 -0.1239 -0.1867
   39MOL    H51 8487   0.313   0.219   3.562 -2.2727  0.2801 -0.4641
   39MOL    H52 8488   0.287   0.395   3.593 -1.1976 -0.4947 -0.6191
   39MOL    H53 8489   0.201   0.302   3.827  0.2137  0.0108 -0.4125
   39MOL    H54 8490   7.765   0.225   3.544  0.2091 -0.0566 -1.6353
   39MOL    H55 8491   0.028   0.283   3.446 -0.1704  0.3288  0.0315
   39MOL    H56 8492   0.055   0.124   3.529 -0.1367 -0.2342 -1.0436
   39MOL    C57 8493   0.199   0.102   3.753  0.7938 -0.2141 -0.1798
   39MOL    C58 8494   0.155   0.065   3.900 -0.1494  0.2938  0.8768
   39MOL    C59 8495   0.254   0.110   4.014 -0.0333  0.4262  0.6174
   39MOL    O60 8496   0.219   0.181   4.104 -0.0995 -0.2026  0.3307
   39MOL    C61 8497   0.395   0.049   4.004  0.1430 -0.0840 -0.1292
   39MOL    H62 8498   0.299   0.065   3.730  0.8151 -0.5246  0.4115
   39MOL    H63 8499   0.144   0.038   3.684  0.8732  0.4750 -0.8863
   39MOL    H64 8500   0.165   7.814   3.901  1.1605  0.4147  1.0459
   39MOL    H65 8501   0.401   7.816   3.944  0.9880  0.6096 -1.1124
   39MOL    H66 8502   0.474   0.115   3.969  0.0293 -0.5296 -1.2377
   39MOL    H67 8503   0.441   0.032   4.102 -0.3974 -0.2358  0.1037
   39MOL    C68 8504   0.010   0.097   3.920 -0.2587 -0.9399 -0.6641
   39MOL    C69 8505   7.814   0.032   4.044 -0.1588  0.8322  0.4932
   39MOL    C70 8506   7.790   7.732   4.031  0.5872  0.3089  0.0569
   39MOL    O71 8507   7.794   7.670   3.925 -0.2067  0.0705 -0.1106
   39MOL    C72 8508   7.756   7.656   4.157  0.3419 -0.2706  0.1209
   39MOL    H73 8509   7.855   0.205   3.914 -1.5150 -0.9834  1.0577
   39MOL    H74 8510   7.816   0.057   3.833  0.4971 -0.9204 -1.1254
   39MOL    H75 8511   0.029   0.043   4.124  0.6804 -0.1420 -0.1257
   39MOL    H76 8512   7.841   7.590   4.177 -0.3463 -1.4475 -0.7312
   39MOL    H77 8513   7.731   7.722   4.239  1.7169  2.9179 -1.9319
   39MOL    H78 8514   7.664   7.599   4.144  0.1093  0.4317 -1.4262
   39MOL    C79 8515   7.696   0.118   4.101  0.2078 -0.1040  0.1744
   39MOL    C80 8516   7.550   0.088   4.057 -0.1433  0.2858 -0.5728
   39MOL    C81 8517   7.525   0.081   3.910  0.2927  0.1272  0.1694
   39MOL    O82 8518   7.475   7.832   3.863  0.3881  0.0145 -0.0450
   39MOL    C83 8519   7.556   0.202   3.818 -0.8625 -0.3813 -0.3760
   39MOL    H84 8520   7.727   0.223   4.091  0.8800 -0.3492 -0.3388
   39MOL    H85 8521   7.707   0.109   4.209 -2.0439  0.4503  0.4754
   39MOL    H86 8522   7.543   7.841   4.087 -0.5547  0.3783 -0.3435
   39MOL    H87 8523   7.553   0.279   3.896 -2.8079 -0.4915 -0.3137
   39MOL    H88 8524   7.493   0.229   3.734 -0.2197  1.3170 -0.3423
   39MOL    H89 8525   7.652   0.181   3.773 -0.4138 -0.5757  0.6446
   39MOL    C90 8526   7.440   0.168   4.141  0.1852 -0.7620  0.5475
   39MOL    C91 8527   7.389   0.101   4.268  0.3651 -0.5973 -0.3724
   39MOL    C92 8528   7.495   0.076   4.379 -0.1927  0.5299  0.7883
   39MOL    O93 8529   7.556   0.166   4.430  0.1171 -0.4714  0.5212
   39MOL    C94 8530   7.507   7.795   4.442 -0.2417  0.5686 -0.0128
   39MOL    H95 8531   7.478   0.265   4.173  0.5887 -0.3473 -1.1150
   39MOL    H96 8532   7.364   0.209   4.074  0.1596 -1.5717  0.0768
   39MOL    H97 8533   7.351   0.004   4.237 -0.1542 -0.7866  0.8312
   39MOL    H98 8534   7.611   7.796   4.474 -0.0653 -0.1410 -0.5423
   39MOL    H99 8535   7.444   7.777   4.530 -0.8010 -1.0280 -0.7111
   39MOL   H100 8536   7.488   7.721   4.364  0.2817 -0.6110  0.9585
   39MOL   C101 8537   7.266   0.173   4.330 -0.4330 -0.3956  0.4601
   39MOL   C102 8538   7.195   0.103   4.452 -0.0993 -0.0061  0.4686
   39MOL   C103 8539   7.109   7.841   4.401  0.2846  0.3022  0.6328
   39MOL   O104 8540   7.078   7.825   4.285 -0.2476  1.1043  0.4253
   39MOL   C105 8541   7.082   7.733   4.503 -0.3832  0.4252 -0.5685
   39MOL   H106 8542   7.290   0.276   4.354  1.2620 -0.6917  0.1282
   39MOL   H107 8543   7.187   0.184   4.255 -0.8505 -0.7706  0.8477
   39MOL   H108 8544   7.268   0.055   4.518 -0.0805  0.9688  1.1717
   39MOL   H109 8545   6.991   7.762   4.556 -0.4016  0.5394 -0.6640
   39MOL   H110 8546   7.077   7.636   4.453  1.5498 -0.9227  1.7033
   39MOL   H111 8547   7.152   7.719   4.586 -1.6690 -0.3201  0.4125
   39MOL   C112 8548   7.109   0.208   4.536 -0.0573  0.1092  0.8914
   39MOL   C113 8549   7.179   0.313   4.622 -0.4437  0.3732 -0.0507
   39MOL   C114 8550   7.271   0.244   4.726 -0.5300 -0.1389  0.3143
   39MOL   O115 8551   7.257   0.126   4.767 -0.7592 -0.5096 -0.4065
   39MOL   C116 8552   7.389   0.324   4.782  0.0069 -0.3484 -0.9272
   39MOL   H117 8553   7.047   0.143   4.597  1.4314 -2.6414 -0.4043
   39MOL   H118 8554   7.033   0.255   4.474 -0.4477  1.0022  2.0339
   39MOL   H119 8555   7.236   0.366   4.545  0.2361  0.1245  0.2731
   39MOL   H120 8556   7.479   0.279   4.741  0.9685 -0.4498  1.2386
   39MOL   H121 8557   7.389   0.429   4.754  0.1332  0.3723  1.6562
   39MOL   H122 8558   7.388   0.308   4.890 -1.7643  1.0281 -0.7089
   39MOL   C123 8559   7.085   0.425   4.684 -0.4190  0.1872 -0.0437
   39MOL   C124 8560   7.006   0.389   4.809 -0.0513  0.2743  0.3898
   39MOL   C125 8561   6.886   0.294   4.780 -0.5307 -0.8419 -0.5721
   39MOL   O126 8562   6.821   0.307   4.680 -0.1536  0.0227  0.4295
   39MOL   C127 8563   6.865   0.182   4.871  0.6457 -0.9455  0.5386
   39MOL   H128 8564   7.006   0.463   4.618  0.4614 -0.3716 -1.4379
   39MOL   H129 8565   7.155   0.505   4.707  0.1853  0.0604 -1.3700
   39MOL   H130 8566   7.069   0.329   4.875  0.9717 -1.9230 -2.4821
   39MOL   H131 8567   6.917   0.207   4.964  0.9178  0.2321  0.0784
   39MOL   H132 8568   6.918   0.099   4.825 -2.4348 -2.3944 -0.4758
   39MOL   H133 8569   6.759   0.156   4.876  0.6078 -1.0365 -0.7147
   39MOL   C134 8570   6.960   0.505   4.896  0.4976 -0.1908  0.4602
   39MOL   C135 8571   6.988   0.482   5.050  0.8473 -0.2836 -0.1294
   39MOL   C136 8572   7.138   0.461   5.083  0.6541 -0.4706  0.2225
   39MOL   O137 8573   7.223   0.535   5.029 -0.1696  0.5269 -0.5634
   39MOL   C138 8574   7.170   0.347   5.174 -0.2829  0.2250 -0.4819
   39MOL   H139 8575   6.852   0.510   4.882  0.8233 -1.2206 -2.9019
   39MOL   H140 8576   6.990   0.598   4.848  1.1688 -1.5781 -1.8860
   39MOL   H141 8577   6.945   0.387   5.083 -1.6320 -0.0807 -2.5756
   39MOL   H142 8578   7.086   0.321   5.238  0.8675  1.0128  1.3776
   39MOL   H143 8579   7.255   0.373   5.236  0.8973  0.2045 -2.0689
   39MOL   H144 8580   7.194   0.254   5.123  0.3415  0.0727  0.0815
   39MOL   C145 8581   6.935   0.590   5.147  0.9040 -0.1938 -0.0987
   39MOL   C146 8582   7.005   0.728   5.188 -0.3390 -0.6175  0.0664
   39MOL   C147 8583   7.014   0.816   5.064  0.0241  0.0200  0.2683
   39MOL   O148 8584   6.914   0.880   5.028 -0.5312 -0.4665  0.1444
   39MOL   C149 8585   7.139   0.833   4.978  0.4985  0.0289 -0.7438
   39MOL   H150 8586   6.936   0.530   5.238 -0.7534 -1.1140 -0.6600
   39MOL   H151 8587   6.829   0.610   5.130  0.6593 -1.3607  0.0404
   39MOL   H152 8588   7.110   0.719   5.216 -0.3664 -0.0850  0.3487
   39MOL   H153 8589   7.230   0.801   5.029  0.6570  0.4449 -0.7551
   39MOL   H154 8590   7.136   0.780   4.882 -0.2057 -2.1683  0.4681
   39MOL   H155 8591   7.168   0.937   4.964  0.0509  0.0786 -1.3266
   39MOL   C156 8592   6.950   0.787   5.319  0.3067 -0.1634 -0.1579
   39MOL   C157 8593   7.019   0.920   5.367  0.3084 -0.1688  0.4736
   39MOL   C158 8594   7.136   0.900   5.471 -0.9417 -0.3969 -0.1855
   39MOL   O159 8595   7.154   0.789   5.526 -0.3474  0.0704 -0.1968
   39MOL   C160 8596   7.224   1.025   5.509 -0.4603  0.5005 -0.0009
   39MOL   H161 8597   6.846   0.814   5.297  0.1617 -1.7530 -1.4492
   39MOL   H162 8598   6.959   0.707   5.392 -0.6941  1.8152  2.2366
   39MOL   H163 8599   7.063   0.963   5.277  0.5646 -1.4440 -0.0241
   39MOL   H164 8600   7.331   1.005   5.505 -0.3696  1.0611 -0.3748
   39MOL   H165 8601   7.208   1.058   5.612  1.8963 -2.4456  1.4291
   39MOL   H166 8602   7.211   1.109   5.442 -2.3482  0.6677  0.5521
   39MOL   C167 8603   6.924   1.035   5.414  0.1194 -0.2110 -0.2716
   39MOL   C168 8604   6.849   1.020   5.559 -0.2483 -0.4376 -0.4545
   39MOL   C169 8605   6.769   0.891   5.574  0.4804 -0.3254  0.1492
   39MOL   O170 8606   6.694   0.860   5.483  0.4217 -0.0781  0.0531
   39MOL   C171 8607   6.796   0.807   5.699  0.2695 -0.1231 -0.4608
   39MOL   H172 8608   6.978   1.129   5.406 -0.0841  0.2361  2.8082
   39MOL   H173 8609   6.846   1.034   5.337 -0.4901 -0.1600  0.3355
   39MOL   H174 8610   6.932   1.024   5.630 -0.3147 -0.4755 -0.3730
   39MOL   H175 8611   6.742   0.841   5.787  2.5861 -3.5347  2.4199
   39MOL   H176 8612   6.900   0.827   5.728  0.7868 -0.3902 -2.0510
   39MOL   H177 8613   6.772   0.704   5.676 -2.5289  0.5400 -0.6603
   39MOL   C178 8614   6.753   1.142   5.572 -0.4322  0.4404  0.0139
   39MOL   C179 8615   6.661   1.157   5.695  0.7778  0.1564 -0.8527
   39MOL   C180 8616   6.562   1.276   5.674  0.3016  0.6231 -0.1043
   39MOL   O181 8617   6.583   1.387   5.718  0.6951 -0.3488  0.6165
   39MOL   C182 8618   6.440   1.249   5.582  0.3820 -0.0808 -0.6230
   39MOL   H183 8619   6.805   1.238   5.562 -0.6178  0.6158  0.7435
   39MOL   H184 8620   6.684   1.142   5.487  0.2557  1.2622 -0.5566
   39MOL   H185 8621   6.599   1.069   5.711 -1.6610  2.0122  0.2156
   39MOL   H186 8622   6.339   1.257   5.623  0.6204 -1.6743  0.3038
   39MOL   H187 8623   6.451   1.143   5.561  0.9500 -0.2830  0.6649
   39MOL   H188 8624   6.459   1.310   5.494  0.4895  1.4168  0.4162
   39MOL   C189 8625   6.747   1.177   5.825  0.1022 -0.7547 -0.1878
   39MOL   C190 8626   6.666   1.179   5.962  0.3268 -0.0672  0.0525
   39MOL   C191 8627   6.634   1.038   6.010  0.3591 -0.2913 -0.5993
   39MOL   O192 8628   6.722   0.963   6.040 -0.5725  0.1476  0.0605
   39MOL   C193 8629   6.491   0.998   6.024  0.1168 -0.1441 -0.8796
   39MOL   H194 8630   6.830   1.106   5.824 -0.4477 -1.4070 -0.9349
   39MOL   H195 8631   6.792   1.276   5.821 -0.8418 -0.3374 -0.4457
   39MOL   H196 8632   6.563   1.206   5.939 -0.0854 -0.1110  1.7749
   39MOL   H197 8633   6.434   1.030   5.937 -0.3116 -1.2455 -1.0108
   39MOL   H198 8634   6.486   0.891   6.040  0.0064 -0.2045 -1.3236
   39MOL   H199 8635   6.453   1.053   6.111 -1.4176  0.4002 -1.8751
   39MOL   C200 8636   6.728   1.273   6.069  0.2946  0.2973  0.3927
   39MOL   C201 8637   6.636   1.331   6.181 -0.3663 -0.1351  0.5562
   39MOL   C202 8638   6.638   1.239   6.303  0.2483  0.0209 -0.3652
   39MOL   O203 8639   6.547   1.167   6.331 -0.8373 -0.2333 -0.1534
   39MOL   C204 8640   6.754   1.251   6.391 -0.7546  0.8205  0.3953
   39MOL   H205 8641   6.820   1.235   6.113  0.6204  2.0695  1.2917
   39MOL   H206 8642   6.765   1.360   6.016  1.5882  0.6654  1.8774
   39MOL   H207 8643   6.688   1.420   6.218 -0.1272  0.2771 -0.7458
   39MOL   H208 8644   6.820   1.334   6.365  0.0251 -0.1582 -0.7556
   39MOL   H209 8645   6.717   1.275   6.491  0.0749 -1.3270  1.2337
   39MOL   H210 8646   6.812   1.159   6.393  1.3899  2.0663 -2.0769
   39MOL   C211 8647   6.500   1.384   6.131  0.1527  0.8850 -0.0952
   39MOL   C212 8648   6.497   1.517   6.047  0.2301 -0.0118  0.6740
   39MOL   C213 8649   6.356   1.547   5.994 -0.1086 -0.0834 -0.3234
   39MOL   O214 8650   6.257   1.501   6.048 -0.8059 -0.1360  0.1630
   39MOL   C215 8651   6.351   1.641   5.873 -0.0184  0.4857 -0.0662
   39MOL   H216 8652   6.452   1.305   6.072  0.4798  0.4748  0.1842
   39MOL   H217 8653   6.430   1.389   6.213 -2.1516 -2.2303 -1.7717
   39MOL   H218 8654   6.570   1.515   5.966  1.0127  1.2416  1.3340
   39MOL   H219 8655   6.423   1.717   5.902 -0.8144  1.3731 -0.4198
   39MOL   H220 8656   6.378   1.590   5.781  1.6241 -1.0341  1.2069
   39MOL   H221 8657   6.246   1.668   5.863 -0.5947 -0.9561  1.7102
   39MOL   H222 8658   6.520   1.603   6.110  0.1258  1.1323 -0.8344
   40MOL     C1 8659   3.168   0.345   6.299  0.0181 -0.6955  0.4974
   40MOL     C2 8660   3.056   0.353   6.195 -0.6220 -0.2843  0.5100
   40MOL     C3 8661   2.918   0.390   6.257 -1.1482  0.0630 -0.0572
   40MOL     O4 8662   2.880   0.507   6.263 -0.5594  0.2002  0.3843
   40MOL     C5 8663   2.839   0.278   6.330  0.2312  0.0126 -0.4468
   40MOL     H6 8664   3.263   0.305   6.265 -0.8751 -2.9488  0.5843
   40MOL     H7 8665   3.140   0.278   6.381  0.6688 -0.9353  0.5249
   40MOL     H8 8666   3.049   0.252   6.155 -0.3273 -0.3423  0.6038
   40MOL     H9 8667   2.742   0.317   6.361  0.6173 -0.4070  1.3091
   40MOL    H10 8668   2.832   0.194   6.260 -0.6946  0.2983 -0.7042
   40MOL    H11 8669   2.895   0.253   6.420  1.5604  1.7470 -0.7820
   40MOL    H12 8670   3.186   0.448   6.332 -0.6439  0.2104 -1.8424
   40MOL    C13 8671   3.097   0.451   6.084 -0.2234 -0.3852  0.3417
   40MOL    C14 8672   3.006   0.446   5.959  0.3628  1.0854  0.1645
   40MOL    C15 8673   2.977   0.303   5.908  0.1524 -0.3085 -0.3603
   40MOL    O16 8674   3.064   0.231   5.854  0.0512  0.3594 -0.3104
   40MOL    C17 8675   2.836   0.246   5.922 -0.5178 -0.3445  0.0156
   40MOL    H18 8676   3.104   0.556   6.113 -0.0677 -0.5212  0.8092
   40MOL    H19 8677   3.193   0.427   6.038  1.1500  2.8053  1.3829
   40MOL    H20 8678   2.906   0.480   5.988 -0.4995 -1.2471  0.0270
   40MOL    H21 8679   2.842   0.141   5.895 -0.2777 -0.4943  0.6328
   40MOL    H22 8680   2.805   0.260   6.026 -3.1045 -0.3076 -0.7300
   40MOL    H23 8681   2.764   0.294   5.857  0.3247  2.1991  0.8834
   40MOL    C24 8682   3.044   0.532   5.843 -0.4441 -0.4290 -0.9917
   40MOL    C25 8683   2.924   0.594   5.759 -0.2052  0.4892  0.1155
   40MOL    C26 8684   2.854   0.708   5.832 -0.4776 -0.3643 -0.5850
   40MOL    O27 8685   2.894   0.744   5.943 -0.6334 -0.2667 -0.2366
   40MOL    C28 8686   2.733   0.767   5.767 -0.0565 -1.0326  0.4781
   40MOL    H29 8687   3.092   0.617   5.893  3.2749 -2.7619 -0.4072
   40MOL    H30 8688   3.116   0.477   5.782 -0.7115 -1.1671 -0.6410
   40MOL    H31 8689   2.848   0.518   5.749  0.0971  0.1428  0.4495
   40MOL    H32 8690   2.655   0.794   5.837  0.0443  1.0409 -0.1561
   40MOL    H33 8691   2.765   0.848   5.701 -1.8431 -0.4089  0.3543
   40MOL    H34 8692   2.697   0.692   5.696  0.2407 -0.5494 -0.1921
   40MOL    C35 8693   2.966   0.642   5.614  0.5037  0.1477  0.6052
   40MOL    C36 8694   3.037   0.543   5.530 -0.1524  0.1323  0.5755
   40MOL    C37 8695   2.997   0.395   5.540 -0.0605  0.7341 -0.2477
   40MOL    O38 8696   2.887   0.353   5.569 -0.3103  0.0479 -0.1517
   40MOL    C39 8697   3.107   0.296   5.514 -0.3629 -0.4615  0.2239
   40MOL    H40 8698   3.031   0.728   5.629  0.9535 -0.4270  2.1336
   40MOL    H41 8699   2.879   0.680   5.561  0.3712 -2.9679 -1.5732
   40MOL    H42 8700   3.141   0.547   5.560  0.2349 -1.1957 -0.5670
   40MOL    H43 8701   3.065   0.199   5.485 -1.3932 -0.0122  0.1856
   40MOL    H44 8702   3.165   0.282   5.605  0.7144  0.7937 -0.2648
   40MOL    H45 8703   3.172   0.321   5.430 -2.8631  1.6281 -1.1779
   40MOL    C46 8704   3.044   0.582   5.380  0.4187  0.1199  0.0553
   40MOL    C47 8705   3.147   0.696   5.352 -0.0074 -0.1882  0.1677
   40MOL    C48 8706   3.289   0.646   5.336 -0.2431 -0.5538 -0.8407
   40MOL    O49 8707   3.313   0.543   5.275 -0.2949  0.0641  0.6336
   40MOL    C50 8708   3.402   0.725   5.387  0.2867  0.6309 -0.1816
   40MOL    H51 8709   2.945   0.605   5.341  1.1757  0.5049 -1.6589
   40MOL    H52 8710   3.054   0.497   5.314 -0.9178 -1.6744  2.0815
   40MOL    H53 8711   3.141   0.767   5.435  2.7728  2.1889 -1.5495
   40MOL    H54 8712   3.355   0.801   5.448  2.4306  1.8409  0.0310
   40MOL    H55 8713   3.463   0.652   5.441 -0.7723 -0.4267 -0.4165
   40MOL    H56 8714   3.460   0.779   5.312 -0.0767 -0.1907 -1.0689
   40MOL    C57 8715   3.100   0.773   5.226  0.1273  0.2907 -0.0139
   40MOL    C58 8716   3.174   0.900   5.177 -0.3758  0.0347 -0.2012
   40MOL    C59 8717   3.104   0.949   5.055  0.1465  0.2821 -0.8026
   40MOL    O60 8718   2.984   0.988   5.057 -0.4867 -0.4231 -0.3157
   40MOL    C61 8719   3.181   0.930   4.922  0.4794 -0.8604 -0.0740
   40MOL    H62 8720   2.999   0.811   5.243  0.5288  1.5344 -0.3731
   40MOL    H63 8721   3.080   0.695   5.152  1.2287  1.6472 -1.7833
   40MOL    H64 8722   3.277   0.884   5.144 -0.1706  0.9566 -0.0223
   40MOL    H65 8723   3.285   0.956   4.938  0.1650 -0.3529  1.1700
   40MOL    H66 8724   3.185   0.826   4.890 -4.4220 -0.3768 -2.8657
   40MOL    H67 8725   3.132   0.993   4.848  3.0031  0.7585 -0.4013
   40MOL    C68 8726   3.164   1.008   5.297  0.4116 -0.5197 -0.2736
   40MOL    C69 8727   3.227   1.146   5.278 -0.2496  0.6952 -0.4453
   40MOL    C70 8728   3.383   1.145   5.269 -0.2339 -0.2625 -0.4574
   40MOL    O71 8729   3.445   1.128   5.373 -0.0169 -0.5416  0.0792
   40MOL    C72 8730   3.451   1.160   5.131  0.7277  0.5351  0.1131
   40MOL    H73 8731   3.059   1.026   5.319 -0.4698 -3.3999 -1.8198
   40MOL    H74 8732   3.203   0.971   5.392  1.4786  0.4569 -0.3248
   40MOL    H75 8733   3.190   1.176   5.180  3.0410  1.4600 -1.4899
   40MOL    H76 8734   3.386   1.231   5.079  0.7254  0.2208 -0.3119
   40MOL    H77 8735   3.546   1.210   5.149  0.5783  1.1756 -0.8266
   40MOL    H78 8736   3.462   1.062   5.085  0.7725  0.0963  1.0390
   40MOL    C79 8737   3.184   1.248   5.382  0.5393 -0.1172  0.1584
   40MOL    C80 8738   3.166   1.396   5.319  0.1939 -0.4817  0.2736
   40MOL    C81 8739   3.224   1.507   5.402  0.4782  0.3554  0.2885
   40MOL    O82 8740   3.156   1.597   5.444  0.6260 -0.6288 -0.2215
   40MOL    C83 8741   3.377   1.497   5.442 -0.3519 -0.4977  0.1692
   40MOL    H84 8742   3.248   1.248   5.470  1.6757 -0.5569 -0.6503
   40MOL    H85 8743   3.091   1.207   5.420  1.2228 -2.4855 -0.6531
   40MOL    H86 8744   3.232   1.394   5.232 -0.7474 -0.5892 -0.4391
   40MOL    H87 8745   3.436   1.437   5.373 -0.4966 -0.9703  0.4537
   40MOL    H88 8746   3.387   1.450   5.540 -0.7814  1.7436  1.3007
   40MOL    H89 8747   3.426   1.592   5.465 -0.1835 -0.4514 -0.3781
   40MOL    C90 8748   3.015   1.424   5.274 -0.0840  0.3727  0.2065
   40MOL    C91 8749   3.006   1.545   5.165  0.4182 -0.2767 -0.4907
   40MOL    C92 8750   3.067   1.478   5.038 -0.5150  0.3534  0.3159
   40MOL    O93 8751   3.142   1.543   4.969  0.0214  0.0903  0.0498
   40MOL    C94 8752   3.006   1.349   4.985  0.1072 -0.5421  0.3865
   40MOL    H95 8753   2.957   1.335   5.249  0.4783 -0.4288  1.6804
   40MOL    H96 8754   2.956   1.457   5.359 -0.4586  2.0211 -0.6568
   40MOL    H97 8755   3.074   1.626   5.190  2.0788 -1.6199 -0.6278
   40MOL    H98 8756   3.060   1.263   5.024 -1.8373 -1.3748  1.3101
   40MOL    H99 8757   2.901   1.338   5.009  0.2223  1.2637  1.7896
   40MOL   H100 8758   3.003   1.349   4.876  1.2069  1.8339  0.3074
   40MOL   C101 8759   2.870   1.604   5.145  0.3488 -0.1204  0.8109
   40MOL   C102 8760   2.876   1.726   5.059 -0.3956 -0.2745 -0.0901
   40MOL   C103 8761   2.913   1.855   5.147 -0.0718  0.1408  0.4992
   40MOL   O104 8762   2.911   1.849   5.269 -0.1690  0.0523  0.1755
   40MOL   C105 8763   2.934   1.986   5.067  0.5957  0.1115  0.0957
   40MOL   H106 8764   2.807   1.527   5.101 -0.4809 -0.8102  3.1019
   40MOL   H107 8765   2.825   1.626   5.243  0.1821 -1.8019  1.1166
   40MOL   H108 8766   2.952   1.711   4.982  1.4441  1.1696  1.3963
   40MOL   H109 8767   2.921   1.974   4.959  0.9845  1.9580 -0.1797
   40MOL   H110 8768   2.864   2.053   5.115  1.1233 -0.4434  1.6531
   40MOL   H111 8769   3.037   2.023   5.077 -0.1532  1.9751  1.1964
   40MOL   C112 8770   2.741   1.754   4.987  0.6482 -0.6152 -0.6525
   40MOL   C113 8771   2.704   1.661   4.866  0.2014 -0.6408 -0.1533
   40MOL   C114 8772   2.775   1.700   4.738 -1.2507 -0.0557  0.3548
   40MOL   O115 8773   2.722   1.779   4.660 -0.3150 -0.2525 -0.0028
   40MOL   C116 8774   2.913   1.644   4.705 -0.4105  0.9914 -0.5578
   40MOL   H117 8775   2.735   1.858   4.954  0.8775 -1.9460 -5.2751
   40MOL   H118 8776   2.665   1.747   5.064  1.3465 -2.4154 -0.0842
   40MOL   H119 8777   2.748   1.563   4.887  0.5430 -0.6304 -0.8112
   40MOL   H120 8778   2.966   1.614   4.795  1.5363 -0.1835 -2.0502
   40MOL   H121 8779   2.904   1.556   4.641 -2.4021  0.2513  0.7054
   40MOL   H122 8780   2.976   1.715   4.651  0.4072 -1.4386 -2.9282
   40MOL   C123 8781   2.556   1.625   4.862 -0.4932 -0.8931 -0.0892
   40MOL   C124 8782   2.528   1.490   4.788 -0.2806 -0.1220 -0.1555
   40MOL   C125 8783   2.386   1.483   4.730 -0.0964  0.3035  0.4341
   40MOL   O126 8784   2.297   1.426   4.795  0.3014 -0.5976  0.0913
   40MOL   C127 8785   2.354   1.537   4.587  0.3290  0.3804 -0.3608
   40MOL   H128 8786   2.502   1.713   4.829  1.6416  0.3826 -0.2738
   40MOL   H129 8787   2.523   1.615   4.966  0.2340 -0.9430  0.1436
   40MOL   H130 8788   2.589   1.483   4.698 -0.9649  0.1020 -0.6384
   40MOL   H131 8789   2.245   1.535   4.578  0.1766 -1.6567  1.4800
   40MOL   H132 8790   2.398   1.467   4.517 -1.1837  1.2998 -2.2818
   40MOL   H133 8791   2.385   1.641   4.572 -1.3956  1.1149  0.9156
   40MOL   C134 8792   2.556   1.368   4.883  0.2839  0.0084 -0.2020
   40MOL   C135 8793   2.563   1.225   4.812  0.0127 -0.5337  0.3715
   40MOL   C136 8794   2.650   1.219   4.688  0.8460 -0.0258  0.3003
   40MOL   O137 8795   2.751   1.289   4.674  0.1911  0.0540 -0.2732
   40MOL   C138 8796   2.603   1.135   4.572  0.0848  0.5215 -0.0094
   40MOL   H139 8797   2.485   1.374   4.966 -1.2445  0.1124 -1.4848
   40MOL   H140 8798   2.647   1.387   4.939  0.1030  0.6014 -0.1075
   40MOL   H141 8799   2.465   1.192   4.777  0.2414  1.3257 -2.2039
   40MOL   H142 8800   2.498   1.162   4.563  0.3149  1.9170  1.3500
   40MOL   H143 8801   2.607   1.026   4.580  0.4007  0.5368  0.0232
   40MOL   H144 8802   2.665   1.168   4.489 -0.4991 -2.9778 -1.9878
   40MOL   C145 8803   2.626   1.119   4.909 -0.2237 -0.2678 -0.7709
   40MOL   C146 8804   2.539   1.057   5.021 -0.2169 -0.1073 -0.0063
   40MOL   C147 8805   2.409   0.990   4.972  0.3635  0.1557 -0.0502
   40MOL   O148 8806   2.420   0.913   4.876  0.2406  0.5120  0.3554
   40MOL   C149 8807   2.274   1.022   5.030 -0.3496  0.1206 -0.6598
   40MOL   H150 8808   2.721   1.161   4.942 -1.2818  2.8034 -1.4360
   40MOL   H151 8809   2.661   1.035   4.849 -1.2033 -1.3802  0.1908
   40MOL   H152 8810   2.516   1.138   5.090 -2.2455 -1.1622  0.5919
   40MOL   H153 8811   2.228   0.930   5.066  0.0750  1.2503  2.9316
   40MOL   H154 8812   2.281   1.083   5.119 -2.2986 -0.2052 -0.2499
   40MOL   H155 8813   2.214   1.083   4.962 -0.2622  1.3723  0.3881
   40MOL   C156 8814   2.638   0.959   5.092  0.7815 -0.4268 -0.3720
   40MOL   C157 8815   2.585   0.910   5.231 -0.3715  0.3588  0.3190
   40MOL   C158 8816   2.688   0.927   5.343  0.0361  0.4926 -0.3561
   40MOL   O159 8817   2.736   0.831   5.400  0.3286 -0.4077 -0.2770
   40MOL   C160 8818   2.729   1.066   5.377  0.6525 -0.3394  0.3694
   40MOL   H161 8819   2.673   0.874   5.034  0.2485  0.0116 -1.3317
   40MOL   H162 8820   2.739   0.999   5.103 -0.0239  1.1112  1.9055
   40MOL   H163 8821   2.499   0.968   5.265  0.1125  1.4316 -0.2678
   40MOL   H164 8822   2.677   1.102   5.466  0.5884  1.9899 -0.5611
   40MOL   H165 8823   2.715   1.129   5.289  2.5254  1.9089  1.6079
   40MOL   H166 8824   2.837   1.078   5.387  0.5845  0.4805  0.1337
   40MOL   C167 8825   2.537   0.762   5.221  0.5883  0.1305  0.1212
   40MOL   C168 8826   2.450   0.718   5.341  1.0162  0.3290 -0.1148
   40MOL   C169 8827   2.462   0.569   5.380  0.5132 -0.2042 -0.2775
   40MOL   O170 8828   2.387   0.487   5.334  0.1587 -0.2745 -0.3382
   40MOL   C171 8829   2.572   0.524   5.477  0.2612 -0.4064  0.1534
   40MOL   H172 8830   2.486   0.735   5.129  2.2067 -2.9292  0.0441
   40MOL   H173 8831   2.620   0.691   5.227 -0.3032 -0.8837  0.6926
   40MOL   H174 8832   2.481   0.770   5.432  1.3718 -1.8864  1.0847
   40MOL   H175 8833   2.559   0.530   5.585  1.1305 -3.9458  0.5210
   40MOL   H176 8834   2.651   0.596   5.451  1.7934 -2.2405 -0.4234
   40MOL   H177 8835   2.593   0.421   5.447 -0.5406  0.0065 -1.9035
   40MOL   C178 8836   2.306   0.762   5.315 -0.2578 -0.1206  0.4107
   40MOL   C179 8837   2.222   0.754   5.438  0.3170  0.4592 -0.2567
   40MOL   C180 8838   2.067   0.746   5.405 -0.3709  0.9754  0.0211
   40MOL   O181 8839   2.013   0.790   5.302  0.0657 -0.5517  0.0448
   40MOL   C182 8840   1.970   0.668   5.500 -0.7466 -0.2118 -0.4441
   40MOL   H183 8841   2.301   0.865   5.281  3.8294  0.1812  0.5467
   40MOL   H184 8842   2.268   0.695   5.238 -2.8906  1.2845  0.4375
   40MOL   H185 8843   2.244   0.656   5.480 -0.0139 -0.3460 -1.9410
   40MOL   H186 8844   1.891   0.627   5.437 -3.2385  2.8252  0.5364
   40MOL   H187 8845   1.912   0.735   5.564 -0.5582  0.2749 -0.7737
   40MOL   H188 8846   2.032   0.598   5.555  0.9972  2.3051  0.9008
   40MOL   C189 8847   2.258   0.859   5.544  0.5168 -0.0676  0.2455
   40MOL   C190 8848   2.239   0.811   5.690 -0.5372  0.9429  0.8821
   40MOL   C191 8849   2.333   0.688   5.725 -0.4772  0.2715  0.2792
   40MOL   O192 8850   2.459   0.698   5.731  0.7548  0.0011 -0.3700
   40MOL   C193 8851   2.270   0.545   5.736 -0.0854  0.9006  0.3680
   40MOL   H194 8852   2.363   0.889   5.550  0.7051 -0.5827 -0.4637
   40MOL   H195 8853   2.196   0.945   5.517  1.0974  0.0424 -0.7385
   40MOL   H196 8854   2.134   0.784   5.690 -0.8148  1.9743  0.0686
   40MOL   H197 8855   2.179   0.537   5.796  0.7122 -0.0384  1.4784
   40MOL   H198 8856   2.252   0.503   5.637  0.9493  0.7589  0.2328
   40MOL   H199 8857   2.337   0.476   5.788  1.7294  1.5900 -0.9773
   40MOL   C200 8858   2.266   0.933   5.777 -0.3973  0.1628 -0.5248
   40MOL   C201 8859   2.226   0.918   5.924  0.2632 -0.4834  0.3617
   40MOL   C202 8860   2.095   0.841   5.940  0.0483  0.0940 -0.6252
   40MOL   O203 8861   1.997   0.854   5.867  0.4554  0.2995 -0.1672
   40MOL   C204 8862   2.089   0.746   6.062 -0.2342  0.2858 -0.9667
   40MOL   H205 8863   2.372   0.957   5.776  0.4791 -2.8539  4.0571
   40MOL   H206 8864   2.211   1.022   5.747 -0.0385  1.2411  1.9190
   40MOL   H207 8865   2.316   0.880   5.972  0.6750 -0.7460 -0.6107
   40MOL   H208 8866   2.056   0.644   6.042  0.0829 -0.1984  0.9709
   40MOL   H209 8867   2.184   0.749   6.115 -1.2781  0.8673  0.9230
   40MOL   H210 8868   2.019   0.786   6.135  0.6810 -0.8856  0.5761
   40MOL   C211 8869   2.212   1.056   5.996 -0.4528  0.1770  0.1807
   40MOL   C212 8870   2.196   1.054   6.149  0.3187  0.1290  0.0166
   40MOL   C213 8871   2.215   1.189   6.212  0.4501  0.2620  0.4525
   40MOL   O214 8872   2.236   1.290   6.150 -0.2918 -1.0872  0.7160
   40MOL   C215 8873   2.199   1.195   6.363  0.0551 -0.3450 -0.3110
   40MOL   H216 8874   2.298   1.117   5.969 -0.6272 -0.0897 -1.0099
   40MOL   H217 8875   2.126   1.108   5.954  0.9678  1.4144 -1.2466
   40MOL   H218 8876   2.273   0.986   6.185  1.1743  1.3027  0.4552
   40MOL   H219 8877   2.110   1.136   6.383 -0.6377  1.3447  1.7439
   40MOL   H220 8878   2.292   1.163   6.410 -0.2610 -2.5025 -1.1180
   40MOL   H221 8879   2.182   1.298   6.395 -0.0401 -0.3158 -0.4543
   40MOL   H222 8880   2.099   1.015   6.177  0.1288  0.6116  0.0363
   41MOL     C1 8881   3.749   1.065   5.722 -0.7311 -0.1414 -0.5169
   41MOL     C2 8882   3.778   0.934   5.655 -0.2435  0.6845 -0.7911
   41MOL     C3 8883   3.900   0.863   5.714 -0.1329 -0.7013  0.4533
   41MOL     O4 8884   3.930   0.868   5.836  0.4120  0.2652 -0.3217
   41MOL     C5 8885   3.976   0.770   5.618 -0.1956  0.1598 -0.7353
   41MOL     H6 8886   3.701   1.043   5.817 -1.3168  0.6609 -0.6192
   41MOL     H7 8887   3.665   1.111   5.671 -0.7889  0.4049  0.0717
   41MOL     H8 8888   3.786   0.951   5.547 -1.2561 -1.7380 -1.2693
   41MOL     H9 8889   3.956   0.672   5.661  1.6406 -0.1565 -0.5811
   41MOL    H10 8890   3.927   0.768   5.520 -0.9386 -0.6120 -0.3550
   41MOL    H11 8891   4.083   0.788   5.615 -0.4352  1.6181 -1.0733
   41MOL    H12 8892   3.835   1.132   5.731 -2.0115  1.1140  2.8101
   41MOL    C13 8893   3.652   0.839   5.646 -0.6253  0.1326  0.3370
   41MOL    C14 8894   3.589   0.799   5.784  0.1590 -0.3073  0.9842
   41MOL    C15 8895   3.581   0.643   5.797 -0.3974  0.0375  0.1447
   41MOL    O16 8896   3.478   0.583   5.786  0.7485 -0.3413  0.6057
   41MOL    C17 8897   3.713   0.572   5.778  0.6845 -0.4760 -0.2027
   41MOL    H18 8898   3.584   0.897   5.583  0.2152 -0.6121 -1.2607
   41MOL    H19 8899   3.690   0.761   5.580  0.0288  0.7877 -0.0648
   41MOL    H20 8900   3.654   0.843   5.860  1.4752  1.6753 -1.2207
   41MOL    H21 8901   3.688   0.466   5.778  0.7512 -0.5006  1.1766
   41MOL    H22 8902   3.758   0.612   5.687  1.1682  0.5103  0.4594
   41MOL    H23 8903   3.782   0.580   5.863 -0.9896  1.1677  1.0228
   41MOL    C24 8904   3.445   0.857   5.811 -0.2309 -0.0418  0.1965
   41MOL    C25 8905   3.357   0.813   5.929  0.3071  0.3270 -0.5943
   41MOL    C26 8906   3.420   0.832   6.062 -0.7250  0.5579  0.4568
   41MOL    O27 8907   3.451   0.943   6.100  0.6901  0.6725 -0.0852
   41MOL    C28 8908   3.438   0.704   6.158  0.3733  0.1085 -0.0343
   41MOL    H29 8909   3.452   0.966   5.816  0.3528 -0.0729  0.0651
   41MOL    H30 8910   3.385   0.831   5.725 -0.7636 -1.4122  0.9666
   41MOL    H31 8911   3.355   0.704   5.922  2.9504  0.3616 -2.8923
   41MOL    H32 8912   3.495   0.626   6.109  0.1992  0.9338 -1.5730
   41MOL    H33 8913   3.486   0.727   6.253  1.0006  0.0349 -0.3329
   41MOL    H34 8914   3.344   0.659   6.189  0.5061 -0.1816 -0.0513
   41MOL    C35 8915   3.214   0.858   5.925 -0.0097  0.1945  0.4615
   41MOL    C36 8916   3.189   1.015   5.932  0.3363  0.1410  0.0431
   41MOL    C37 8917   3.185   1.079   5.788 -1.0079 -0.1335 -0.3427
   41MOL    O38 8918   3.123   1.022   5.702  0.1209  0.1570 -0.4530
   41MOL    C39 8919   3.249   1.217   5.765 -0.1177 -0.4741 -0.1351
   41MOL    H40 8920   3.157   0.811   6.005 -1.5914 -2.4070 -2.0729
   41MOL    H41 8921   3.171   0.804   5.841  1.9200 -1.4278  0.4632
   41MOL    H42 8922   3.271   1.057   5.991 -0.2009  0.4798  0.5468
   41MOL    H43 8923   3.220   1.273   5.853  1.9580  1.4237 -0.6174
   41MOL    H44 8924   3.205   1.269   5.680 -0.1469  1.9974  1.3551
   41MOL    H45 8925   3.357   1.219   5.745  0.1426 -0.2294  1.2689
   41MOL    C46 8926   3.055   1.058   6.001 -0.1901  0.1200  0.1364
   41MOL    C47 8927   3.061   1.090   6.154 -0.6027 -0.6161  0.0198
   41MOL    C48 8928   3.133   1.224   6.174  0.6418  0.1655  0.0528
   41MOL    O49 8929   3.073   1.329   6.146 -0.5652 -0.0119 -0.1369
   41MOL    C50 8930   3.279   1.230   6.210 -0.1342 -0.1133 -0.4112
   41MOL    H51 8931   2.980   0.982   5.983  1.6288 -1.9197  0.9132
   41MOL    H52 8932   3.011   1.144   5.952 -0.3584  0.6455  1.1944
   41MOL    H53 8933   3.118   1.016   6.209 -1.2925 -2.0937 -1.2323
   41MOL    H54 8934   3.336   1.311   6.165  0.7421 -1.0233 -0.9578
   41MOL    H55 8935   3.293   1.237   6.318 -0.4031  0.2176 -0.3998
   41MOL    H56 8936   3.328   1.135   6.185 -1.7550 -1.1460  0.2564
   41MOL    C57 8937   2.916   1.098   6.207 -0.1818  0.3250 -0.4016
   41MOL    C58 8938   2.857   0.955   6.228  1.0112  0.0049  0.0353
   41MOL    C59 8939   2.935   0.876   6.333  0.3885 -0.4970 -0.4603
   41MOL    O60 8940   2.935   0.910   6.455 -0.2416 -0.1366  0.0323
   41MOL    C61 8941   3.022   0.756   6.295  0.0967 -0.7246 -0.6402
   41MOL    H62 8942   2.853   1.159   6.141  1.4436  4.0144  1.2787
   41MOL    H63 8943   2.922   1.140   6.307 -1.2276  0.7864 -0.5160
   41MOL    H64 8944   2.855   0.915   6.127  0.8484  0.3416 -0.0939
   41MOL    H65 8945   2.997   0.713   6.198  0.6762  0.1991 -1.2095
   41MOL    H66 8946   3.125   0.792   6.300  0.4936 -2.0489  1.1869
   41MOL    H67 8947   3.015   0.691   6.382 -2.8455  1.2470  0.6623
   41MOL    C68 8948   2.708   0.976   6.272 -0.1900 -0.4931  0.4130
   41MOL    C69 8949   2.617   0.850   6.290 -0.2086  0.1837 -0.2848
   41MOL    C70 8950   2.593   0.780   6.161 -0.2481  0.4887 -0.2428
   41MOL    O71 8951   2.528   0.834   6.073  0.1336 -0.4268  0.1110
   41MOL    C72 8952   2.616   0.626   6.162 -0.5492 -0.5054 -0.0778
   41MOL    H73 8953   2.717   1.037   6.361  1.3282 -0.4768  0.2573
   41MOL    H74 8954   2.665   1.048   6.202  1.1524 -0.2518 -0.1779
   41MOL    H75 8955   2.680   0.790   6.356 -1.9502  0.0006  1.2611
   41MOL    H76 8956   2.631   0.582   6.260 -0.7416 -0.4543 -0.0242
   41MOL    H77 8957   2.534   0.576   6.111  0.0469 -1.4337 -0.1367
   41MOL    H78 8958   2.708   0.603   6.110 -0.6019  1.5804 -1.1446
   41MOL    C79 8959   2.486   0.887   6.367  0.1881 -0.1175 -0.1091
   41MOL    C80 8960   2.387   0.768   6.391  0.2183 -0.1347 -0.0463
   41MOL    C81 8961   2.254   0.821   6.436 -0.8246  0.0009  0.5092
   41MOL    O82 8962   2.158   0.803   6.366  0.1856  0.0136  0.1961
   41MOL    C83 8963   2.250   0.890   6.576  0.0086  0.9567 -0.3193
   41MOL    H84 8964   2.427   0.963   6.318 -0.0333  0.5489  1.1734
   41MOL    H85 8965   2.513   0.943   6.456 -0.7693 -0.5281  0.4498
   41MOL    H86 8966   2.356   0.733   6.292 -1.7604 -0.7869  0.7997
   41MOL    H87 8967   2.194   0.820   6.638  0.7660 -0.7825 -1.5608
   41MOL    H88 8968   2.213   0.992   6.582 -0.6328  0.6676  0.8304
   41MOL    H89 8969   2.345   0.896   6.629 -0.9134 -0.6103  1.6107
   41MOL    C90 8970   2.444   0.655   6.484 -0.6318 -0.8683  0.1954
   41MOL    C91 8971   2.355   0.524   6.496  0.0880  0.1115 -0.1702
   41MOL    C92 8972   2.371   0.434   6.375  0.5971  0.3523 -0.3935
   41MOL    O93 8973   2.460   0.353   6.371 -0.0686  0.3037 -0.1310
   41MOL    C94 8974   2.290   0.463   6.249 -0.2853  0.4650  0.7157
   41MOL    H95 8975   2.544   0.625   6.451  0.4507  1.8305  0.8541
   41MOL    H96 8976   2.468   0.693   6.584 -0.3781  0.1077 -0.2367
   41MOL    H97 8977   2.252   0.560   6.497  0.4709  1.2526 -0.6847
   41MOL    H98 8978   2.230   0.554   6.256 -1.0448  0.4339 -3.6261
   41MOL    H99 8979   2.350   0.468   6.158  1.5948 -0.1573  1.8918
   41MOL   H100 8980   2.221   0.379   6.239  2.0178 -1.3563 -0.4008
   41MOL   C101 8981   2.386   0.453   6.634 -0.0785  0.0967 -0.5057
   41MOL   C102 8982   2.302   0.327   6.677  0.0080 -0.0234  0.0555
   41MOL   C103 8983   2.155   0.362   6.712  0.2085  0.7052  0.5262
   41MOL   O104 8984   2.127   0.416   6.816  0.1185  0.3774 -0.2878
   41MOL   C105 8985   2.049   0.354   6.601  0.4078  0.0264  0.2736
   41MOL   H106 8986   2.489   0.430   6.659 -0.9963 -0.5905  2.8452
   41MOL   H107 8987   2.363   0.530   6.707 -1.7810  0.4676 -1.3934
   41MOL   H108 8988   2.301   0.259   6.592  1.1039  0.7184 -0.5698
   41MOL   H109 8989   2.039   0.258   6.550  1.1243  0.1700 -0.1402
   41MOL   H110 8990   1.949   0.388   6.629 -1.3843 -1.9036 -3.3211
   41MOL   H111 8991   2.079   0.406   6.510  2.8845 -0.7144  0.6270
   41MOL   C112 8992   2.366   0.242   6.792  0.1559 -0.3401 -0.3709
   41MOL   C113 8993   2.498   0.175   6.756  0.0384  0.3186 -0.2643
   41MOL   C114 8994   2.477   0.094   6.629 -1.1045  0.4432  0.5831
   41MOL   O115 8995   2.370   0.034   6.613  0.2129  0.7458  0.0083
   41MOL   C116 8996   2.604   0.074   6.540  0.3187  0.4054  0.5571
   41MOL   H117 8997   2.296   0.168   6.831  0.3453  0.7218  2.0897
   41MOL   H118 8998   2.383   0.307   6.878 -1.2625 -0.7266  0.2196
   41MOL   H119 8999   2.568   0.257   6.740  0.8063  0.0533  1.6203
   41MOL   H120 9000   2.677   0.148   6.573  1.2468 -0.5348  0.6766
   41MOL   H121 9001   2.649   7.834   6.562  1.7752  0.3995 -2.2526
   41MOL   H122 9002   2.576   0.089   6.436  0.8043 -1.8933  0.0612
   41MOL   C123 9003   2.560   0.101   6.873  0.1808  0.4945 -0.0123
   41MOL   C124 9004   2.717   0.106   6.899  0.3025 -0.1131 -0.2961
   41MOL   C125 9005   2.787   7.852   6.825 -0.0822  0.1390 -0.4077
   41MOL   O126 9006   2.855   0.013   6.722 -0.2755 -0.0291  0.1959
   41MOL   C127 9007   2.755   7.711   6.884 -0.0211  0.4249 -0.8695
   41MOL   H128 9008   2.523   7.857   6.875 -1.3907  1.0643  0.4306
   41MOL   H129 9009   2.507   0.135   6.962  0.2515 -3.0290  1.4371
   41MOL   H130 9010   2.755   0.201   6.861  0.5966 -1.0861 -2.4952
   41MOL   H131 9011   2.722   7.641   6.807 -3.1727 -0.9358  1.6363
   41MOL   H132 9012   2.669   7.702   6.951  0.0139 -0.2377 -0.9114
   41MOL   H133 9013   2.846   7.666   6.924 -1.4744 -0.1549  1.9116
   41MOL   C134 9014   2.751   0.104   7.049  0.3338  0.1452 -0.4197
   41MOL   C135 9015   2.904   0.123   7.087  0.4670  0.0975  0.3032
   41MOL   C136 9016   2.952   0.268   7.068 -1.1697 -0.0635 -0.2449
   41MOL   O137 9017   2.912   0.360   7.143  0.7234 -0.0863  0.0493
   41MOL   C138 9018   3.054   0.298   6.960  0.4164  0.4121 -0.1129
   41MOL   H139 9019   2.703   0.012   7.085  2.6207 -0.9165  0.0277
   41MOL   H140 9020   2.689   0.181   7.094 -1.4402 -0.4126 -1.8396
   41MOL   H141 9021   2.961   0.065   7.014 -0.2633  1.6316 -1.5372
   41MOL   H142 9022   3.042   0.248   6.864  1.8544  0.8274 -0.5213
   41MOL   H143 9023   3.153   0.260   6.986 -1.1401 -2.2101  2.1785
   41MOL   H144 9024   3.045   0.402   6.929  0.3955  0.6799  0.7837
   41MOL   C145 9025   2.939   0.075   7.225 -0.6412  0.8645  0.4238
   41MOL   C146 9026   2.969   7.776   7.235  0.0888 -0.0681  0.1023
   41MOL   C147 9027   3.098   7.738   7.165 -0.7036  0.1247 -0.1726
   41MOL   O148 9028   3.102   7.673   7.063  0.6040  0.2578  0.1379
   41MOL   C149 9029   3.231   7.798   7.228 -0.2583  0.1987  0.2464
   41MOL   H150 9030   2.857   0.109   7.287 -0.8735 -0.1764  0.6853
   41MOL   H151 9031   3.033   0.122   7.255  0.6857 -0.2374 -1.8303
   41MOL   H152 9032   2.894   7.723   7.176  0.8264 -1.3179  0.2692
   41MOL   H153 9033   3.308   7.721   7.237  0.1597  0.5972  0.0852
   41MOL   H154 9034   3.270   0.025   7.171 -3.3542  1.1329 -0.5870
   41MOL   H155 9035   3.220   7.825   7.333 -2.4383  0.5120 -0.0511
   41MOL   C156 9036   2.960   7.728   7.386  0.4199 -0.4153 -0.6571
   41MOL   C157 9037   3.002   7.585   7.409 -0.4366 -0.1125 -0.0215
   41MOL   C158 9038   2.890   7.496   7.366  1.2713  0.4393 -0.3997
   41MOL   O159 9039   2.799   7.461   7.447 -0.2135 -0.6135 -0.0435
   41MOL   C160 9040   2.903   7.449   7.224  1.1744 -0.2176  0.0105
   41MOL   H161 9041   3.020   7.794   7.449  0.9129 -1.4134 -0.0733
   41MOL   H162 9042   2.856   7.736   7.420  0.4589 -0.1860 -0.5884
   41MOL   H163 9043   3.089   7.557   7.350 -1.5219 -1.6463 -0.9276
   41MOL   H164 9044   2.956   7.354   7.220  2.7944  0.6368  0.4119
   41MOL   H165 9045   2.962   7.527   7.176  1.3893 -0.0130  0.6010
   41MOL   H166 9046   2.811   7.445   7.167  0.1913 -0.0907  1.5692
   41MOL   C167 9047   3.037   7.545   7.555 -0.4378  0.5358  0.5719
   41MOL   C168 9048   3.099   7.405   7.577  0.2055  0.5613  0.2028
   41MOL   C169 9049   3.093   7.375   7.726  0.2242 -0.0315  0.5614
   41MOL   O170 9050   3.173   7.407   7.809  0.2380 -0.4574  0.7826
   41MOL   C171 9051   2.978   7.283   7.766  0.2820 -0.4646  0.0174
   41MOL   H172 9052   3.110   7.620   7.583  1.3057 -0.4028 -1.3248
   41MOL   H173 9053   2.951   7.560   7.621  0.8930  0.9108  2.2366
   41MOL   H174 9054   3.041   7.331   7.522  0.9476 -0.0598  0.2452
   41MOL   H175 9055   2.899   7.310   7.696  2.7176  0.9259 -2.2778
   41MOL   H176 9056   2.954   7.310   0.012 -1.3541 -2.2670  0.1249
   41MOL   H177 9057   3.025   7.185   7.760  0.4702 -0.4054  0.4780
   41MOL   C178 9058   3.244   7.392   7.523  0.5025 -0.1933  0.2082
   41MOL   C179 9059   3.280   7.246   7.518 -0.1682 -0.7252 -1.1726
   41MOL   C180 9060   3.424   7.228   7.564 -0.2956 -0.3057 -0.3772
   41MOL   O181 9061   3.517   7.250   7.488 -0.1227 -0.0730 -0.0326
   41MOL   C182 9062   3.464   7.203   7.710  0.6945 -0.6354 -0.0467
   41MOL   H183 9063   3.252   7.440   7.426  2.8210 -0.7927  0.0796
   41MOL   H184 9064   3.299   7.465   7.582  1.2653 -0.1975 -0.4954
   41MOL   H185 9065   3.219   7.191   7.590  0.2174 -1.0280 -1.0803
   41MOL   H186 9066   3.566   7.165   7.704  0.5538 -0.6130 -3.5141
   41MOL   H187 9067   3.385   7.158   7.771  0.3396  0.5953  0.4193
   41MOL   H188 9068   3.468   7.299   7.762 -1.8865 -0.6776  0.3148
   41MOL   C189 9069   3.272   7.193   7.364 -0.5847  0.2947 -0.1883
   41MOL   C190 9070   3.237   7.039   7.336 -0.0353 -0.1646  0.0035
   41MOL   C191 9071   3.353   6.952   7.382 -0.7010  0.0029  0.1074
   41MOL   O192 9072   3.356   6.898   7.494  0.2470 -0.3806  0.0519
   41MOL   C193 9073   3.477   6.944   7.288  0.1006  0.1829  0.0602
   41MOL   H194 9074   3.192   7.244   7.310  0.0031 -0.0458 -1.4119
   41MOL   H195 9075   3.363   7.222   7.311 -0.6133 -3.7916 -2.7101
   41MOL   H196 9076   3.230   7.037   7.227  2.5354  1.1653 -0.2235
   41MOL   H197 9077   3.439   6.940   7.186 -1.1842 -1.7097  0.5954
   41MOL   H198 9078   3.550   7.021   7.310  0.3077  0.2308 -0.7593
   41MOL   H199 9079   3.540   6.855   7.295  2.7317  2.2028  2.9087
   41MOL   C200 9080   3.093   7.009   7.388  0.6448 -0.5213  0.0403
   41MOL   C201 9081   3.045   6.859   7.368  0.3799 -0.5836 -0.2196
   41MOL   C202 9082   3.001   6.823   7.219 -0.2451  0.3678  1.1269
   41MOL   O203 9083   3.003   6.898   7.123 -0.1107 -0.7176  0.1565
   41MOL   C204 9084   2.962   6.681   7.190 -0.3218  0.5596  0.1126
   41MOL   H205 9085   3.089   7.019   7.496 -0.9331  1.1847 -0.1500
   41MOL   H206 9086   3.024   7.085   7.350  2.2445  1.1043  0.2815
   41MOL   H207 9087   3.127   6.794   7.396  0.0251 -0.8190  0.2956
   41MOL   H208 9088   2.942   6.613   7.273 -0.9021  2.8729  1.9453
   41MOL   H209 9089   2.863   6.673   7.145 -0.2579  1.0670 -0.1163
   41MOL   H210 9090   3.034   6.632   7.125  0.5785 -0.2046  1.6621
   41MOL   C211 9091   2.927   6.823   7.469 -0.6586  0.4579  0.4920
   41MOL   C212 9092   2.991   6.804   7.613  0.0587  0.5089 -0.1800
   41MOL   C213 9093   2.883   6.772   7.713 -0.7101 -0.8310 -0.4207
   41MOL   O214 9094   2.767   6.799   7.686  0.6508  0.3534 -0.4277
   41MOL   C215 9095   2.930   6.729   7.852 -0.4886 -0.7152 -0.5250
   41MOL   H216 9096   2.849   6.900   7.473 -0.9512  0.1512  0.7322
   41MOL   H217 9097   2.885   6.725   7.447  1.2072 -0.0766 -0.7799
   41MOL   H218 9098   3.040   6.897   7.644 -1.8911  1.9054 -1.1633
   41MOL   H219 9099   3.011   6.657   7.846  1.4109  1.4902 -2.0703
   41MOL   H220 9100   2.973   6.815   0.045  0.0469 -2.1820  1.5974
   41MOL   H221 9101   2.849   6.694   0.059 -1.8590  0.7296 -1.4152
   41MOL   H222 9102   3.067   6.726   7.613  0.2799  0.7179 -0.7326
   42MOL     C1 9103   6.677   5.054   1.952  0.0678 -0.3691 -0.0821
   42MOL     C2 9104   6.635   4.917   1.900 -0.0312  0.3233  0.3348
   42MOL     C3 9105   6.482   4.908   1.870 -0.3200 -0.5989  0.0956
   42MOL     O4 9106   6.435   4.983   1.782  0.4130  0.1444 -0.0082
   42MOL     C5 9107   6.401   4.806   1.941 -0.0895  0.1465  0.3930
   42MOL     H6 9108   6.621   5.078   2.043 -0.5198 -1.0995 -0.2404
   42MOL     H7 9109   6.654   5.136   1.884  0.4533 -0.4236 -0.2776
   42MOL     H8 9110   6.662   4.844   1.977  1.6946 -1.4629 -1.8974
   42MOL     H9 9111   6.431   4.785   2.043  0.7360 -4.1737 -0.6554
   42MOL    H10 9112   6.293   4.823   1.930 -0.6267 -0.1449  4.3799
   42MOL    H11 9113   6.415   4.710   1.891 -1.0450  0.7601 -1.1185
   42MOL    H12 9114   6.784   5.047   1.971  0.2822 -2.5956 -1.9446
   42MOL    C13 9115   6.718   4.873   1.785 -0.1496  0.0898  0.1914
   42MOL    C14 9116   6.731   4.724   1.740 -0.4664  0.2595 -0.4237
   42MOL    C15 9117   6.787   4.643   1.857 -0.2092  0.0594  0.1252
   42MOL    O16 9118   6.908   4.643   1.871 -0.1235 -0.5379 -0.6429
   42MOL    C17 9119   6.692   4.568   1.949  0.3068  0.2595 -0.9856
   42MOL    H18 9120   6.679   4.941   1.708 -0.7644  0.6807  1.0085
   42MOL    H19 9121   6.823   4.900   1.798 -0.2767  0.5850  0.1976
   42MOL    H20 9122   6.631   4.693   1.709  0.9856 -2.5782 -2.5106
   42MOL    H21 9123   6.742   4.483   1.994  0.1755  1.5862  1.8267
   42MOL    H22 9124   6.660   4.628   2.035 -1.8507 -0.7243 -1.0770
   42MOL    H23 9125   6.604   4.524   1.902  1.6331 -3.3408 -0.1879
   42MOL    C24 9126   6.811   4.714   1.611  0.0460  0.5109 -0.1750
   42MOL    C25 9127   6.803   4.574   1.548  0.6982 -0.3647 -0.7267
   42MOL    C26 9128   6.665   4.543   1.491 -1.4436  0.4096  0.2306
   42MOL    O27 9129   6.592   4.638   1.455 -0.1982  0.1799 -0.0183
   42MOL    C28 9130   6.628   4.396   1.469  0.4378 -0.0032  0.1385
   42MOL    H29 9131   6.771   4.784   1.538 -1.2898 -0.4260 -0.3564
   42MOL    H30 9132   6.914   4.747   1.621 -0.9131  2.7987  2.8479
   42MOL    H31 9133   6.818   4.496   1.623 -1.2470 -0.8451 -0.8059
   42MOL    H32 9134   6.599   4.365   1.369 -1.8094  0.6428  0.5584
   42MOL    H33 9135   6.716   4.338   1.496 -0.2058 -0.1265  2.0384
   42MOL    H34 9136   6.556   4.370   1.546  1.6536  0.1088  1.3309
   42MOL    C35 9137   6.908   4.555   1.435 -0.1788 -0.1748 -0.1358
   42MOL    C36 9138   7.048   4.520   1.487  0.3081  0.2522 -0.7316
   42MOL    C37 9139   7.061   4.402   1.579 -0.2941  0.4147 -0.2843
   42MOL    O38 9140   7.007   4.296   1.554  0.0437 -0.2215  0.3695
   42MOL    C39 9141   7.133   4.422   1.705 -0.1325 -0.3563 -0.8129
   42MOL    H40 9142   6.919   4.650   1.381 -1.2932  0.2515  0.3820
   42MOL    H41 9143   6.869   4.485   1.361 -1.2986 -2.3735  2.4409
   42MOL    H42 9144   7.088   4.608   1.536  2.5060 -0.4234 -1.2521
   42MOL    H43 9145   7.063   4.475   1.771 -1.1251  0.9281 -2.8630
   42MOL    H44 9146   7.229   4.469   1.685  1.3977 -2.9303  0.2238
   42MOL    H45 9147   7.169   4.324   1.737 -0.9569 -0.2027  0.6774
   42MOL    C46 9148   7.127   4.505   1.357  0.0979 -0.2363  0.0466
   42MOL    C47 9149   7.166   4.634   1.284 -0.6491  0.2725 -0.1506
   42MOL    C48 9150   7.254   4.727   1.374  0.4708  0.5718  0.3448
   42MOL    O49 9151   7.332   4.675   1.458  0.1667 -0.7108 -0.3839
   42MOL    C50 9152   7.266   4.869   1.332 -0.0041  0.2410  0.1617
   42MOL    H51 9153   7.068   4.435   1.297 -0.6650  1.0667 -0.7626
   42MOL    H52 9154   7.216   4.447   1.379  0.4069  0.7578  1.5006
   42MOL    H53 9155   7.072   4.681   1.256 -1.1913 -1.6418 -1.6385
   42MOL    H54 9156   7.332   4.876   1.246 -2.4044 -1.1909 -1.8550
   42MOL    H55 9157   7.166   4.899   1.299  0.5676  2.4395  0.3808
   42MOL    H56 9158   7.295   4.929   1.418  1.4247 -0.1372 -0.0499
   42MOL    C57 9159   7.226   4.612   1.144  0.0812  1.5437  0.3337
   42MOL    C58 9160   7.121   4.567   1.041 -0.3363 -0.5159 -0.0491
   42MOL    C59 9161   7.126   4.662   0.920 -0.2981  0.4223  0.4023
   42MOL    O60 9162   7.185   4.640   0.807  0.7856 -0.0876 -0.4207
   42MOL    C61 9163   7.056   4.795   0.938  0.2192  0.4569  0.3466
   42MOL    H62 9164   7.305   4.538   1.158 -1.8359 -0.5657  0.1979
   42MOL    H63 9165   7.286   4.698   1.114 -0.2153  1.7482  0.3247
   42MOL    H64 9166   7.020   4.586   1.077 -0.2857  1.1955 -0.7814
   42MOL    H65 9167   7.130   4.869   0.969  1.5136 -0.9978  0.8087
   42MOL    H66 9168   7.008   4.839   0.851  1.1631  1.4553  0.3067
   42MOL    H67 9169   6.987   4.786   1.021  1.8128 -1.0677  1.5274
   42MOL    C68 9170   7.136   4.418   1.000 -1.0707 -0.6254 -0.1781
   42MOL    C69 9171   7.048   4.361   0.882 -0.1442  0.0008  0.7106
   42MOL    C70 9172   6.899   4.398   0.895  0.0170 -0.6875 -0.1806
   42MOL    O71 9173   6.830   4.387   0.998  0.0927  0.3277  0.0890
   42MOL    C72 9174   6.838   4.468   0.774  1.3391  0.2408  0.8400
   42MOL    H73 9175   7.242   4.408   0.976 -1.4097  0.2847 -2.1502
   42MOL    H74 9176   7.115   4.347   1.080 -0.2795 -0.5909  0.0612
   42MOL    H75 9177   7.096   4.410   0.797 -1.0670 -0.6463 -0.1944
   42MOL    H76 9178   6.800   4.567   0.798 -1.4956 -0.7476  0.5904
   42MOL    H77 9179   6.903   4.466   0.686  0.2662 -2.0815  0.0599
   42MOL    H78 9180   6.741   4.424   0.753  0.7301  1.7889  0.3626
   42MOL    C79 9181   7.062   4.207   0.858  0.5342  0.6698  0.6943
   42MOL    C80 9182   7.036   4.155   0.712 -0.2127 -0.2027 -0.1604
   42MOL    C81 9183   6.976   4.015   0.730 -0.2570 -0.0630  0.1140
   42MOL    O82 9184   7.000   3.937   0.823  0.1979 -0.0575 -0.5056
   42MOL    C83 9185   6.880   3.961   0.621  0.5485 -0.4835  0.5676
   42MOL    H84 9186   7.001   4.160   0.935  0.1169 -2.2500 -1.3180
   42MOL    H85 9187   7.161   4.176   0.891  1.1329  2.4840  0.6245
   42MOL    H86 9188   6.961   4.224   0.672 -0.1737 -0.8419 -1.3609
   42MOL    H87 9189   6.840   3.865   0.653  0.0039 -0.5756 -0.3686
   42MOL    H88 9190   6.948   3.945   0.537  1.9906  0.1092  1.5958
   42MOL    H89 9191   6.813   4.043   0.600 -1.7646 -2.1432  1.2676
   42MOL    C90 9192   7.171   4.153   0.629 -0.3253 -0.8227 -0.6006
   42MOL    C91 9193   7.149   4.153   0.476 -0.2838 -0.2868  0.4275
   42MOL    C92 9194   7.069   4.276   0.426  0.1443 -0.8201  0.1772
   42MOL    O93 9195   7.069   4.390   0.479  0.7471  0.6786 -0.0830
   42MOL    C94 9196   6.979   4.246   0.309  0.7431 -0.9938 -0.1122
   42MOL    H95 9197   7.227   4.240   0.664  1.2921 -2.8508  2.0332
   42MOL    H96 9198   7.227   4.068   0.666  0.3960  0.5661  1.5934
   42MOL    H97 9199   7.084   4.066   0.460  0.1430 -0.7555  1.1979
   42MOL    H98 9200   6.878   4.286   0.320  0.7009 -0.9130 -0.7501
   42MOL    H99 9201   7.009   4.301   0.220 -0.4940 -0.0334  0.0468
   42MOL   H100 9202   6.975   4.138   0.294 -1.6136 -0.7611 -1.4275
   42MOL   C101 9203   7.284   4.134   0.405 -0.1151  0.4070 -0.5923
   42MOL   C102 9204   7.284   4.071   0.261  0.1150 -0.4209 -0.2183
   42MOL   C103 9205   7.222   3.935   0.243 -0.1891 -0.3755 -1.5717
   42MOL   O104 9206   7.142   3.919   0.155  0.1550  0.3832  0.2232
   42MOL   C105 9207   7.252   3.829   0.346 -0.2498  0.0414  0.6976
   42MOL   H106 9208   7.333   4.232   0.399  0.8442 -0.0879 -0.9628
   42MOL   H107 9209   7.345   4.082   0.479 -0.4422 -1.5194 -1.6525
   42MOL   H108 9210   7.210   4.137   0.217 -0.1667  0.1732  1.1023
   42MOL   H109 9211   7.175   3.825   0.424 -1.6696  0.4787 -0.6576
   42MOL   H110 9212   7.250   3.734   0.293 -1.4531  1.7105 -2.3459
   42MOL   H111 9213   7.352   3.840   0.389 -0.5821  1.3889  1.1573
   42MOL   C112 9214   7.412   4.082   0.183  0.0756 -0.4462 -0.1085
   42MOL   C113 9215   7.419   4.179   0.058 -0.1113  0.0969  0.2576
   42MOL   C114 9216   7.396   4.329   0.088 -0.4271  0.7757 -0.6890
   42MOL   O115 9217   7.295   4.368   0.137  0.1019 -0.3231 -0.4308
   42MOL   C116 9218   7.495   4.423   0.033 -0.8174 -0.6377 -0.2099
   42MOL   H117 9219   7.443   3.983   0.149  1.3204  0.2106 -0.9078
   42MOL   H118 9220   7.490   4.124   0.246 -0.2067 -0.5573  0.3147
   42MOL   H119 9221   7.519   4.170   0.015 -0.6027  1.7043 -1.2885
   42MOL   H120 9222   7.473   4.520   0.077 -0.3438 -1.1921  1.2745
   42MOL   H121 9223   7.596   4.393   0.059 -0.2457  0.5726 -0.9895
   42MOL   H122 9224   7.491   4.427   7.782  1.5579  1.4100 -0.2687
   42MOL   C123 9225   7.323   4.127   7.802  0.2200 -0.3424  0.6725
   42MOL   C124 9226   7.383   4.017   7.703  0.2114  0.2866  0.2419
   42MOL   C125 9227   7.480   4.062   7.594 -0.1144 -0.3622  0.1880
   42MOL   O126 9228   7.440   4.071   7.477  0.6218 -0.0937  0.8235
   42MOL   C127 9229   7.626   4.093   7.630  0.6135  0.2907 -0.9747
   42MOL   H128 9230   7.303   4.210   7.734 -0.4632 -0.5875  0.5613
   42MOL   H129 9231   7.225   4.099   7.842 -0.2502  0.4133  0.0630
   42MOL   H130 9232   7.449   3.952   7.761  1.4899  1.7796  0.4722
   42MOL   H131 9233   7.656   4.022   7.707 -1.1202  1.5685  0.9096
   42MOL   H132 9234   7.626   4.193   7.672 -2.6428 -0.2943  0.5737
   42MOL   H133 9235   7.693   4.076   7.546  1.0555  0.3477 -0.6379
   42MOL   C134 9236   7.277   3.921   7.656 -0.0080  0.5218 -0.0260
   42MOL   C135 9237   7.315   3.788   7.591 -0.2068  0.2104  0.6426
   42MOL   C136 9238   7.386   3.690   7.688 -0.1303  0.3636  0.0609
   42MOL   O137 9239   7.510   3.671   7.681  0.5100  0.3374 -0.0009
   42MOL   C138 9240   7.307   3.638   7.809  0.0821  0.4832 -0.1858
   42MOL   H139 9241   7.204   3.968   7.590 -0.7462 -2.4822 -1.4521
   42MOL   H140 9242   7.213   3.895   7.741  0.5899 -1.0100 -0.0133
   42MOL   H141 9243   7.385   3.805   7.508  0.1096  0.8254  1.0325
   42MOL   H142 9244   7.247   3.556   7.771  2.0891 -0.5610 -1.1608
   42MOL   H143 9245   7.249   3.723   7.846  0.2847  2.0233 -3.2799
   42MOL   H144 9246   7.372   3.606   0.033 -0.7891 -1.1081 -0.1119
   42MOL   C145 9247   7.201   3.708   7.517  0.4133 -0.0370  0.4870
   42MOL   C146 9248   7.171   3.780   7.382  0.1583 -0.8330 -0.3765
   42MOL   C147 9249   7.274   3.750   7.274  0.2124  0.5278 -0.3999
   42MOL   O148 9250   7.327   3.638   7.270  0.2059 -0.2261 -0.4942
   42MOL   C149 9251   7.312   3.865   7.180  0.7360 -1.0527  0.6075
   42MOL   H150 9252   7.123   3.717   7.592  0.0706 -3.3944  0.6012
   42MOL   H151 9253   7.230   3.603   7.507  0.0639  0.0216 -1.4783
   42MOL   H152 9254   7.168   3.889   7.385  0.8158 -0.8308  0.3849
   42MOL   H153 9255   7.284   3.840   7.077  0.9120 -0.0975  0.3173
   42MOL   H154 9256   7.264   3.956   7.217 -0.0181 -0.8041 -0.9174
   42MOL   H155 9257   7.417   3.887   7.199  1.3182 -2.3379 -1.0048
   42MOL   C156 9258   7.030   3.737   7.340 -0.3600  0.2732  0.3094
   42MOL   C157 9259   7.006   3.596   7.270 -0.6007 -0.7962  0.2686
   42MOL   C158 9260   6.906   3.614   7.149 -0.0482  0.0140 -0.6675
   42MOL   O159 9261   6.783   3.613   7.178  0.2749  0.3323  0.0018
   42MOL   C160 9262   6.952   3.654   7.009 -0.4279 -0.0059 -0.5623
   42MOL   H161 9263   6.968   3.746   7.429  0.2668 -1.0596  0.8947
   42MOL   H162 9264   6.997   3.813   7.269  1.1647  0.1760 -0.5294
   42MOL   H163 9265   7.099   3.555   7.231  0.0263  0.5281  0.3446
   42MOL   H164 9266   6.872   3.644   6.934  0.1850  2.2161 -1.5575
   42MOL   H165 9267   7.034   3.584   6.998  0.4280  0.4948  2.2107
   42MOL   H166 9268   6.983   3.758   7.002 -1.4254  0.4209  1.0237
   42MOL   C167 9269   6.949   3.496   7.374 -0.0742 -0.0658  0.4671
   42MOL   C168 9270   6.932   3.352   7.308  0.0772  0.6041 -0.0962
   42MOL   C169 9271   6.812   3.287   7.381 -0.1357  1.0269  0.8717
   42MOL   O170 9272   6.824   3.244   7.491 -0.1074  0.4795 -0.6164
   42MOL   C171 9273   6.685   3.258   7.308  0.7576 -0.2237 -0.2091
   42MOL   H172 9274   7.018   3.466   7.453  1.5119  0.0884 -0.8114
   42MOL   H173 9275   6.855   3.529   7.417 -1.4398 -1.6169 -1.2521
   42MOL   H174 9276   6.906   3.363   7.203 -1.0070 -0.8227  0.0166
   42MOL   H175 9277   6.636   3.351   7.278  1.4232 -0.2141 -1.2590
   42MOL   H176 9278   6.611   3.201   7.364 -0.4942  0.3996 -1.2077
   42MOL   H177 9279   6.704   3.213   7.211  1.8703  1.7193 -0.8987
   42MOL   C178 9280   7.064   3.257   7.325  0.9052 -0.1333  0.6170
   42MOL   C179 9281   7.057   3.133   7.235 -0.7646 -0.0585  0.7679
   42MOL   C180 9282   7.142   3.015   7.286  0.0781  0.1631  0.5934
   42MOL   O181 9283   7.080   2.908   7.303 -0.6073 -0.9501 -0.5643
   42MOL   C182 9284   7.294   3.028   7.288  0.2738 -0.1559  0.3146
   42MOL   H183 9285   7.157   3.310   7.308  2.2208 -2.3325  0.8137
   42MOL   H184 9286   7.087   3.216   7.424  0.5274 -0.5376  0.5431
   42MOL   H185 9287   6.954   3.097   7.240 -0.3029 -1.2712  1.7974
   42MOL   H186 9288   7.332   3.066   7.193  1.3748  0.2338  0.8966
   42MOL   H187 9289   7.342   2.935   7.319 -2.5161 -1.2604  1.5120
   42MOL   H188 9290   7.320   3.102   7.364 -0.6841  1.1629 -0.6440
   42MOL   C189 9291   7.089   3.162   7.086 -0.5123  0.7114  0.5845
   42MOL   C190 9292   7.010   3.094   6.972  0.2081  0.3555  0.5251
   42MOL   C191 9293   7.049   2.947   6.962 -0.4599 -0.5275  0.0352
   42MOL   O192 9294   6.993   2.858   7.024 -0.4255 -0.4620 -0.1595
   42MOL   C193 9295   7.168   2.915   6.872 -0.4634  0.7879  1.2344
   42MOL   H194 9296   7.077   3.269   7.070 -1.1123  0.7295  1.1257
   42MOL   H195 9297   7.190   3.126   7.064 -0.3270  0.9530  1.0299
   42MOL   H196 9298   7.039   3.147   6.881 -0.5848  0.1566  0.1534
   42MOL   H197 9299   7.212   3.009   6.840  0.7825 -0.9850 -2.5991
   42MOL   H198 9300   7.253   2.866   6.919 -0.4486  0.0362  0.4289
   42MOL   H199 9301   7.127   2.870   6.781 -3.2101  0.3132  2.6601
   42MOL   C200 9302   6.857   3.124   6.976  0.6636 -0.3056 -0.4214
   42MOL   C201 9303   6.788   3.100   6.843 -0.5840  0.2326  0.5866
   42MOL   C202 9304   6.760   3.235   6.770 -0.2593 -0.0558  0.0766
   42MOL   O203 9305   6.849   3.296   6.712  0.4159 -0.4333  0.5490
   42MOL   C204 9306   6.613   3.278   6.764  0.4510 -0.9860 -0.1141
   42MOL   H205 9307   6.798   3.081   7.057 -0.3464 -1.4689 -1.7581
   42MOL   H206 9308   6.843   3.229   7.004  0.0454 -0.7357  0.9433
   42MOL   H207 9309   6.856   3.053   6.772 -0.4521  0.4277  0.5837
   42MOL   H208 9310   6.596   3.371   6.711 -2.6846  0.3064  2.9315
   42MOL   H209 9311   6.544   3.207   6.718 -0.5587 -0.3027  0.3218
   42MOL   H210 9312   6.595   3.286   6.871 -1.7632 -1.1324 -0.4560
   42MOL   C211 9313   6.660   3.008   6.856 -0.1365  0.1668  0.1290
   42MOL   C212 9314   6.684   2.873   6.916  0.2935  0.0550 -0.2195
   42MOL   C213 9315   6.752   2.769   6.817 -0.1574 -0.4395 -0.2664
   42MOL   O214 9316   6.768   2.794   6.698  0.1574  0.0767 -0.4972
   42MOL   C215 9317   6.800   2.640   6.871 -0.1830 -0.0528 -0.4350
   42MOL   H216 9318   6.574   3.053   6.906  0.4880  1.7305 -0.1875
   42MOL   H217 9319   6.630   2.987   6.753  1.1422  0.7308 -0.3660
   42MOL   H218 9320   6.587   2.825   6.931 -0.2122  0.1027 -2.9978
   42MOL   H219 9321   6.908   2.627   6.874 -0.1446  0.4001  0.0989
   42MOL   H220 9322   6.773   2.629   6.975  0.1342 -2.7785 -0.6084
   42MOL   H221 9323   6.748   2.556   6.825  1.1784 -1.6215  0.8475
   42MOL   H222 9324   6.728   2.872   7.015  0.7311 -4.0333 -0.3341
   43MOL     C1 9325   5.501   6.229   1.673 -0.0183  1.0351 -0.0472
   43MOL     C2 9326   5.571   6.210   1.806 -0.4142 -0.1800 -0.0744
   43MOL     C3 9327   5.638   6.345   1.837 -0.2906  0.0464 -0.2996
   43MOL     O4 9328   5.603   6.405   1.937  0.0821  0.5258 -0.3484
   43MOL     C5 9329   5.739   6.411   1.743 -0.1124  0.8094 -0.4495
   43MOL     H6 9330   5.412   6.290   1.689 -0.6733 -0.5605  2.5564
   43MOL     H7 9331   5.473   6.135   1.626 -0.7234  1.1277  0.1739
   43MOL     H8 9332   5.646   6.134   1.787  0.7721  0.9492 -0.0347
   43MOL     H9 9333   5.694   6.510   1.732 -0.1655  1.3509  3.8216
   43MOL    H10 9334   5.839   6.420   1.784 -0.6305 -0.3679  1.1434
   43MOL    H11 9335   5.742   6.356   1.649 -1.8465 -0.8543  0.4253
   43MOL    H12 9336   5.557   6.288   1.601  0.5150  0.3624 -0.1835
   43MOL    C13 9337   5.477   6.154   1.917  0.0682 -0.3558 -0.3385
   43MOL    C14 9338   5.548   6.109   2.043 -0.4201  0.4568 -0.0326
   43MOL    C15 9339   5.688   6.048   2.027 -0.6178 -0.0231  0.0631
   43MOL    O16 9340   5.704   5.934   1.976  0.4692  0.0519 -0.3516
   43MOL    C17 9341   5.812   6.100   2.107  0.3028  0.3127 -0.7546
   43MOL    H18 9342   5.403   6.230   1.939  0.6686 -0.6974  3.1893
   43MOL    H19 9343   5.426   6.069   1.871  2.3349 -2.5609  1.0684
   43MOL    H20 9344   5.560   6.197   2.106 -1.1304  1.6361 -1.5106
   43MOL    H21 9345   5.834   6.205   2.087 -0.8027  0.3204 -1.9528
   43MOL    H22 9346   5.787   6.106   2.213 -1.2142 -0.8311 -1.0405
   43MOL    H23 9347   5.897   6.035   2.087 -0.3748 -1.1865  1.1404
   43MOL    C24 9348   5.457   6.009   2.128  0.0635 -0.6075 -0.4147
   43MOL    C25 9349   5.507   5.965   2.269  0.5372 -0.2507  0.0482
   43MOL    C26 9350   5.463   6.052   2.384 -0.2946  0.2649 -0.1090
   43MOL    O27 9351   5.353   6.045   2.440 -0.4052  0.4704  0.8737
   43MOL    C28 9352   5.563   6.158   2.427  0.1965  0.3647 -0.0764
   43MOL    H29 9353   5.356   6.043   2.148 -0.2054 -1.5267 -0.1852
   43MOL    H30 9354   5.451   5.917   2.069 -0.2313 -1.9780  1.7210
   43MOL    H31 9355   5.616   5.964   2.278  0.5896  0.2863 -0.5185
   43MOL    H32 9356   5.557   6.153   2.536 -2.1473 -0.8488 -0.2425
   43MOL    H33 9357   5.668   6.150   2.397 -0.3406  0.2181 -1.9947
   43MOL    H34 9358   5.525   6.253   2.390 -0.9646  0.7072  1.9117
   43MOL    C35 9359   5.480   5.815   2.304 -0.0304  0.0092 -0.0101
   43MOL    C36 9360   5.550   5.717   2.214 -1.2151  0.4604  0.4665
   43MOL    C37 9361   5.706   5.707   2.220 -0.8094  0.0057  0.2795
   43MOL    O38 9362   5.766   5.761   2.315  0.4673  0.0650  0.1703
   43MOL    C39 9363   5.789   5.625   2.115 -0.2351 -0.2603 -0.1874
   43MOL    H40 9364   5.373   5.802   2.286  0.0858 -0.5137 -0.3372
   43MOL    H41 9365   5.505   5.798   2.409  0.0783  1.3725  0.1902
   43MOL    H42 9366   5.528   5.742   2.110 -1.2225  0.7671  0.5405
   43MOL    H43 9367   5.719   5.581   2.044 -1.2076 -0.3651  0.8197
   43MOL    H44 9368   5.852   5.554   2.168 -0.0794  0.7867  1.0611
   43MOL    H45 9369   5.862   5.677   2.053  0.0890 -1.7298 -1.0431
   43MOL    C46 9370   5.491   5.574   2.211  0.4767  0.4393 -0.2800
   43MOL    C47 9371   5.471   5.489   2.338 -0.1208  0.3144  1.0092
   43MOL    C48 9372   5.406   5.361   2.299 -0.6796  0.3277  0.5569
   43MOL    O49 9373   5.472   5.259   2.274  0.1922  0.4524 -0.0608
   43MOL    C50 9374   5.260   5.366   2.279  0.4453 -0.1182 -0.5214
   43MOL    H51 9375   5.541   5.529   2.125 -0.1188 -0.8206  0.0200
   43MOL    H52 9376   5.388   5.579   2.176  0.0856 -1.9081  0.4520
   43MOL    H53 9377   5.391   5.536   2.394 -0.1394  1.4986  0.0083
   43MOL    H54 9378   5.215   5.399   2.373  0.1846  0.7926 -0.9570
   43MOL    H55 9379   5.225   5.439   2.206  1.8419 -1.1707 -2.2876
   43MOL    H56 9380   5.210   5.275   2.244  0.3510  0.0443 -0.8066
   43MOL    C57 9381   5.600   5.464   2.415 -1.2588  0.4900 -0.7883
   43MOL    C58 9382   5.582   5.367   2.532  0.0814  0.6132  0.3841
   43MOL    C59 9383   5.717   5.319   2.583  0.1995 -0.5173  0.2659
   43MOL    O60 9384   5.760   5.211   2.545 -0.1342 -0.2468 -0.0707
   43MOL    C61 9385   5.795   5.406   2.673 -0.3150 -0.4522  0.2329
   43MOL    H62 9386   5.637   5.562   2.445 -2.7600  1.2363 -1.2947
   43MOL    H63 9387   5.685   5.426   2.358 -2.4849 -0.9948 -1.6568
   43MOL    H64 9388   5.542   5.274   2.494  1.0047  0.7407 -0.9137
   43MOL    H65 9389   5.900   5.381   2.665  0.1381  0.3639  2.9586
   43MOL    H66 9390   5.777   5.507   2.637 -1.5965 -0.2411  1.4038
   43MOL    H67 9391   5.759   5.408   2.777 -1.4430 -1.2978 -0.1280
   43MOL    C68 9392   5.499   5.431   2.649 -0.5098  0.0283 -0.0782
   43MOL    C69 9393   5.463   5.323   2.760 -0.1463 -0.2030  0.4284
   43MOL    C70 9394   5.351   5.236   2.682 -0.4326  0.1269  0.4588
   43MOL    O71 9395   5.242   5.282   2.645 -0.1652  0.4747 -0.3478
   43MOL    C72 9396   5.384   5.090   2.659 -0.4489 -0.3899  0.0979
   43MOL    H73 9397   5.554   5.506   2.705 -1.2969 -0.5386  1.4722
   43MOL    H74 9398   5.415   5.485   2.605 -1.6812 -0.8186  1.0805
   43MOL    H75 9399   5.553   5.268   2.787  1.5499  1.8600 -0.8435
   43MOL    H76 9400   5.423   5.088   2.558  1.2061 -0.2644  0.7220
   43MOL    H77 9401   5.460   5.051   2.726 -0.8911 -0.5155  0.5288
   43MOL    H78 9402   5.295   5.033   2.687 -1.1070  1.0585  1.0151
   43MOL    C79 9403   5.410   5.381   2.883  0.1430 -0.4881  0.2217
   43MOL    C80 9404   5.357   5.287   2.987 -0.2421  0.5329 -0.4098
   43MOL    C81 9405   5.251   5.367   3.076  0.6073 -0.0860  0.3428
   43MOL    O82 9406   5.272   5.390   3.193  0.5724 -0.2390  0.3453
   43MOL    C83 9407   5.113   5.412   3.022  0.8898 -0.2756  0.1839
   43MOL    H84 9408   5.331   5.451   2.855 -1.4522 -1.4278  2.3028
   43MOL    H85 9409   5.490   5.444   2.923  0.3675 -0.1864 -0.6610
   43MOL    H86 9410   5.292   5.214   2.938 -0.7057 -0.2844  1.3919
   43MOL    H87 9411   5.041   5.336   3.052  1.6774 -1.3280 -0.6172
   43MOL    H88 9412   5.117   5.429   2.915 -0.0460 -3.1656 -0.3336
   43MOL    H89 9413   5.080   5.502   3.076 -0.5998  0.1385 -1.3719
   43MOL    C90 9414   5.471   5.219   3.077 -0.2616 -0.2565 -0.1839
   43MOL    C91 9415   5.423   5.117   3.182 -0.0060 -0.5428  0.2011
   43MOL    C92 9416   5.351   4.996   3.124  0.2409 -0.1896 -0.4194
   43MOL    O93 9417   5.355   4.967   3.006  1.0409  0.3646  0.0113
   43MOL    C94 9418   5.263   4.910   3.224  0.4877 -0.4393  0.4957
   43MOL    H95 9419   5.561   5.180   3.029 -1.6626 -3.4462 -0.3435
   43MOL    H96 9420   5.517   5.300   3.132  0.8079 -0.3422 -0.9355
   43MOL    H97 9421   5.349   5.171   3.242 -2.8075 -1.1979 -2.5375
   43MOL    H98 9422   5.185   4.981   3.250  0.2574 -0.7976  0.7720
   43MOL    H99 9423   5.228   4.818   3.177  0.1457  0.2877 -0.6802
   43MOL   H100 9424   5.331   4.900   3.309  1.7093  1.1098 -0.2524
   43MOL   C101 9425   5.546   5.071   3.268 -0.1849  0.0815 -0.3192
   43MOL   C102 9426   5.531   5.097   3.418 -0.3472  0.4350 -0.6486
   43MOL   C103 9427   5.507   5.251   3.452 -0.4818 -0.3746 -0.3588
   43MOL   O104 9428   5.582   5.337   3.398  0.3034  0.2909  0.2196
   43MOL   C105 9429   5.380   5.287   3.518  0.0849  0.4509 -0.3926
   43MOL   H106 9430   5.553   4.967   3.238 -3.1896 -0.4416  0.6162
   43MOL   H107 9431   5.644   5.106   3.235 -0.1879  0.1045 -0.3031
   43MOL   H108 9432   5.441   5.048   3.456 -0.1833  1.4519  1.1201
   43MOL   H109 9433   5.336   5.196   3.560 -1.0055  0.8109 -0.7576
   43MOL   H110 9434   5.405   5.362   3.592  2.8574 -2.1850  1.4970
   43MOL   H111 9435   5.319   5.340   3.445  0.0839  2.7525  1.2201
   43MOL   C112 9436   5.656   5.029   3.478  0.6803 -0.1681  0.0288
   43MOL   C113 9437   5.650   4.877   3.501  0.1610 -0.5256  0.3994
   43MOL   C114 9438   5.621   4.851   3.650  0.4062 -0.3083  0.4823
   43MOL   O115 9439   5.687   4.898   3.738 -0.3424  0.5589 -0.8268
   43MOL   C116 9440   5.512   4.755   3.675  0.3229 -0.3633  0.2105
   43MOL   H117 9441   5.678   5.086   3.568  0.1631 -1.9578  1.3140
   43MOL   H118 9442   5.744   5.059   3.421  0.8173  0.8782  0.7831
   43MOL   H119 9443   5.566   4.842   3.442  1.5097 -0.2583 -1.7190
   43MOL   H120 9444   5.512   4.660   3.622 -2.2639 -0.7158  0.7605
   43MOL   H121 9445   5.487   4.738   3.780 -1.7456 -2.3435 -0.5834
   43MOL   H122 9446   5.420   4.790   3.629  0.1776 -0.8261  0.1483
   43MOL   C123 9447   5.777   4.811   3.452 -0.6359  0.1826 -0.4829
   43MOL   C124 9448   5.782   4.663   3.432 -0.4915 -0.2574  0.2172
   43MOL   C125 9449   5.810   4.585   3.564 -0.0960  0.4321  0.8737
   43MOL   O126 9450   5.727   4.512   3.610  0.0205  0.2935  0.1582
   43MOL   C127 9451   5.940   4.604   3.634 -0.1943  0.2891  0.1231
   43MOL   H128 9452   5.861   4.852   3.509 -0.1779  2.0627 -2.4405
   43MOL   H129 9453   5.815   4.854   3.359  0.0943  0.9759  0.1702
   43MOL   H130 9454   5.685   4.628   3.400  0.6384 -3.0792 -0.1981
   43MOL   H131 9455   5.928   4.692   3.698 -3.0810 -1.0285  1.4850
   43MOL   H132 9456   6.020   4.622   3.562 -0.4918  0.4381 -0.1717
   43MOL   H133 9457   5.961   4.512   3.689  1.5940  0.2758 -0.5373
   43MOL   C134 9458   5.891   4.623   3.320 -0.2384 -0.5383 -0.4549
   43MOL   C135 9459   5.939   4.478   3.308 -0.6649  0.3872 -0.1074
   43MOL   C136 9460   5.826   4.388   3.255 -0.3616  0.0513  0.1269
   43MOL   O137 9461   5.805   4.386   3.134  0.5118 -0.2664  0.0733
   43MOL   C138 9462   5.776   4.277   3.339  0.1321 -0.2966  0.8523
   43MOL   H139 9463   5.984   4.676   3.337 -0.4776 -0.3726  0.3511
   43MOL   H140 9464   5.853   4.652   3.222 -1.7364 -1.3440 -0.1341
   43MOL   H141 9465   5.963   4.435   3.405  0.1895 -0.2743 -0.6015
   43MOL   H142 9466   5.859   4.241   3.401  1.6515 -0.5528 -1.2935
   43MOL   H143 9467   5.729   4.209   3.269 -1.8164  0.7284  1.1392
   43MOL   H144 9468   5.707   4.321   3.411 -0.2666 -1.4635  1.1918
   43MOL   C145 9469   6.074   4.466   3.228 -0.0700  0.2699  0.4656
   43MOL   C146 9470   6.117   4.321   3.196  0.6264 -0.8669 -0.7384
   43MOL   C147 9471   6.223   4.326   3.082  0.3688 -0.0516 -0.1936
   43MOL   O148 9472   6.344   4.324   3.101  0.2926 -0.4000 -0.1986
   43MOL   C149 9473   6.166   4.328   2.929 -0.5818 -0.1035 -0.3824
   43MOL   H150 9474   6.157   4.523   3.270  0.9489 -0.0218 -1.1149
   43MOL   H151 9475   6.047   4.521   3.138 -1.6221  0.9205  1.3116
   43MOL   H152 9476   6.023   4.272   3.170 -1.2583  1.5612  1.2179
   43MOL   H153 9477   6.099   4.414   2.926  1.1465  1.2545 -0.9182
   43MOL   H154 9478   6.252   4.328   2.862 -0.7664 -0.1299 -0.6199
   43MOL   H155 9479   6.112   4.235   2.911 -1.4889  0.7039 -1.9278
   43MOL   C156 9480   6.174   4.248   3.319  1.0342 -0.7469  0.0748
   43MOL   C157 9481   6.224   4.105   3.310  0.2127  0.1852  0.1187
   43MOL   C158 9482   6.105   4.009   3.295 -0.8831 -0.1274  0.2157
   43MOL   O159 9483   6.022   3.990   3.382  0.1308  0.2543 -0.3176
   43MOL   C160 9484   6.087   3.947   3.158  0.1555  0.0214 -0.0715
   43MOL   H161 9485   6.246   4.317   3.363 -0.1085  0.5233 -0.0042
   43MOL   H162 9486   6.089   4.256   3.387  0.2633  2.3674 -1.1487
   43MOL   H163 9487   6.284   4.082   3.221 -1.1740 -2.3526 -0.2232
   43MOL   H164 9488   6.043   4.024   3.094  0.9853  1.3578  0.9506
   43MOL   H165 9489   6.030   3.854   3.166  0.9822 -0.6848 -2.0264
   43MOL   H166 9490   6.174   3.911   3.102  0.5335  2.6814 -1.2621
   43MOL   C167 9491   6.297   4.062   3.437 -0.1433 -0.7158 -0.0762
   43MOL   C168 9492   6.451   4.102   3.423  0.4177  0.9392 -1.0019
   43MOL   C169 9493   6.515   3.993   3.334  0.2921  0.0068  0.9481
   43MOL   O170 9494   6.479   3.880   3.332 -0.3568  0.5308 -0.4170
   43MOL   C171 9495   6.633   4.024   3.255 -0.6554 -0.9143 -0.2824
   43MOL   H172 9496   6.270   4.106   3.533  1.6713 -1.9520  1.0484
   43MOL   H173 9497   6.284   3.957   3.461 -0.6797 -0.2710  1.6631
   43MOL   H174 9498   6.454   4.198   3.372 -0.8710  0.9316 -1.1172
   43MOL   H175 9499   6.721   4.003   3.316 -0.0171  0.2003 -0.7949
   43MOL   H176 9500   6.634   4.130   3.232 -0.9298 -1.4646 -3.0550
   43MOL   H177 9501   6.641   3.979   3.155 -2.0591 -0.1775 -0.7344
   43MOL   C178 9502   6.519   4.103   3.556  0.8517  0.3027 -0.1362
   43MOL   C179 9503   6.576   4.238   3.596  0.2938 -0.5754  0.3240
   43MOL   C180 9504   6.471   4.336   3.645  0.1677 -0.4184  0.0344
   43MOL   O181 9505   6.410   4.411   3.566 -0.1345  0.3894 -0.0893
   43MOL   C182 9506   6.415   4.337   3.795  0.3703  0.0818  0.9653
   43MOL   H183 9507   6.444   4.082   3.632  1.8607  0.5751  0.9300
   43MOL   H184 9508   6.596   4.030   3.581  0.1769  0.8488  3.7338
   43MOL   H185 9509   6.628   4.197   3.683 -1.8379  2.5664  3.1800
   43MOL   H186 9510   6.492   4.374   3.862  1.5512 -0.6707  0.0509
   43MOL   H187 9511   6.381   4.238   3.826 -0.5808  0.0669 -0.0726
   43MOL   H188 9512   6.338   4.414   3.793  0.5619  0.2591  0.0090
   43MOL   C189 9513   6.687   4.289   3.502  0.4827  0.6634 -0.3956
   43MOL   C190 9514   6.788   4.391   3.561  0.0746  0.7012  0.0771
   43MOL   C191 9515   6.852   4.337   3.692  0.6799 -0.3563 -0.1153
   43MOL   O192 9516   6.932   4.248   3.691 -0.4555  0.2316  0.2770
   43MOL   C193 9517   6.798   4.374   3.832 -0.1756 -0.1028  0.2963
   43MOL   H194 9518   6.741   4.200   3.469 -1.3187 -1.6414  2.5939
   43MOL   H195 9519   6.631   4.336   3.420 -1.2578 -0.2980  0.2099
   43MOL   H196 9520   6.722   4.475   3.581 -2.7621 -0.9480 -1.9977
   43MOL   H197 9521   6.731   4.460   3.829  0.5871  0.4819  0.0027
   43MOL   H198 9522   6.744   4.295   3.884 -0.5074 -0.2477 -0.2618
   43MOL   H199 9523   6.877   4.385   3.906 -0.6918 -3.5695  1.4516
   43MOL   C200 9524   6.884   4.441   3.454 -0.0947  0.0353  0.3525
   43MOL   C201 9525   6.994   4.550   3.501  0.7183  0.0701  0.4364
   43MOL   C202 9526   6.924   4.675   3.574  0.4920 -0.3253  0.4082
   43MOL   O203 9527   6.806   4.686   3.582 -0.2799  0.6133 -0.2178
   43MOL   C204 9528   7.021   4.784   3.643 -0.7936 -0.1923  1.1383
   43MOL   H205 9529   6.931   4.349   3.421 -0.9099 -0.2610  0.0136
   43MOL   H206 9530   6.824   4.473   3.369  0.8562  0.4564 -0.1631
   43MOL   H207 9531   7.045   4.491   3.578  0.3547 -0.7252  0.0700
   43MOL   H208 9532   7.047   4.867   3.577 -2.9365  0.6635  1.3007
   43MOL   H209 9533   6.971   4.827   3.730 -1.2028  1.3995  0.1533
   43MOL   H210 9534   7.109   4.729   3.673 -1.3213 -1.5722  0.1972
   43MOL   C211 9535   7.093   4.587   3.381 -0.4090 -0.3878 -0.8079
   43MOL   C212 9536   7.022   4.673   3.279 -0.2026  0.0733  0.2679
   43MOL   C213 9537   7.037   4.624   3.132  0.0610 -0.4354 -0.3861
   43MOL   O214 9538   7.097   4.522   3.101 -0.1987  0.3663  0.0810
   43MOL   C215 9539   6.968   4.707   3.026  0.4642  0.8435 -0.1976
   43MOL   H216 9540   7.177   4.648   3.413 -1.7432  1.0307  0.1219
   43MOL   H217 9541   7.135   4.496   3.340 -1.2318 -1.6881  1.1603
   43MOL   H218 9542   7.031   4.781   3.294  0.7740  0.3548 -2.0654
   43MOL   H219 9543   7.041   4.726   2.948  0.0882 -1.5614 -1.1688
   43MOL   H220 9544   6.881   4.666   2.975  0.5164  0.4534  0.0296
   43MOL   H221 9545   6.954   4.805   3.072  0.9285  0.3341  1.0399
   43MOL   H222 9546   6.914   4.662   3.286 -0.0560 -2.1241 -0.5106
   44MOL     C1 9547   6.443   0.700   5.422  0.3086  0.1983 -0.7395
   44MOL     C2 9548   6.374   0.821   5.355 -0.1291  0.2249  0.1239
   44MOL     C3 9549   6.390   0.814   5.203 -0.3078 -0.7010 -0.0783
   44MOL     O4 9550   6.295   0.812   5.130  0.0254 -0.1924  0.3358
   44MOL     C5 9551   6.535   0.822   5.149  0.5463 -0.5608  0.0406
   44MOL     H6 9552   6.543   0.700   5.380  0.3336  0.7176 -0.6838
   44MOL     H7 9553   6.395   0.605   5.401 -0.3762  0.2040  0.7038
   44MOL     H8 9554   6.427   0.916   5.360 -1.1232  0.8744 -1.3440
   44MOL     H9 9555   6.576   0.916   5.186 -0.2084 -0.1287 -0.2226
   44MOL    H10 9556   6.591   0.734   5.181  0.3601 -1.1388 -1.1921
   44MOL    H11 9557   6.544   0.826   5.041 -1.7010 -1.1591 -0.1974
   44MOL    H12 9558   6.444   0.723   5.529 -1.2626 -1.8750 -0.2491
   44MOL    C13 9559   6.228   0.828   5.405 -0.1016 -0.0936  0.1258
   44MOL    C14 9560   6.121   0.927   5.350  0.5470 -0.3873 -0.1671
   44MOL    C15 9561   6.176   1.074   5.373 -0.5149 -0.1425  0.5631
   44MOL    O16 9562   6.142   1.147   5.468 -0.0669 -0.1923 -0.2921
   44MOL    C17 9563   6.268   1.135   5.264  0.1483 -1.0620  0.0570
   44MOL    H18 9564   6.190   0.726   5.396  1.2914 -0.6775  0.5624
   44MOL    H19 9565   6.233   0.857   5.510 -0.6152  1.8447 -0.3686
   44MOL    H20 9566   6.112   0.911   5.243  0.3356 -0.9225 -0.0700
   44MOL    H21 9567   6.240   1.101   5.164 -1.4335 -2.5059  0.9610
   44MOL    H22 9568   6.264   1.243   5.270  3.9128 -0.5265 -3.9233
   44MOL    H23 9569   6.370   1.105   5.288  0.4506 -1.5657 -1.7228
   44MOL    C24 9570   5.978   0.908   5.419 -0.4435  0.8125  0.5075
   44MOL    C25 9571   5.863   0.952   5.324  0.4994  0.3722 -0.9120
   44MOL    C26 9572   5.871   0.891   5.189 -0.1828  0.2517  0.3084
   44MOL    O27 9573   5.849   0.953   5.086 -0.1961  0.4718 -0.1969
   44MOL    C28 9574   5.889   0.740   5.182 -0.2171 -0.0297 -0.5092
   44MOL    H29 9575   5.959   0.802   5.439 -3.5276  0.8748 -1.8071
   44MOL    H30 9576   5.969   0.954   5.518  2.9062 -1.0002  1.7707
   44MOL    H31 9577   5.872   1.059   5.303 -3.6088  0.8398 -0.6829
   44MOL    H32 9578   5.965   0.693   5.245 -0.0035 -0.7956 -1.3284
   44MOL    H33 9579   5.794   0.688   5.196 -0.3335 -0.0432 -1.3402
   44MOL    H34 9580   5.919   0.719   5.080 -0.6646 -0.9431 -0.4593
   44MOL    C35 9581   5.728   0.933   5.406  0.4207 -0.6530  0.4293
   44MOL    C36 9582   5.610   0.993   5.335 -0.2978  0.3272  0.0934
   44MOL    C37 9583   5.535   0.901   5.242 -0.2881 -0.5011  0.4374
   44MOL    O38 9584   5.540   0.776   5.233 -0.4324  0.1834 -0.1765
   44MOL    C39 9585   5.454   0.980   5.140  0.5216 -0.1880  0.4894
   44MOL    H40 9586   5.735   0.970   5.508 -0.0382 -1.1039  0.6240
   44MOL    H41 9587   5.712   0.826   5.415  1.7279 -0.7765  1.4553
   44MOL    H42 9588   5.649   1.066   5.264  2.1654 -1.0108  0.0402
   44MOL    H43 9589   5.361   1.009   5.189 -0.2181  0.6852 -1.4038
   44MOL    H44 9590   5.428   0.916   5.055  1.2312  0.0793  0.0597
   44MOL    H45 9591   5.511   1.066   5.105 -0.3792  0.2846  0.1837
   44MOL    C46 9592   5.512   1.069   5.421 -0.3505  0.6725 -0.1607
   44MOL    C47 9593   5.561   1.197   5.502  0.3680 -0.7832  0.3067
   44MOL    C48 9594   5.661   1.290   5.435 -0.3650  0.3502 -0.2230
   44MOL    O49 9595   5.628   1.374   5.346 -0.1762  0.0238  1.0352
   44MOL    C50 9596   5.807   1.283   5.481 -0.4172 -0.4581  0.5099
   44MOL    H51 9597   5.480   1.006   5.504 -0.0265 -1.6448 -1.7355
   44MOL    H52 9598   5.419   1.091   5.369 -0.5194 -0.0210 -0.1603
   44MOL    H53 9599   5.610   1.152   5.589 -1.4645 -0.4018  1.5828
   44MOL    H54 9600   5.827   1.340   5.572 -0.3605 -0.5870  0.5766
   44MOL    H55 9601   5.823   1.176   5.491 -0.0540 -0.8629 -3.5012
   44MOL    H56 9602   5.873   1.302   5.397  0.3736 -0.9104  1.0333
   44MOL    C57 9603   5.438   1.265   5.558  0.2255 -0.1437 -0.6053
   44MOL    C58 9604   5.468   1.383   5.655  0.1451  0.0155  0.6152
   44MOL    C59 9605   5.336   1.428   5.698 -0.1210 -0.6931 -0.3045
   44MOL    O60 9606   5.298   1.395   5.813  0.1044  0.0678  0.3992
   44MOL    C61 9607   5.247   1.506   5.614  0.4424 -0.1121  0.0164
   44MOL    H62 9608   5.383   1.191   5.617  2.0493 -0.7780  0.3496
   44MOL    H63 9609   5.357   1.284   5.488 -2.2348  2.6773  2.8568
   44MOL    H64 9610   5.518   1.464   5.601 -0.3284 -0.0020  0.1482
   44MOL    H65 9611   5.159   1.545   5.665 -0.4876 -1.1594 -0.7414
   44MOL    H66 9612   5.309   1.590   5.583 -0.4296  0.6239  0.2328
   44MOL    H67 9613   5.204   1.465   5.522 -2.7644  0.4939  1.1607
   44MOL    C68 9614   5.562   1.345   5.772 -0.2189 -0.3207  0.1267
   44MOL    C69 9615   5.591   1.450   5.876  0.3988 -0.6811 -0.2469
   44MOL    C70 9616   5.660   1.575   5.803  0.1837  0.7562 -0.0193
   44MOL    O71 9617   5.757   1.563   5.722 -0.0334  0.2574 -0.4474
   44MOL    C72 9618   5.609   1.712   5.827  0.0308  0.7849  0.3095
   44MOL    H73 9619   5.514   1.264   5.826 -1.3858  1.2796  1.5401
   44MOL    H74 9620   5.656   1.296   5.747 -0.3200 -0.2692 -0.3651
   44MOL    H75 9621   5.502   1.500   5.915  0.2382 -0.8679 -0.3747
   44MOL    H76 9622   5.530   1.700   5.900 -0.8595  1.8059 -0.4665
   44MOL    H77 9623   5.690   1.764   5.879  1.5835 -1.1773 -0.0477
   44MOL    H78 9624   5.597   1.765   5.732  2.1233  3.3062  1.3840
   44MOL    C79 9625   5.676   1.392   5.993  0.1619  0.0555 -1.0600
   44MOL    C80 9626   5.608   1.368   6.130  0.1696 -0.1924 -0.9856
   44MOL    C81 9627   5.502   1.256   6.120 -0.2726  0.4964  0.5237
   44MOL    O82 9628   5.386   1.283   6.086  1.2098 -0.1096  0.7178
   44MOL    C83 9629   5.554   1.116   6.140  0.3573  1.3389  0.2466
   44MOL    H84 9630   5.753   1.464   6.017  1.5757 -1.2000 -1.7476
   44MOL    H85 9631   5.735   1.305   5.963 -0.3959 -0.6461 -0.1393
   44MOL    H86 9632   5.688   1.345   6.201 -0.9663  2.7662  1.3492
   44MOL    H87 9633   5.534   1.056   6.051 -0.8061  1.4418  0.4346
   44MOL    H88 9634   5.513   1.059   6.224 -0.9887  0.5963 -0.9081
   44MOL    H89 9635   5.662   1.120   6.153  0.3316  1.8004  0.3289
   44MOL    C90 9636   5.541   1.498   6.182  0.8014  0.2445  0.1789
   44MOL    C91 9637   5.480   1.481   6.324  0.1882  0.0602  0.5656
   44MOL    C92 9638   5.588   1.524   6.435 -0.2312  0.0351  0.4272
   44MOL    O93 9639   5.625   1.638   6.450 -0.1205 -0.0664 -0.1874
   44MOL    C94 9640   5.646   1.404   6.504  0.3695 -0.2378  0.2725
   44MOL    H95 9641   5.616   1.577   6.177  1.0956 -0.0142  0.5602
   44MOL    H96 9642   5.457   1.519   6.115  1.6744 -1.4328 -1.4859
   44MOL    H97 9643   5.474   1.373   6.339 -0.3647  0.0908  0.5853
   44MOL    H98 9644   5.718   1.437   6.579 -0.1435  3.2476 -0.7076
   44MOL    H99 9645   5.564   1.357   6.559 -0.3770 -0.5880 -1.1217
   44MOL   H100 9646   5.679   1.328   6.433 -0.4362 -0.6843  0.3581
   44MOL   C101 9647   5.348   1.546   6.355  0.3132  0.4680 -0.2095
   44MOL   C102 9648   5.224   1.475   6.291 -0.1436 -0.1198 -0.7465
   44MOL   C103 9649   5.126   1.584   6.259 -0.1314 -0.0195  0.6984
   44MOL   O104 9650   5.042   1.614   6.341 -0.2063 -0.1222  0.0378
   44MOL   C105 9651   5.139   1.643   6.122  0.2230 -0.3366  0.3313
   44MOL   H106 9652   5.336   1.565   6.462  1.8111  0.1907  0.0136
   44MOL   H107 9653   5.366   1.646   6.314  0.6287  0.3446 -0.3667
   44MOL   H108 9654   5.249   1.430   6.195  1.6354 -0.4019 -0.1689
   44MOL   H109 9655   5.243   1.635   6.089  1.0688  0.8680  2.6030
   44MOL   H110 9656   5.075   1.596   6.047  0.1122 -1.8970  1.3867
   44MOL   H111 9657   5.112   1.748   6.115  3.4200  0.5483  0.1167
   44MOL   C112 9658   5.180   1.354   6.384  0.0719  0.8795 -0.2351
   44MOL   C113 9659   5.062   1.256   6.339 -0.7509  0.2414 -0.6114
   44MOL   C114 9660   5.004   1.196   6.469 -0.3177 -0.1115  0.4386
   44MOL   O115 9661   5.035   1.087   6.504  0.4096  0.1161 -0.6397
   44MOL   C116 9662   4.880   1.264   6.524 -0.2555  0.3387 -0.4113
   44MOL   H117 9663   5.170   1.384   6.488 -0.1909 -2.4700  0.7505
   44MOL   H118 9664   5.272   1.295   6.386  0.2606  1.2044  0.6366
   44MOL   H119 9665   4.990   1.327   6.297 -2.1075  0.0265  1.3181
   44MOL   H120 9666   4.796   1.227   6.466 -1.9370  0.9590  1.5628
   44MOL   H121 9667   4.864   1.251   6.631  0.3278 -1.5428 -0.5330
   44MOL   H122 9668   4.888   1.370   6.499  2.7630 -0.1067 -1.5382
   44MOL   C123 9669   5.097   1.145   6.233  0.1686 -0.0705 -0.6279
   44MOL   C124 9670   4.987   1.083   6.139  0.1239  0.0304  0.1803
   44MOL   C125 9671   4.925   1.183   6.036 -0.6058  0.3893 -0.0062
   44MOL   O126 9672   4.861   1.281   6.071 -0.5263 -0.1739 -0.2371
   44MOL   C127 9673   4.936   1.159   5.886 -0.0930  0.2848  0.0066
   44MOL   H128 9674   5.155   1.073   6.291 -0.4202  0.2348  0.3500
   44MOL   H129 9675   5.178   1.189   6.175  0.7759 -1.0005 -0.4991
   44MOL   H130 9676   5.039   1.007   6.082 -2.3972 -1.6717  0.0423
   44MOL   H131 9677   4.997   1.072   5.862 -2.6607 -1.0847 -1.7236
   44MOL   H132 9678   4.999   1.239   5.847  0.8864 -0.8883 -0.8868
   44MOL   H133 9679   4.843   1.148   5.831 -1.2172 -0.0284  1.9296
   44MOL   C134 9680   4.884   1.005   6.224 -0.1484 -1.5962  0.4852
   44MOL   C135 9681   4.777   0.920   6.142  0.0954 -0.4975 -0.0765
   44MOL   C136 9682   4.838   0.791   6.079 -0.2274 -0.2838 -0.0815
   44MOL   O137 9683   4.916   0.722   6.140  0.7332  0.3428  0.0872
   44MOL   C138 9684   4.807   0.760   5.934 -0.4749  0.2091 -0.2141
   44MOL   H139 9685   4.843   1.090   6.278 -0.9182 -0.5625 -1.6780
   44MOL   H140 9686   4.932   0.940   6.297  0.3244  1.8421  3.3504
   44MOL   H141 9687   4.745   0.978   6.055  0.8143 -2.2291 -1.5563
   44MOL   H142 9688   4.705   0.789   5.910 -0.9209  0.0198  1.3979
   44MOL   H143 9689   4.816   0.654   5.912  1.2066  0.4342 -0.7311
   44MOL   H144 9690   4.885   0.803   5.871 -0.6720 -0.0322 -0.6206
   44MOL   C145 9691   4.652   0.894   6.226 -0.0084  0.1502 -0.7854
   44MOL   C146 9692   4.662   0.809   6.359 -0.8842 -0.1015 -0.4336
   44MOL   C147 9693   4.728   0.882   6.474 -0.6194 -0.2993 -0.5363
   44MOL   O148 9694   4.721   1.001   6.490 -0.1975  0.0893  0.2892
   44MOL   C149 9695   4.825   0.805   6.563 -0.0388  0.2618  0.1386
   44MOL   H150 9696   4.578   0.852   6.158 -2.0630 -0.0045  1.4865
   44MOL   H151 9697   4.620   0.996   6.249  2.3894  0.4605  1.4372
   44MOL   H152 9698   4.717   0.717   6.336 -0.9136 -0.0864 -0.5628
   44MOL   H153 9699   4.894   0.746   6.503 -1.1051 -0.6745 -0.1823
   44MOL   H154 9700   4.879   0.872   6.630 -0.9369  2.1024 -0.9618
   44MOL   H155 9701   4.758   0.740   6.618  1.4905 -1.3696  0.1292
   44MOL   C156 9702   4.520   0.757   6.398  0.7210  0.3869  0.1671
   44MOL   C157 9703   4.516   0.624   6.471 -0.8118  0.0438 -0.5956
   44MOL   C158 9704   4.555   0.515   6.373  0.5270  1.0505 -0.7886
   44MOL   O159 9705   4.478   0.478   6.284  0.3586  0.0874 -0.5210
   44MOL   C160 9706   4.689   0.455   6.385 -0.0782 -0.2902 -0.4806
   44MOL   H161 9707   4.485   0.837   6.463  1.9089  1.4110 -0.4238
   44MOL   H162 9708   4.453   0.746   6.312 -0.5277  0.9022  1.0679
   44MOL   H163 9709   4.590   0.627   6.551 -1.0639 -2.8483 -0.1955
   44MOL   H164 9710   4.734   0.420   6.292 -0.2356 -0.2493 -0.5722
   44MOL   H165 9711   4.692   0.380   6.463 -0.1181 -0.2717 -0.4612
   44MOL   H166 9712   4.752   0.537   6.421 -2.9963  1.3196  1.1886
   44MOL   C167 9713   4.383   0.609   6.545  0.2940 -0.3470  0.0160
   44MOL   C168 9714   4.355   0.490   6.635  0.2604 -0.3298  0.4396
   44MOL   C169 9715   4.475   0.472   6.727  0.2959  0.3845  0.5956
   44MOL   O170 9716   4.570   0.404   6.691  0.1280  0.7801  0.1919
   44MOL   C171 9717   4.469   0.543   6.864  0.1936  0.3290 -0.2578
   44MOL   H172 9718   4.361   0.694   6.609  1.8846 -1.6458  2.3683
   44MOL   H173 9719   4.306   0.618   6.468 -0.6819 -0.0695  1.0222
   44MOL   H174 9720   4.265   0.523   6.688 -0.1820 -0.7472 -0.0362
   44MOL   H175 9721   4.553   0.519   6.929 -1.0599  0.0705  1.3062
   44MOL   H176 9722   4.379   0.522   6.922 -1.5812  0.0500 -3.0477
   44MOL   H177 9723   4.466   0.651   6.852  0.0018  0.3277 -0.2145
   44MOL   C178 9724   4.298   0.366   6.560  0.0854 -0.6097 -0.8925
   44MOL   C179 9725   4.223   0.256   6.645 -0.3545  0.7252  0.1152
   44MOL   C180 9726   4.287   0.189   6.768  0.2106  0.7693 -0.2765
   44MOL   O181 9727   4.362   0.089   6.754  0.3270 -0.6240  0.0330
   44MOL   C182 9728   4.239   0.230   6.904  0.1988 -0.1675  0.0839
   44MOL   H183 9729   4.233   0.412   6.485 -0.5026 -0.9996 -0.6327
   44MOL   H184 9730   4.384   0.322   6.510  0.7453 -0.7493  0.3378
   44MOL   H185 9731   4.144   0.314   6.692  0.0981  2.0333 -0.7240
   44MOL   H186 9732   4.131   0.231   6.914  0.4081 -0.7191  3.0425
   44MOL   H187 9733   4.283   0.329   6.916  1.0436 -0.5797  0.4543
   44MOL   H188 9734   4.255   0.168   6.993  1.0948 -0.4602 -0.2764
   44MOL   C189 9735   4.149   0.147   6.554  0.3139  0.2313 -0.1099
   44MOL   C190 9736   4.067   0.033   6.619 -0.5754  1.1961  0.0194
   44MOL   C191 9737   3.962   0.061   6.720  0.3780  0.6427 -0.2686
   44MOL   O192 9738   3.923   0.177   6.725  0.4791 -0.3220 -0.3232
   44MOL   C193 9739   3.917   7.808   6.820 -0.0987  0.2299 -0.0417
   44MOL   H194 9740   4.088   0.185   6.473 -1.4750  1.8069  1.9195
   44MOL   H195 9741   4.225   0.087   6.505  1.9802  3.1722 -1.2215
   44MOL   H196 9742   4.142   7.830   6.670 -0.6490  0.6661 -0.4961
   44MOL   H197 9743   3.877   7.720   6.771  0.0483 -0.1315  0.4738
   44MOL   H198 9744   4.004   7.781   6.880  0.6221  1.8045 -0.3560
   44MOL   H199 9745   3.839   7.839   6.890 -0.3498  0.1105 -0.2701
   44MOL   C200 9746   4.028   7.784   6.507 -0.4332  0.0281 -0.3695
   44MOL   C201 9747   3.923   7.824   6.397 -0.4148 -0.8745 -0.1025
   44MOL   C202 9748   3.777   7.803   6.446  0.6079  0.2172  0.4120
   44MOL   O203 9749   3.752   7.756   6.557 -0.3578 -0.1640 -0.9194
   44MOL   C204 9750   3.668   7.831   6.339  0.1346  0.1278 -0.6049
   44MOL   H205 9751   4.126   7.763   6.463 -0.6075 -0.2165 -0.6393
   44MOL   H206 9752   4.009   7.681   6.538  1.1403 -0.2028 -0.0859
   44MOL   H207 9753   3.929   0.074   6.384 -3.4427 -0.6961 -0.1935
   44MOL   H208 9754   3.707   0.052   6.275  1.3578  0.4847  0.5735
   44MOL   H209 9755   3.667   7.743   6.274  0.8874  0.0374 -0.4935
   44MOL   H210 9756   3.570   7.854   6.383  0.5704 -1.0957  1.0724
   44MOL   C211 9757   3.957   7.749   6.262  1.0028 -0.3007  0.3171
   44MOL   C212 9758   3.948   7.597   6.275 -0.8192  0.0031  0.6594
   44MOL   C213 9759   3.914   7.516   6.149 -0.1799 -0.7323 -0.8065
   44MOL   O214 9760   3.917   7.573   6.040 -0.6816  0.5926 -0.0926
   44MOL   C215 9761   3.858   7.374   6.162  0.2460  0.4699  0.5582
   44MOL   H216 9762   3.880   7.787   6.194  1.7122  0.5327 -0.0290
   44MOL   H217 9763   4.054   7.784   6.226  0.7857  0.8453  0.8424
   44MOL   H218 9764   3.889   7.566   6.361 -1.6592  1.2096  0.5343
   44MOL   H219 9765   3.842   7.330   6.063 -1.3637 -1.6124  1.6952
   44MOL   H220 9766   3.911   7.318   6.239  1.4791  1.3223  0.3469
   44MOL   H221 9767   3.755   7.372   6.198  0.3214  0.9368  0.7943
   44MOL   H222 9768   4.049   7.572   6.307  0.2939  0.3350 -2.4894
   45MOL     C1 9769   7.230   1.898   2.482  0.2112  0.2001  0.4386
   45MOL     C2 9770   7.331   1.913   2.364 -0.3428  0.8346 -0.1478
   45MOL     C3 9771   7.304   2.041   2.292 -0.0722 -0.2705 -0.2596
   45MOL     O4 9772   7.299   2.045   2.171 -0.1231 -0.9791 -0.1310
   45MOL     C5 9773   7.294   2.167   2.372 -0.1069 -0.3018 -0.1053
   45MOL     H6 9774   7.128   1.902   2.443  0.1948 -2.0841  0.1860
   45MOL     H7 9775   7.238   1.972   2.562 -0.2120  0.7428 -0.0135
   45MOL     H8 9776   7.323   1.826   2.299 -2.3408  1.8710 -1.3500
   45MOL     H9 9777   7.190   2.199   2.372  0.5665  2.0248  0.6111
   45MOL    H10 9778   7.333   2.149   2.472  0.9285 -1.4663 -0.7013
   45MOL    H11 9779   7.351   2.251   2.333  0.1954 -0.8981 -0.9708
   45MOL    H12 9780   7.245   1.799   2.525 -1.0686 -0.5877 -0.8655
   45MOL    C13 9781   7.481   1.913   2.408  0.0755  0.7109  0.1263
   45MOL    C14 9782   7.585   1.908   2.291  0.3749  0.2294 -0.0108
   45MOL    C15 9783   7.595   1.775   2.216  0.2951  0.5529  0.1016
   45MOL    O16 9784   7.605   1.771   2.095  0.6620  0.2448  0.4352
   45MOL    C17 9785   7.607   1.650   2.303  0.0526 -0.9923 -0.1868
   45MOL    H18 9786   7.496   1.994   2.479  0.6164  0.0966  0.7212
   45MOL    H19 9787   7.493   1.827   2.475 -1.0728 -0.2509 -0.8863
   45MOL    H20 9788   7.543   1.984   2.225  0.7157  0.8792  0.5229
   45MOL    H21 9789   7.640   1.667   2.406 -0.7318 -0.3273 -0.0433
   45MOL    H22 9790   7.505   1.612   2.304 -0.6721  0.8952 -0.0160
   45MOL    H23 9791   7.661   1.567   2.258  2.4551  0.2364  0.3475
   45MOL    C24 9792   7.729   1.944   2.337  0.3614  0.1940  0.3164
   45MOL    C25 9793   7.774   2.093   2.338 -0.4220  0.1769 -0.0107
   45MOL    C26 9794   7.761   2.161   2.199 -0.0820  0.4259  0.1990
   45MOL    O27 9795   7.663   2.229   2.171  0.0417  0.1932 -0.1194
   45MOL    C28 9796   0.009   2.130   2.099  0.0195 -0.2240  0.1532
   45MOL    H29 9797   7.745   1.912   2.440 -2.2391  1.5752  1.2065
   45MOL    H30 9798   7.805   1.895   2.277  1.1287  1.2951  0.3910
   45MOL    H31 9799   0.023   2.096   2.362  0.1483 -0.9511 -2.2046
   45MOL    H32 9800   0.041   2.026   2.112  1.7059  0.1143 -1.0341
   45MOL    H33 9801   7.829   2.150   1.998  0.1705  1.0079  0.3327
   45MOL    H34 9802   0.095   2.193   2.119  0.7066 -0.3848 -2.1073
   45MOL    C35 9803   7.706   2.170   2.456 -0.9713 -1.1236  0.2377
   45MOL    C36 9804   7.765   2.307   2.490  0.1836 -0.4357  0.8258
   45MOL    C37 9805   7.657   2.424   2.486 -0.1278 -0.2422  0.2745
   45MOL    O38 9806   7.548   2.415   2.540  0.8846 -0.5961 -0.0712
   45MOL    C39 9807   7.690   2.556   2.413 -1.0847 -0.3804 -0.4800
   45MOL    H40 9808   7.699   2.106   2.543  0.9452  0.0791  1.3026
   45MOL    H41 9809   7.605   2.185   2.418 -0.5414 -1.1593 -0.9673
   45MOL    H42 9810   7.825   2.346   2.409 -0.1873 -2.1591 -0.3072
   45MOL    H43 9811   7.789   2.590   2.443 -0.1827 -1.2807 -2.3340
   45MOL    H44 9812   7.618   2.632   2.442 -0.1695  0.8934 -1.4446
   45MOL    H45 9813   7.696   2.561   2.304 -1.6953  1.2132 -0.4514
   45MOL    C46 9814   7.857   2.322   2.606 -0.7153 -0.6335 -0.8885
   45MOL    C47 9815   0.149   2.323   2.564 -0.2861 -0.4801 -0.3545
   45MOL    C48 9816   0.196   2.445   2.493  0.1294 -0.7115  0.6215
   45MOL    O49 9817   0.195   2.559   2.542 -0.0810 -0.0378  0.5217
   45MOL    C50 9818   0.232   2.433   2.349  0.3566  0.1798 -0.5880
   45MOL    H51 9819   7.833   2.248   2.682  2.1193  0.1954  0.8644
   45MOL    H52 9820   7.828   2.415   2.654 -0.6377 -0.4749 -1.1448
   45MOL    H53 9821   0.155   2.239   2.496 -0.5502  0.3779 -1.4434
   45MOL    H54 9822   0.292   2.511   2.302  0.6093 -0.1272 -0.7761
   45MOL    H55 9823   0.287   2.342   2.328  0.9349  0.2174  0.6953
   45MOL    H56 9824   0.143   2.411   2.290  0.1641  1.5713 -0.8425
   45MOL    C57 9825   0.249   2.292   2.679  0.1272  0.2247  0.8887
   45MOL    C58 9826   0.387   2.245   2.634  0.3889  0.4730  0.1591
   45MOL    C59 9827   0.476   2.239   2.755  0.4499 -0.3427  0.0763
   45MOL    O60 9828   0.446   2.176   2.858 -0.3911 -0.2031 -0.2133
   45MOL    C61 9829   0.607   2.323   2.756 -0.3854 -0.4201 -0.4111
   45MOL    H62 9830   0.203   2.207   2.731  0.6777 -2.2495 -2.5003
   45MOL    H63 9831   0.254   2.380   2.743 -1.6932  0.2889  0.9554
   45MOL    H64 9832   0.429   2.320   2.567  0.6624  0.1613 -0.0179
   45MOL    H65 9833   0.649   2.336   2.656  1.3590  0.6381  0.4479
   45MOL    H66 9834   0.588   2.426   2.786 -1.2074 -0.4145 -0.9369
   45MOL    H67 9835   0.680   2.290   2.829  1.5823  3.5885 -0.4270
   45MOL    C68 9836   0.388   2.105   2.562  0.3975 -0.0653 -0.4666
   45MOL    C69 9837   0.519   2.066   2.499  0.2503  0.6065 -0.7024
   45MOL    C70 9838   0.591   2.166   2.404  0.2428 -0.3632 -0.4067
   45MOL    O71 9839   0.532   2.256   2.345  0.0504 -0.7202  0.2608
   45MOL    C72 9840   0.736   2.137   2.386  0.5817 -0.5775 -0.1866
   45MOL    H73 9841   0.367   2.029   2.638 -2.5654  1.6985  0.5455
   45MOL    H74 9842   0.310   2.085   2.489  1.0858 -0.3143 -1.1412
   45MOL    H75 9843   0.590   2.056   2.581  0.3704 -1.5331 -1.0468
   45MOL    H76 9844   0.776   2.036   2.400  2.1881  0.0896  0.0983
   45MOL    H77 9845   0.766   2.168   2.286  1.8373 -0.6872  0.1593
   45MOL    H78 9846   0.785   2.190   2.467  0.3647  1.5673 -1.4084
   45MOL    C79 9847   0.510   1.922   2.432  0.6152  0.1091  0.2201
   45MOL    C80 9848   0.486   1.916   2.280 -0.4136  0.8755 -0.1316
   45MOL    C81 9849   0.356   1.991   2.227  0.4505 -0.1282 -0.3972
   45MOL    O82 9850   0.244   1.969   2.281  0.0364  0.1913  0.2722
   45MOL    C83 9851   0.367   2.100   2.129 -0.5255 -0.6834  0.5941
   45MOL    H84 9852   0.421   1.875   2.474 -0.0099  0.5583 -0.5830
   45MOL    H85 9853   0.605   1.879   2.464  0.7845  1.3822  1.4540
   45MOL    H86 9854   0.570   1.960   2.226 -1.9218  2.2987 -1.3686
   45MOL    H87 9855   0.462   2.111   2.076 -1.0343 -0.3874 -0.2723
   45MOL    H88 9856   0.339   2.194   2.175  2.0018  0.4717 -0.1360
   45MOL    H89 9857   0.293   2.080   2.051  1.7237 -2.8019 -1.0915
   45MOL    C90 9858   0.480   1.767   2.235  0.3649 -0.1194  0.1159
   45MOL    C91 9859   0.519   1.741   2.085  0.5052  0.1082 -0.5194
   45MOL    C92 9860   0.601   1.609   2.072  0.1233  0.3933 -0.3017
   45MOL    O93 9861   0.544   1.515   2.025  0.2397  0.3972  0.5286
   45MOL    C94 9862   0.749   1.606   2.117 -0.9565  0.4591 -0.8621
   45MOL    H95 9863   0.536   1.701   2.303  1.1104  0.8014  0.4088
   45MOL    H96 9864   0.381   1.727   2.258  0.4424 -0.7614 -0.6368
   45MOL    H97 9865   0.590   1.816   2.050  1.5370 -1.0317 -0.8999
   45MOL    H98 9866   0.806   1.515   2.102  0.6684  0.8905  2.2040
   45MOL    H99 9867   0.809   1.680   2.064 -2.9402  2.4928 -0.3282
   45MOL   H100 9868   0.746   1.632   2.223 -3.0237  0.0594 -0.8194
   45MOL   C101 9869   0.407   1.753   1.985  0.2413 -0.6937  0.5232
   45MOL   C102 9870   0.450   1.749   1.833 -0.6652  0.0354  0.1876
   45MOL   C103 9871   0.535   1.873   1.789 -0.3496  0.0080 -0.0083
   45MOL   O104 9872   0.484   1.983   1.809 -0.2006 -0.3974  0.0245
   45MOL   C105 9873   0.653   1.858   1.697 -0.0143 -0.5256  0.2139
   45MOL   H106 9874   0.327   1.681   2.000  0.6972 -1.4768 -0.7437
   45MOL   H107 9875   0.359   1.850   2.004  2.2736  0.3737  0.3298
   45MOL   H108 9876   0.530   1.680   1.807  1.2155  1.2998  2.3977
   45MOL   H109 9877   0.637   1.770   1.636 -0.7928  0.1385 -0.5485
   45MOL   H110 9878   0.657   1.950   1.638 -1.1681 -0.0361  0.8799
   45MOL   H111 9879   0.742   1.849   1.759 -0.8728  1.4429  1.7981
   45MOL   C112 9880   0.328   1.714   1.744 -0.1532  0.2289  0.1520
   45MOL   C113 9881   0.277   1.567   1.765 -0.2722  0.9109 -0.5671
   45MOL   C114 9882   0.369   1.458   1.704  0.3242  0.6353 -0.4493
   45MOL   O115 9883   0.426   1.474   1.599  0.0980  0.6367  0.0490
   45MOL   C116 9884   0.392   1.324   1.778 -0.2734 -0.0691 -0.3161
   45MOL   H117 9885   0.355   1.731   1.639  1.2766 -1.1428  0.2861
   45MOL   H118 9886   0.260   1.791   1.780 -0.7191  0.9101 -2.2759
   45MOL   H119 9887   0.275   1.542   1.871  1.1484 -0.7511 -0.9247
   45MOL   H120 9888   0.291   1.288   1.793  0.3875 -1.6021  0.5340
   45MOL   H121 9889   0.456   1.256   1.721  1.5058  0.6281  0.7927
   45MOL   H122 9890   0.429   1.344   1.878  1.0394 -1.7568 -0.4478
   45MOL   C123 9891   0.132   1.546   1.704  0.4450 -0.1970  0.0548
   45MOL   C124 9892   0.028   1.638   1.773  0.1305 -0.0720 -0.3675
   45MOL   C125 9893   0.018   1.620   1.927 -0.0857  0.1827 -0.0090
   45MOL   O126 9894   0.062   1.695   2.008  0.1345 -0.2103 -0.4648
   45MOL   C127 9895   7.808   1.503   1.988  0.3060 -0.1273  0.3728
   45MOL   H128 9896   0.097   1.443   1.713 -0.6024  0.1304 -0.1670
   45MOL   H129 9897   0.135   1.566   1.597  1.7275  0.4818  0.2093
   45MOL   H130 9898   0.067   1.740   1.772 -1.7230  0.6531 -1.6121
   45MOL   H131 9899   7.814   1.513   2.096 -0.7898  0.5663  0.3786
   45MOL   H132 9900   7.851   1.408   1.958 -0.7666 -0.1673 -1.1208
   45MOL   H133 9901   7.702   1.496   1.963  0.2691 -1.1007  0.7893
   45MOL   C134 9902   7.750   1.626   1.699  0.0893 -0.4470 -0.2122
   45MOL   C135 9903   7.651   1.730   1.746 -0.0829 -0.2878 -0.1012
   45MOL   C136 9904   7.697   1.876   1.722 -0.6104 -0.0625  0.5844
   45MOL   O137 9905   7.736   1.909   1.609  0.5027 -0.1614  0.3777
   45MOL   C138 9906   7.682   1.988   1.835 -0.3388  0.3295 -0.5482
   45MOL   H139 9907   7.721   1.521   1.707 -0.3245 -0.1842  2.1608
   45MOL   H140 9908   7.766   1.645   1.593  1.5965  0.3342  0.1435
   45MOL   H141 9909   7.631   1.734   1.853 -1.2274 -0.9860 -0.2800
   45MOL   H142 9910   7.723   2.083   1.803  2.6558  0.7401  3.9509
   45MOL   H143 9911   7.748   1.953   1.915  0.6615 -0.7556 -1.8166
   45MOL   H144 9912   7.578   1.999   1.867 -0.2533  2.2929 -0.8955
   45MOL   C145 9913   7.510   1.692   1.683  0.1593  0.6748 -0.1154
   45MOL   C146 9914   7.434   1.587   1.766  0.1516 -0.0070  0.1978
   45MOL   C147 9915   7.384   1.628   1.902 -0.1880 -0.3796  0.2569
   45MOL   O148 9916   7.395   1.559   1.998 -0.0706  0.7426  0.0686
   45MOL   C149 9917   7.310   1.761   1.924  0.1904 -0.5862  0.0340
   45MOL   H150 9918   7.526   1.653   1.583 -3.1862  1.8954 -1.2080
   45MOL   H151 9919   7.447   1.781   1.676 -0.6146 -0.0951 -3.8529
   45MOL   H152 9920   7.508   1.511   1.794  1.6339  2.6278  3.8378
   45MOL   H153 9921   7.375   1.847   1.911 -0.5119 -0.1885 -0.9295
   45MOL   H154 9922   7.237   1.778   1.845 -0.1001 -2.1104 -0.0491
   45MOL   H155 9923   7.256   1.755   2.018  0.0113  0.6868  0.0218
   45MOL   C156 9924   7.329   1.509   1.689 -0.0232  0.3017  0.6774
   45MOL   C157 9925   7.260   1.393   1.767  0.6984 -0.0369 -0.4678
   45MOL   C158 9926   7.344   1.270   1.745 -0.3972 -1.0234 -0.8516
   45MOL   O159 9927   7.332   1.206   1.645 -0.1844  0.0284  0.2871
   45MOL   C160 9928   7.457   1.239   1.842  0.3597 -0.3024 -0.4935
   45MOL   H161 9929   7.253   1.580   1.657  0.3226  0.0700 -0.7148
   45MOL   H162 9930   7.387   1.475   1.603 -0.0392  0.2480  0.6873
   45MOL   H163 9931   7.262   1.403   1.876  0.1563  1.6039 -0.5882
   45MOL   H164 9932   7.549   1.287   1.807 -0.0678  1.2501  0.4530
   45MOL   H165 9933   7.480   1.132   1.842 -0.8153 -0.5559 -1.2921
   45MOL   H166 9934   7.431   1.274   1.942  0.4826  0.3308 -0.6800
   45MOL   C167 9935   7.113   1.386   1.712 -0.1933 -0.7940  0.1571
   45MOL   C168 9936   7.025   1.268   1.770  0.2522 -0.1307 -0.2444
   45MOL   C169 9937   6.884   1.274   1.710  0.2879 -0.1054  0.0773
   45MOL   O170 9938   6.847   1.381   1.657 -0.0451 -0.3656  0.6728
   45MOL   C171 9939   6.790   1.154   1.719  0.1255  0.0323 -0.6220
   45MOL   H172 9940   7.059   1.480   1.725 -1.6525 -1.6252  0.1605
   45MOL   H173 9941   7.121   1.374   1.604 -0.8243 -0.6532  0.0932
   45MOL   H174 9942   7.077   1.177   1.740  0.4090  0.0271 -0.4524
   45MOL   H175 9943   6.764   1.134   1.823  0.0751  3.0241 -0.0147
   45MOL   H176 9944   6.842   1.062   1.695  1.6081  0.8238 -0.4710
   45MOL   H177 9945   6.701   1.163   1.656 -1.5993  1.6116  1.9033
   45MOL   C178 9946   7.010   1.264   1.929  0.6175 -0.2821 -0.2770
   45MOL   C179 9947   7.087   1.152   2.002  0.6077 -0.1269 -0.2084
   45MOL   C180 9948   7.031   1.019   1.960  0.0013  0.5621 -0.2920
   45MOL   O181 9949   6.913   0.995   1.988  1.0104  0.1159  0.7108
   45MOL   C182 9950   7.123   0.922   1.889 -0.1607  0.5473 -0.1485
   45MOL   H183 9951   7.068   1.352   1.956 -1.0522  0.9241 -0.5101
   45MOL   H184 9952   6.908   1.275   1.966  0.3228  3.7974 -2.0362
   45MOL   H185 9953   7.188   1.160   1.961 -0.0283  0.9581 -1.6233
   45MOL   H186 9954   7.230   0.934   1.907 -0.2878  1.2141  0.2179
   45MOL   H187 9955   7.109   0.924   1.781  1.2302  1.8672 -0.3197
   45MOL   H188 9956   7.102   0.818   1.913  1.3699  0.2682 -0.0308
   45MOL   C189 9957   7.083   1.161   2.159  0.0775  0.3853  0.0354
   45MOL   C190 9958   7.176   1.267   2.224 -0.9846 -0.3214 -0.4281
   45MOL   C191 9959   7.115   1.408   2.240 -0.6854 -0.5704  0.2886
   45MOL   O192 9960   6.996   1.432   2.216  0.3512 -0.1934  0.2514
   45MOL   C193 9961   7.200   1.519   2.298  0.4392  0.6378  0.3367
   45MOL   H194 9962   6.977   1.180   2.174 -0.6399 -2.6802 -0.8229
   45MOL   H195 9963   7.100   1.064   2.205  1.1252  0.1847 -0.7334
   45MOL   H196 9964   7.267   1.280   2.166 -0.3243 -0.0709  0.6565
   45MOL   H197 9965   7.163   1.559   2.392  0.8262  2.1901 -0.1633
   45MOL   H198 9966   7.305   1.487   2.305 -0.4092 -2.5705 -0.5662
   45MOL   H199 9967   7.219   1.599   2.226  0.4010  2.2201  2.0491
   45MOL   C200 9968   7.210   1.218   2.370 -0.3217 -0.4152  0.0525
   45MOL   C201 9969   7.312   1.101   2.383 -0.0062 -0.3184 -0.7580
   45MOL   C202 9970   7.303   1.035   2.518 -0.2370 -0.2961  0.5239
   45MOL   O203 9971   7.361   1.086   2.615  0.1796 -0.6739 -0.1675
   45MOL   C204 9972   7.217   0.914   2.539 -0.1216  0.5142  0.1477
   45MOL   H205 9973   7.241   1.299   2.437 -0.6583 -0.5476  0.3750
   45MOL   H206 9974   7.113   1.193   2.413 -1.0455 -0.5572 -1.6442
   45MOL   H207 9975   7.291   1.025   2.307 -0.4239 -2.3859  1.3945
   45MOL   H208 9976   7.262   0.828   2.489  1.2580  1.2869  0.0158
   45MOL   H209 9977   7.211   0.891   2.645  0.2945  0.3302  0.1364
   45MOL   H210 9978   7.116   0.929   2.500  0.8494  1.3182 -2.1923
   45MOL   C211 9979   7.454   1.142   2.341 -0.1371 -0.4663  0.5872
   45MOL   C212 9980   7.534   1.018   2.291  0.2866  0.1877 -0.5519
   45MOL   C213 9981   7.518   0.971   2.153  0.4127 -0.2330  1.3789
   45MOL   O214 9982   7.457   1.035   2.071 -0.1313  0.6606  0.2138
   45MOL   C215 9983   7.557   0.832   2.115  0.4634  0.3433 -0.5072
   45MOL   H216 9984   7.461   1.217   2.262 -0.2834  0.3302  1.3115
   45MOL   H217 9985   7.498   1.178   2.434 -2.0218  0.4263  1.1583
   45MOL   H218 9986   7.533   0.931   2.357 -0.4497  1.1818  0.7733
   45MOL   H219 9987   7.589   0.827   2.011  0.4846  2.1103 -0.6144
   45MOL   H220 9988   7.645   0.793   2.166 -0.0578  1.2898  1.1550
   45MOL   H221 9989   7.471   0.766   2.107  1.3314 -0.7535 -0.8405
   45MOL   H222 9990   7.636   1.053   2.275  0.2493  1.2629  1.3832
   46MOL     C1 9991   2.185   2.054   1.632  1.1629  0.3952  0.3269
   46MOL     C2 9992   2.124   1.958   1.521  0.4537 -0.0422 -0.1041
   46MOL     C3 9993   2.231   1.861   1.478  0.1802 -0.0958 -0.3437
   46MOL     O4 9994   2.266   1.782   1.567 -0.3634 -0.4019  0.2479
   46MOL     C5 9995   2.301   1.885   1.338  0.0074  0.3537  0.1712
   46MOL     H6 9996   2.239   2.139   1.589  0.0046  0.7603 -0.4202
   46MOL     H7 9997   2.251   1.998   1.699  0.2073  0.1638  1.0895
   46MOL     H8 9998   2.098   2.014   1.431  2.2821  4.8402  2.2697
   46MOL     H9 9999   2.223   1.884   1.262 -1.3370  0.0683  1.5332
   46MOL    H1010000   2.360   1.977   1.336 -0.0091  0.4320  2.3694
   46MOL    H1110001   2.371   1.804   1.317 -1.1671 -0.9211  1.0927
   46MOL    H1210002   2.107   2.088   1.700  0.6510 -1.0803  0.4912
   46MOL    C1310003   1.992   1.882   1.555  0.1299  0.3381  0.4243
   46MOL    C1410004   1.892   1.884   1.432  0.7467 -0.0091 -0.9716
   46MOL    C1510005   1.840   2.021   1.391  0.6769 -0.0480  0.1071
   46MOL    O1610006   1.847   2.053   1.272  0.1140  0.2684 -0.0966
   46MOL    C1710007   1.783   2.110   1.498 -0.4419  0.2572 -0.3199
   46MOL    H1810008   2.008   1.781   1.592 -2.1327 -0.9900 -2.0554
   46MOL    H1910009   1.942   1.936   1.635  0.1906  1.8506 -0.5368
   46MOL    H2010010   1.958   1.835   1.360  0.7603 -0.5052 -0.6240
   46MOL    H2110011   1.865   2.152   1.555 -0.1399  2.2801 -2.1892
   46MOL    H2210012   1.721   2.183   1.446 -3.0050 -0.9061  1.0106
   46MOL    H2310013   1.719   2.047   1.561  0.6261 -0.9834 -0.4457
   46MOL    C2410014   1.773   1.781   1.446  0.7386 -0.3128  0.0037
   46MOL    C2510015   1.695   1.753   1.309 -0.3806 -0.2374  0.3852
   46MOL    C2610016   1.794   1.699   1.201 -0.1737  0.6732 -0.2838
   46MOL    O2710017   1.833   1.585   1.199 -0.6874 -0.8691 -0.3905
   46MOL    C2810018   1.843   1.789   1.089 -0.4584 -0.4954  0.2402
   46MOL    H2910019   1.818   1.689   1.483 -0.2102 -0.9907 -0.5192
   46MOL    H3010020   1.697   1.819   1.514 -1.9592 -0.0687 -3.0287
   46MOL    H3110021   1.663   1.851   1.273  0.1436 -0.6740 -1.3190
   46MOL    H3210022   1.753   1.847   1.065 -1.2249 -1.0386  1.7569
   46MOL    H3310023   1.930   1.850   1.114 -0.4132  0.3667 -1.9580
   46MOL    H3410024   1.860   1.727   1.001 -0.7121 -1.2935  0.7498
   46MOL    C3510025   1.580   1.653   1.327  0.0960 -0.2645  0.3952
   46MOL    C3610026   1.492   1.603   1.205  0.3772  0.0200  0.2686
   46MOL    C3710027   1.383   1.503   1.247 -0.4954  0.4507  0.6608
   46MOL    O3810028   1.324   1.503   1.349 -0.9699  0.0870  0.3914
   46MOL    C3910029   1.352   1.391   1.146 -0.0200 -0.0206  0.2875
   46MOL    H4010030   1.513   1.716   1.386 -0.6247  1.4013 -2.1135
   46MOL    H4110031   1.603   1.562   1.382  1.0067  0.0500  0.5453
   46MOL    H4210032   1.552   1.560   1.124 -1.1507  1.6076 -1.7798
   46MOL    H4310033   1.248   1.398   1.116 -0.2375  0.5617  1.1353
   46MOL    H4410034   1.353   1.299   1.204  2.1639  0.4716  1.0792
   46MOL    H4510035   1.420   1.370   1.063 -2.8604 -2.8473 -1.4182
   46MOL    C4610036   1.431   1.730   1.127 -0.1185 -0.6947 -0.8256
   46MOL    C4710037   1.366   1.703   0.987 -0.1958  0.8927 -0.8471
   46MOL    C4810038   1.269   1.812   0.942 -0.0764  0.6892  0.0209
   46MOL    O4910039   1.147   1.811   0.960 -0.7471 -0.1564  0.3488
   46MOL    C5010040   1.325   1.937   0.882 -0.3780  0.0327 -0.0855
   46MOL    H5110041   1.505   1.808   1.111 -0.2151 -0.7274 -1.4222
   46MOL    H5210042   1.348   1.773   1.183  0.4803  1.1957 -1.3789
   46MOL    H5310043   1.308   1.611   0.993  0.2970  0.6423  0.2834
   46MOL    H5410044   1.243   2.010   0.886  0.6833  1.2830 -0.6391
   46MOL    H5510045   1.406   1.964   0.949  0.3633 -1.4648 -0.3648
   46MOL    H5610046   1.356   1.907   0.782 -0.3430  1.2342 -0.4552
   46MOL    C5710047   1.477   1.660   0.876 -0.5448 -0.3626 -0.2196
   46MOL    C5810048   1.406   1.604   0.746 -0.2097 -0.0861  0.6881
   46MOL    C5910049   1.467   1.658   0.615 -0.1374  0.1228  0.1856
   46MOL    O6010050   1.584   1.703   0.622 -0.6111 -0.6674  0.5159
   46MOL    C6110051   1.377   1.687   0.497  0.4665  0.6225  0.0690
   46MOL    H6210052   1.538   1.579   0.915  0.0636  0.4817  0.5820
   46MOL    H6310053   1.543   1.746   0.862 -0.5613 -0.8407 -3.9406
   46MOL    H6410054   1.303   1.641   0.750 -0.5334 -1.0314  1.3024
   46MOL    H6510055   1.379   1.609   0.420 -0.5449  0.6028  0.0594
   46MOL    H6610056   1.281   1.702   0.546  0.5693 -1.6087  1.0311
   46MOL    H6710057   1.402   1.785   0.458  1.8166 -0.0498 -0.8099
   46MOL    C6810058   1.399   1.445   0.747  0.6242  0.1500 -0.1556
   46MOL    C6910059   1.279   1.393   0.676  0.9340 -0.4834 -0.1860
   46MOL    C7010060   1.160   1.401   0.773 -0.2665  0.1333 -1.1371
   46MOL    O7110061   1.140   1.322   0.868 -0.1032 -0.4998 -0.1625
   46MOL    C7210062   1.058   1.507   0.759  0.0246  0.4485  0.6143
   46MOL    H7310063   1.484   1.399   0.696  0.1848 -1.0381  0.1562
   46MOL    H7410064   1.395   1.407   0.849 -0.6309  0.2100 -0.1763
   46MOL    H7510065   1.243   1.460   0.598  0.2061 -1.9104 -1.1001
   46MOL    H7610066   1.088   1.607   0.790  1.5009  0.6613 -1.4124
   46MOL    H7710067   1.031   1.514   0.653 -1.8445 -0.4388  1.0082
   46MOL    H7810068   0.971   1.474   0.815  1.3963 -0.8196  2.0294
   46MOL    C7910069   1.306   1.242   0.626 -0.4048 -0.4559 -0.2631
   46MOL    C8010070   1.422   1.224   0.527  0.0026  0.5601  0.6093
   46MOL    C8110071   1.422   1.324   0.406  0.5769  0.3401  0.3585
   46MOL    O8210072   1.518   1.398   0.394 -0.1528 -0.0559 -0.1213
   46MOL    C8310073   1.295   1.343   0.319  0.4677 -0.4242 -0.4420
   46MOL    H8410074   1.215   1.205   0.579 -0.3104 -0.8608 -0.1205
   46MOL    H8510075   1.337   1.180   0.710 -0.6433 -0.0355  0.1402
   46MOL    H8610076   1.514   1.239   0.584  0.3409 -0.9784  0.4954
   46MOL    H8710077   1.305   1.400   0.227  0.4332 -0.7547 -0.6493
   46MOL    H8810078   1.218   1.387   0.383 -1.7960 -1.9906 -2.0265
   46MOL    H8910079   1.254   1.245   0.296  0.3182 -0.2216 -1.0364
   46MOL    C9010080   1.417   1.071   0.481  0.0247 -0.2503  0.3732
   46MOL    C9110081   1.528   1.025   0.383  0.5180  0.1771 -0.1734
   46MOL    C9210082   1.665   1.001   0.450 -0.6421 -0.0580 -0.3713
   46MOL    O9310083   1.684   0.913   0.535 -0.4216  0.6492 -0.2231
   46MOL    C9410084   1.776   1.095   0.404  0.1302  0.4615 -0.0103
   46MOL    H9510085   1.421   1.012   0.572  0.6663 -0.1296  0.4288
   46MOL    H9610086   1.315   1.056   0.445  0.4955  1.8935 -1.9480
   46MOL    H9710087   1.536   1.101   0.306  1.7336  0.5008  0.2555
   46MOL    H9810088   1.795   1.079   0.298  2.7303 -0.1929  0.5126
   46MOL    H9910089   1.743   1.195   0.431  2.2285  0.7578  1.5488
   46MOL   H10010090   1.871   1.078   0.455 -0.2616 -1.3098  0.1410
   46MOL   C10110091   1.481   0.893   0.303  0.0127 -0.1757 -0.1891
   46MOL   C10210092   1.546   0.855   0.167 -0.2824  0.0506  0.2997
   46MOL   C10310093   1.526   0.966   0.058  0.6896 -0.7500  0.5761
   46MOL   O10410094   1.438   1.050   0.059  0.5120 -0.4498  0.7526
   46MOL   C10510095   1.607   0.958   7.787  0.6348 -0.2303 -0.5352
   46MOL   H10610096   1.494   0.814   0.377 -0.4375 -1.2374 -1.2333
   46MOL   H10710097   1.375   0.899   0.282  0.6109  0.1517 -3.3599
   46MOL   H10810098   1.654   0.858   0.184 -0.8032 -0.0512  3.9351
   46MOL   H10910099   1.532   0.933   7.711 -0.1832  1.0502 -0.1722
   46MOL   H11010100   1.658   1.051   7.764  2.3320 -1.1104 -0.4246
   46MOL   H11110101   1.683   0.880   7.797  0.7282 -0.0265  0.4113
   46MOL   C11210102   1.510   0.715   0.120  0.1957  0.5429 -0.0197
   46MOL   C11310103   1.363   0.685   0.068  0.0181  0.0471  0.5486
   46MOL   C11410104   1.309   0.547   0.113 -0.7166  0.4755  0.3963
   46MOL   O11510105   1.356   0.437   0.097 -0.0376  0.0087 -0.0504
   46MOL   C11610106   1.177   0.563   0.200 -0.3858 -0.0079  0.6040
   46MOL   H11710107   1.540   0.640   0.193  0.1246  0.9107  0.3917
   46MOL   H11810108   1.589   0.692   0.048 -0.1416  0.7499 -0.4573
   46MOL   H11910109   1.300   0.752   0.126  1.8349  1.0862  1.3173
   46MOL   H12010110   1.113   0.648   0.178  0.4923 -0.2005 -3.0385
   46MOL   H12110111   1.131   0.466   0.177  1.3226 -0.8039  0.4383
   46MOL   H12210112   1.211   0.572   0.303 -0.1269 -0.6717  0.5839
   46MOL   C12310113   1.333   0.692   7.776  0.4850 -0.6092 -0.2476
   46MOL   C12410114   1.182   0.682   7.748 -1.0109 -0.7293  0.0405
   46MOL   C12510115   1.163   0.645   7.596  0.2250  0.6085  0.4167
   46MOL   O12610116   1.185   0.728   7.508  0.7931 -0.2682 -0.4178
   46MOL   C12710117   1.134   0.498   7.568 -0.0917 -0.0100  0.7751
   46MOL   H12810118   1.396   0.614   7.734  1.7885  0.9450 -1.2090
   46MOL   H12910119   1.386   0.773   7.727 -1.8343 -0.3878 -2.4869
   46MOL   H13010120   1.132   0.608   7.810 -1.4303  0.7364  1.4997
   46MOL   H13110121   1.042   0.482   7.511  0.1766  2.9019 -0.5277
   46MOL   H13210122   1.134   0.446   7.664 -1.1336  0.8392  1.2513
   46MOL   H13310123   1.223   0.467   7.513 -0.5361 -0.4457  0.2970
   46MOL   C13410124   1.106   0.810   7.794 -0.0004  0.0146 -0.1993
   46MOL   C13510125   0.946   0.812   7.788  0.3395 -0.0870 -0.1829
   46MOL   C13610126   0.876   0.735   0.044 -0.5606 -0.3233  0.1402
   46MOL   O13710127   0.882   0.782   0.157 -0.6827  0.4211  0.1435
   46MOL   C13810128   0.795   0.606   0.005 -0.1423 -0.2022  0.2179
   46MOL   H13910129   1.140   0.882   7.720  1.5181 -2.5411 -2.0845
   46MOL   H14010130   1.142   0.849   0.031 -0.5433 -0.5350  0.2399
   46MOL   H14110131   0.911   0.763   7.697  1.7717 -2.7445  0.6582
   46MOL   H14210132   0.761   0.619   7.760  0.3211  2.8213  0.4110
   46MOL   H14310133   0.710   0.593   0.072  0.0107 -0.2588  0.3997
   46MOL   H14410134   0.868   0.525   0.009 -0.3243 -0.4018 -0.5671
   46MOL   C14510135   0.900   0.963   7.780 -0.5539 -0.0087  0.3088
   46MOL   C14610136   0.946   1.059   0.034 -0.1571 -0.7553 -0.0154
   46MOL   C14710137   1.033   1.175   7.834 -0.1756 -0.2206 -0.3012
   46MOL   O14810138   0.976   1.260   7.765 -0.0135 -0.1316  0.5846
   46MOL   C14910139   1.180   1.192   7.858  0.9999 -0.1812 -0.2635
   46MOL   H15010140   0.791   0.962   7.790 -0.9020 -1.6029 -3.1843
   46MOL   H15110141   0.914   1.001   7.679  0.0867  1.9387  1.1082
   46MOL   H15210142   1.007   1.000   0.102  1.6769 -0.0080 -0.9691
   46MOL   H15310143   1.239   1.164   7.770 -1.9836 -1.5118 -1.9295
   46MOL   H15410144   1.196   1.293   0.038  1.9413 -1.1515  2.0198
   46MOL   H15510145   1.209   1.121   0.078  0.1985  1.6933  1.7955
   46MOL   C15610146   0.820   1.115   0.108  0.1130 -0.1039  0.3464
   46MOL   C15710147   0.847   1.179   0.245  0.1302 -0.2767  0.0431
   46MOL   C15810148   0.937   1.100   0.340 -0.7824 -0.4072  0.6009
   46MOL   O15910149   1.044   1.146   0.379  0.2850 -0.1866 -0.6162
   46MOL   C16010150   0.882   0.974   0.403 -0.2478  0.2950  0.0001
   46MOL   H16110151   0.784   1.195   0.043 -2.0995 -0.1702  1.4676
   46MOL   H16210152   0.750   1.034   0.126 -0.5389  0.6541  1.2242
   46MOL   H16310153   0.904   1.266   0.213  0.0629  0.7160  2.4990
   46MOL   H16410154   0.793   0.952   0.345  2.1697 -2.3697 -2.9501
   46MOL   H16510155   0.860   0.988   0.509  2.0924  0.5910  0.4936
   46MOL   H16610156   0.938   0.881   0.393 -1.3683 -0.1540 -2.3482
   46MOL   C16710157   0.728   1.250   0.311 -0.3066  0.0342  1.0042
   46MOL   C16810158   0.771   1.381   0.375 -1.0438 -0.8384  0.1029
   46MOL   C16910159   0.712   1.379   0.519 -1.1043  0.4038 -0.0438
   46MOL   O17010160   0.784   1.356   0.615  0.4009  0.3383 -0.8206
   46MOL   C17110161   0.568   1.424   0.549 -0.2854 -0.0596 -0.0113
   46MOL   H17210162   0.645   1.241   0.242  1.1246 -0.2553 -0.7284
   46MOL   H17310163   0.682   1.184   0.384 -0.2225  0.3122  1.3076
   46MOL   H17410164   0.878   1.374   0.392 -1.1403 -1.1701  0.5887
   46MOL   H17510165   0.557   1.532   0.560  1.9806  0.1748  0.2278
   46MOL   H17610166   0.519   1.376   0.633  1.1541  0.4736  1.1527
   46MOL   H17710167   0.507   1.402   0.461 -0.6037  2.1687 -0.3808
   46MOL   C17810168   0.743   1.506   0.285  0.3552  0.1436  0.3873
   46MOL   C17910169   0.826   1.627   0.313 -0.3640  0.4583 -0.4326
   46MOL   C18010170   0.969   1.585   0.292 -0.7521 -0.0292 -0.6513
   46MOL   O18110171   1.049   1.562   0.390 -0.0863  1.1455 -0.2353
   46MOL   C18210172   1.012   1.547   0.157  0.5716 -0.6532 -0.3768
   46MOL   H18310173   0.748   1.486   0.178 -1.9092 -0.7440  0.4188
   46MOL   H18410174   0.636   1.523   0.296  0.3966  0.7518 -0.1512
   46MOL   H18510175   0.809   1.707   0.241 -0.2706 -0.0035 -0.9641
   46MOL   H18610176   0.945   1.586   0.081  0.0983 -3.1555 -1.2817
   46MOL   H18710177   1.007   1.440   0.137 -2.0414 -0.4218 -1.1597
   46MOL   H18810178   1.116   1.577   0.143  0.2248  0.5950 -0.3833
   46MOL   C18910179   0.799   1.693   0.452 -0.0424  0.0300  0.2929
   46MOL   C19010180   0.844   1.848   0.464 -0.0420 -0.1041  0.0066
   46MOL   C19110181   0.762   1.944   0.374  0.4352 -0.0870 -0.1818
   46MOL   O19210182   0.827   2.027   0.308  0.3269 -0.3664  0.2419
   46MOL   C19310183   0.608   1.957   0.401  0.3424  0.0262  0.4640
   46MOL   H19410184   0.691   1.682   0.458 -0.5393  4.2209  0.7595
   46MOL   H19510185   0.841   1.645   0.540  1.0844  3.2586  1.5920
   46MOL   H19610186   0.945   1.852   0.423 -0.8625  1.7809 -1.9129
   46MOL   H19710187   0.572   2.050   0.357 -0.9025 -0.9272 -0.5892
   46MOL   H19810188   0.563   1.879   0.340  0.4177 -0.3579  0.9004
   46MOL   H19910189   0.588   1.954   0.508  2.3177 -3.0778  0.8172
   46MOL   C20010190   0.853   1.880   0.613  0.8937  0.1198 -0.1403
   46MOL   C20110191   0.893   2.029   0.630  0.1943  0.0845 -0.2687
   46MOL   C20210192   1.041   2.046   0.582  0.3723  0.1616  0.6309
   46MOL   O20310193   1.125   1.965   0.615  0.5096  0.0374 -0.8304
   46MOL   C20410194   1.071   2.175   0.503 -0.4101 -0.3505  0.4632
   46MOL   H20510195   0.755   1.868   0.658 -0.2908  0.3149 -2.6007
   46MOL   H20610196   0.922   1.812   0.663 -0.6186  1.7916  4.4051
   46MOL   H20710197   0.826   2.089   0.568 -0.1313  1.0822  1.0203
   46MOL   H20810198   1.051   2.163   0.397 -0.5809 -2.4794  0.7116
   46MOL   H20910199   1.012   2.258   0.542 -0.2275  0.8302 -1.7196
   46MOL   H21010200   1.176   2.204   0.506  0.5211 -3.3351 -1.3526
   46MOL   C21110201   0.883   2.075   0.775  0.2733  0.3011  0.1552
   46MOL   C21210202   0.779   2.185   0.800 -0.3366 -0.0552 -0.6856
   46MOL   C21310203   0.640   2.127   0.824  0.7979  0.4268 -0.6128
   46MOL   O21410204   0.563   2.111   0.727 -0.4136 -0.4702 -0.1027
   46MOL   C21510205   0.604   2.075   0.964  0.0032  0.4351 -0.2618
   46MOL   H21610206   0.884   1.999   0.852 -0.9237  1.2998  1.1823
   46MOL   H21710207   0.973   2.132   0.801  0.8763 -0.1228 -0.9546
   46MOL   H21810208   0.779   2.266   0.727  1.5594  2.2773  1.8063
   46MOL   H21910209   0.495   2.081   0.976 -0.2159 -1.4544 -1.1529
   46MOL   H22010210   0.620   1.968   0.973  0.5072  0.4692 -0.7536
   46MOL   H22110211   0.664   2.122   1.042 -1.1802 -0.2749  1.1012
   46MOL   H22210212   0.805   2.224   0.898 -0.3283 -2.7096  0.4058
   47MOL     C110213   5.958   4.457   6.169 -0.3037  0.3033  0.3196
   47MOL     C210214   5.849   4.522   6.248 -0.0568 -0.5666  0.4956
   47MOL     C310215   5.718   4.525   6.169  0.4339  0.8778 -0.2095
   47MOL     O410216   5.674   4.627   6.128 -0.3111 -0.5609  0.1654
   47MOL     C510217   5.651   4.393   6.135 -0.4769 -0.5594 -0.5658
   47MOL     H610218   6.048   4.415   6.213  0.5275 -0.6691 -2.1763
   47MOL     H710219   6.002   4.510   6.084  0.6460 -0.0913  0.5522
   47MOL     H810220   5.873   4.627   6.263  0.6755 -0.2696 -2.5810
   47MOL     H910221   5.637   4.381   6.027 -0.3072 -1.2843 -0.5086
   47MOL    H1010222   5.715   4.309   6.162 -1.3250 -1.2854 -0.8110
   47MOL    H1110223   5.559   4.374   6.190 -0.0058 -1.6384 -0.1336
   47MOL    H1210224   5.920   4.362   6.131  1.1882 -0.9134  1.7835
   47MOL    C1310225   5.832   4.473   6.394  0.2103  0.0604  0.0268
   47MOL    C1410226   5.734   4.547   6.486 -0.1551 -1.1166 -0.6205
   47MOL    C1510227   5.770   4.698   6.497 -0.9502  0.1800 -0.3282
   47MOL    O1610228   5.685   4.783   6.491  0.0183 -0.1572 -0.0552
   47MOL    C1710229   5.919   4.735   6.520  0.7410 -0.0603 -0.4791
   47MOL    H1810230   5.791   4.373   6.382  2.1440 -0.8563  0.8328
   47MOL    H1910231   5.921   4.442   6.449 -0.5328 -0.8170  0.7686
   47MOL    H2010232   5.640   4.552   6.431 -1.0837  1.9306  1.1215
   47MOL    H2110233   5.928   4.732   6.628  0.7436  0.6590 -0.4586
   47MOL    H2210234   5.973   4.657   6.466 -2.8470 -3.6855  0.9415
   47MOL    H2310235   5.939   4.835   6.482  0.7229  0.3249  0.5252
   47MOL    C2410236   5.714   4.487   6.630  0.0333  0.4275 -0.9518
   47MOL    C2510237   5.605   4.559   6.714 -0.0043  0.2420  0.6373
   47MOL    C2610238   5.461   4.533   6.656  0.8299 -0.5132 -0.6023
   47MOL    O2710239   5.417   4.418   6.648  0.3633  0.5208 -0.4161
   47MOL    C2810240   5.377   4.651   6.622 -0.3195 -0.6785 -0.3154
   47MOL    H2910241   5.683   4.383   6.615 -2.5771  0.6533  2.2053
   47MOL    H3010242   5.804   4.496   6.691 -0.2014  0.3281 -0.5894
   47MOL    H3110243   5.633   4.663   6.694 -2.6759  0.7575 -0.6254
   47MOL    H3210244   5.318   4.627   6.533  0.1176 -0.2966 -0.7073
   47MOL    H3310245   5.310   4.696   6.696  1.2743  1.5289 -0.1738
   47MOL    H3410246   5.448   4.720   6.577  0.7388 -0.4037  1.7259
   47MOL    C3510247   5.607   4.536   6.867 -0.0386  0.0736  0.3221
   47MOL    C3610248   5.699   4.629   6.955  0.1526 -0.3753  0.1180
   47MOL    C3710249   5.846   4.635   6.918 -0.3915  0.0628  0.2424
   47MOL    O3810250   5.895   4.725   6.859  0.4160 -0.4397 -0.0760
   47MOL    C3910251   5.927   4.520   6.956  0.3825 -0.1954  0.8794
   47MOL    H4010252   5.623   4.431   6.892  0.2130  0.0546  0.0883
   47MOL    H4110253   5.509   4.559   6.909 -0.4874 -2.5540  0.8141
   47MOL    H4210254   5.692   4.594   7.057 -0.1333 -2.7192 -0.6853
   47MOL    H4310255   6.029   4.540   6.989  0.0833  0.1161  1.6565
   47MOL    H4410256   5.928   4.455   6.869 -0.5128 -1.4593  1.7883
   47MOL    H4510257   5.879   4.464   7.037 -0.1388 -1.0184  0.0059
   47MOL    C4610258   5.625   4.773   6.954  0.2229  0.9515 -0.0389
   47MOL    C4710259   5.472   4.777   7.003  0.3573 -0.1534 -0.0940
   47MOL    C4810260   5.474   4.746   7.147 -0.9279  0.0593  0.1246
   47MOL    O4910261   5.539   4.821   7.221 -0.4287 -0.2645 -0.0734
   47MOL    C5010262   5.400   4.625   7.201 -0.1879 -0.2246  0.3319
   47MOL    H5110263   5.619   4.794   6.847 -0.5643 -2.0776 -0.6294
   47MOL    H5210264   5.688   4.849   7.001  0.3126 -0.6489  2.4935
   47MOL    H5310265   5.397   4.708   6.963  1.5109 -0.6864 -1.3836
   47MOL    H5410266   5.423   4.531   7.150 -0.9772  0.1913 -0.8087
   47MOL    H5510267   5.417   4.604   7.307 -1.7815 -0.9311  0.4548
   47MOL    H5610268   5.298   4.658   7.185  0.1480  0.6526 -0.0472
   47MOL    C5710269   5.402   4.912   6.971 -0.0869 -0.1999 -0.1248
   47MOL    C5810270   5.256   4.932   7.006 -0.5536 -0.5722  0.5401
   47MOL    C5910271   5.231   5.080   7.042 -0.8092  0.0846 -0.1087
   47MOL    O6010272   5.148   5.142   6.978  0.0516 -0.1375  0.2683
   47MOL    C6110273   5.288   5.150   7.164  1.0719  0.1141 -0.3610
   47MOL    H6210274   5.412   4.927   6.864 -1.3131  1.6980  0.0058
   47MOL    H6310275   5.468   4.988   7.014  2.0409 -1.6509 -0.7465
   47MOL    H6410276   5.237   4.875   7.097 -0.0149 -1.4531  0.1084
   47MOL    H6510277   5.257   5.253   7.151 -0.8379 -0.5439 -1.1913
   47MOL    H6610278   5.251   5.090   7.248  1.2205 -1.0420 -1.1150
   47MOL    H6710279   5.397   5.146   7.165  1.0476 -1.0807  1.6966
   47MOL    C6810280   5.162   4.879   6.896 -0.8782 -0.0201  0.1264
   47MOL    C6910281   5.020   4.838   6.941 -0.3411 -0.4657 -0.2884
   47MOL    C7010282   5.028   4.718   7.031  0.2826  0.4844 -0.7508
   47MOL    O7110283   5.118   4.634   7.020  0.3774  0.3007  0.0526
   47MOL    C7210284   4.938   4.706   7.159  0.4338  0.1303 -0.2821
   47MOL    H7310285   5.159   4.958   6.821  1.5816  0.3959  0.4005
   47MOL    H7410286   5.218   4.804   6.841  2.4696  0.5131  2.6146
   47MOL    H7510287   4.992   4.928   6.995  0.2506 -0.9401  0.8522
   47MOL    H7610288   4.933   4.600   7.182 -0.7023  0.0976 -0.6839
   47MOL    H7710289   4.980   4.749   7.250  3.1546 -1.2197 -0.8525
   47MOL    H7810290   4.838   4.735   7.127  0.8740  2.4517  0.3307
   47MOL    C7910291   4.919   4.822   6.833 -0.7828  0.4509 -0.3417
   47MOL    C8010292   4.928   4.712   6.731  0.7073  0.2289 -0.9002
   47MOL    C8110293   4.915   4.767   6.597 -0.5635 -0.4012  1.0023
   47MOL    O8210294   4.811   4.784   6.538 -0.0515  0.9816  0.1241
   47MOL    C8310295   5.042   4.819   6.528  0.2136  1.1530 -0.2572
   47MOL    H8410296   4.930   4.914   6.775  2.7735  0.4261  0.1855
   47MOL    H8510297   4.820   4.824   6.880 -1.1344  2.0764 -1.1209
   47MOL    H8610298   5.016   4.648   6.741  2.4702  2.5573 -0.8798
   47MOL    H8710299   5.071   4.921   6.552 -0.8623  1.0224  1.7012
   47MOL    H8810300   5.022   4.809   6.421 -2.6887  2.1127  0.1380
   47MOL    H8910301   5.118   4.750   6.564 -1.2404 -0.9179 -1.0237
   47MOL    C9010302   4.813   4.613   6.760  0.0340  0.2376 -0.4851
   47MOL    C9110303   4.790   4.492   6.669 -0.1827 -0.4933  0.4163
   47MOL    C9210304   4.914   4.405   6.666  0.2840 -0.1579  0.7510
   47MOL    O9310305   4.943   4.326   6.759  0.2095 -0.5811 -0.7439
   47MOL    C9410306   5.010   4.435   6.543  0.5358  0.3809 -0.7402
   47MOL    H9510307   4.815   4.587   6.866 -1.3016  0.5973 -0.3694
   47MOL    H9610308   4.718   4.665   6.759  1.1060  2.2552 -0.6055
   47MOL    H9710309   4.763   4.510   6.565 -0.1412  1.1256  0.6739
   47MOL    H9810310   4.994   4.347   6.481  0.0008 -0.7875  1.0218
   47MOL    H9910311   4.968   4.524   6.497 -0.8313 -0.0151 -0.2724
   47MOL   H10010312   5.114   4.455   6.570  0.8103 -1.1707 -0.5762
   47MOL   C10110313   4.663   4.416   6.726 -0.0335  0.4900  0.6577
   47MOL   C10210314   4.613   4.294   6.640  0.0791 -0.4600 -0.2204
   47MOL   C10310315   4.555   4.335   6.500 -0.7780 -0.0770 -0.5169
   47MOL   O10410316   4.496   4.444   6.483  0.0924  0.3055  0.1189
   47MOL   C10510317   4.572   4.231   6.389  0.0849 -0.0514 -0.0159
   47MOL   H10610318   4.694   4.376   6.822 -2.1318 -0.2236  1.0568
   47MOL   H10710319   4.578   4.484   6.725 -0.0037  0.5154 -1.3231
   47MOL   H10810320   4.695   4.224   6.627  0.5069 -0.2689  1.4256
   47MOL   H10910321   4.637   4.151   6.425  1.2517  0.1814 -1.5748
   47MOL   H11010322   4.480   4.176   6.371  0.4706 -1.1203  1.2056
   47MOL   H11110323   4.600   4.273   6.293 -0.4747  0.4803  0.0504
   47MOL   C11210324   4.507   4.222   6.727  0.7177  0.0781 -0.3004
   47MOL   C11310325   4.557   4.097   6.806  0.4406  0.0553 -0.2274
   47MOL   C11410326   4.567   3.967   6.722 -0.6286 -0.4011  0.1256
   47MOL   O11510327   4.680   3.929   6.682 -0.1611 -0.4404 -0.0198
   47MOL   C11610328   4.438   3.896   6.679 -0.1079 -0.0677 -0.1557
   47MOL   H11710329   4.435   4.188   6.653  0.7427 -0.9652  0.1443
   47MOL   H11810330   4.442   4.275   6.797 -2.3893 -2.0220 -1.5126
   47MOL   H11910331   4.661   4.121   6.825  1.6069 -2.8536 -2.5679
   47MOL   H12010332   4.395   3.847   6.766 -0.0982 -2.8934 -1.6554
   47MOL   H12110333   4.362   3.971   6.655 -1.4621 -0.9965  1.0951
   47MOL   H12210334   4.452   3.819   6.603 -1.1940  0.1281 -0.5622
   47MOL   C12310335   4.489   4.080   6.941 -0.0193  0.6024 -0.0445
   47MOL   C12410336   4.533   4.178   7.057 -0.9585  0.2204 -0.3661
   47MOL   C12510337   4.686   4.193   7.080 -0.3571 -0.1275  0.2004
   47MOL   O12610338   4.739   4.300   7.094  0.0638 -0.3061  0.3549
   47MOL   C12710339   4.767   4.065   7.081  0.1008  0.2471 -0.5687
   47MOL   H12810340   4.526   3.991   6.991 -1.3216 -1.7770 -3.2044
   47MOL   H12910341   4.385   4.047   6.932 -0.2208  1.2227 -0.0379
   47MOL   H13010342   4.498   4.280   7.037 -2.6909  0.2275  2.5407
   47MOL   H13110343   4.796   4.024   6.984  0.2908 -2.3298  0.5348
   47MOL   H13210344   4.704   4.004   7.146 -1.0810  1.1085 -0.8957
   47MOL   H13310345   4.856   4.075   7.143 -0.7500  2.0593  0.3918
   47MOL   C13410346   4.461   4.141   7.197  0.1459  0.1132  0.1513
   47MOL   C13510347   4.493   4.229   7.324  0.5310  0.3174 -0.1613
   47MOL   C13610348   4.457   4.378   7.294  0.8944  0.2068 -0.2827
   47MOL   O13710349   4.337   4.412   7.301  0.0284  0.1747  0.0546
   47MOL   C13810350   4.569   4.479   7.272 -0.5813 -0.2054 -0.1127
   47MOL   H13910351   4.488   4.037   7.220 -1.7613 -0.1770  1.1871
   47MOL   H14010352   4.352   4.139   7.192  0.1323  0.8596  0.1775
   47MOL   H14110353   4.598   4.227   7.355  0.3457 -0.8458  0.4325
   47MOL   H14210354   4.662   4.422   7.263 -1.4772 -1.5821 -0.9567
   47MOL   H14310355   4.566   4.537   7.364  2.1332 -0.3937  0.1216
   47MOL   H14410356   4.544   4.533   7.181 -2.3323 -1.4058 -0.3658
   47MOL   C14510357   4.400   4.186   7.444 -0.1632  0.0588 -0.7077
   47MOL   C14610358   4.409   4.268   7.577 -0.1194 -0.4029  0.4539
   47MOL   C14710359   4.272   4.275   7.647  0.6003 -0.1157  0.2943
   47MOL   O14810360   4.234   4.210   7.745 -0.0542  0.2591 -0.1593
   47MOL   C14910361   4.177   4.386   7.597 -0.4000  0.3703  0.0257
   47MOL   H15010362   4.419   4.082   7.470 -1.2558  0.5865  2.4464
   47MOL   H15110363   4.299   4.176   7.404 -0.0910 -1.7104 -0.4879
   47MOL   H15210364   4.430   4.371   7.549  0.0248 -0.0243  1.9092
   47MOL   H15310365   4.104   4.416   7.673 -0.0102  0.8092  0.2294
   47MOL   H15410366   4.225   4.470   7.548 -0.8897  1.0729  0.7301
   47MOL   H15510367   4.111   4.348   7.519  1.3445  1.7630 -2.1779
   47MOL   C15610368   4.515   4.200   7.671  0.3457 -0.1125 -0.2228
   47MOL   C15710369   4.587   4.300   7.772  0.0474  0.0586 -0.5605
   47MOL   C15810370   4.519   4.327   0.050 -0.3379 -0.3220  0.6588
   47MOL   O15910371   4.492   4.440   0.093  0.5254  0.0066 -0.3923
   47MOL   C16010372   4.489   4.200   0.129 -0.3829  0.2040 -0.0923
   47MOL   H16110373   4.470   4.120   7.729 -0.3314 -1.3686 -2.4148
   47MOL   H16210374   4.587   4.154   7.604  2.2821 -0.1831  1.8368
   47MOL   H16310375   4.680   4.246   7.791  0.0871  0.4285  0.3228
   47MOL   H16410376   4.540   4.109   0.098  0.9924  1.7863 -2.7441
   47MOL   H16510377   4.385   4.169   0.121 -0.1059 -1.4267  2.3196
   47MOL   H16610378   4.508   4.219   0.235  3.0807  0.5858 -0.7150
   47MOL   C16710379   4.637   4.423   7.698  0.4542 -0.0513  0.7161
   47MOL   C16810380   4.744   4.501   7.772  0.4886 -0.4127  0.2430
   47MOL   C16910381   4.764   4.641   7.713  0.2770  0.2137  0.2274
   47MOL   O17010382   4.849   4.663   7.626  0.0303  0.4922 -0.6197
   47MOL   C17110383   4.679   4.742   7.771 -0.1979  0.2228 -0.4577
   47MOL   H17210384   4.674   4.391   7.600  2.9167  1.3606  1.1779
   47MOL   H17310385   4.547   4.482   7.682  1.3414  1.2285  0.3939
   47MOL   H17410386   4.708   4.518   0.015 -0.2683  0.8820 -0.2402
   47MOL   H17510387   4.584   4.735   7.719 -0.5724 -1.2172  0.4142
   47MOL   H17610388   4.720   4.842   7.753  0.6961 -0.1280 -0.4021
   47MOL   H17710389   4.663   4.726   0.019  0.6568 -1.1983 -0.5325
   47MOL   C17810390   4.872   4.404   7.764 -0.2883  0.3587  0.2993
   47MOL   C17910391   5.000   4.467   7.814 -0.4704  0.8003 -0.3762
   47MOL   C18010392   5.128   4.382   7.775  0.3538  0.4852  0.0410
   47MOL   O18110393   5.210   4.351   0.002 -0.3151 -0.4399  0.4436
   47MOL   C18210394   5.152   4.350   7.626  0.2009 -0.0758 -0.1111
   47MOL   H18310395   4.852   4.311   7.817 -1.7232  1.9818  2.7091
   47MOL   H18410396   4.874   4.380   7.658 -1.2240  2.7360 -0.3066
   47MOL   H18510397   5.025   4.555   7.755  2.0959  0.6739  0.4842
   47MOL   H18610398   5.098   4.268   7.578 -1.3450  0.2673  0.9759
   47MOL   H18710399   5.256   4.326   7.608  0.0208  0.0666 -1.3971
   47MOL   H18810400   5.113   4.437   7.574 -1.4083 -0.3539  0.5711
   47MOL   C18910401   4.984   4.507   0.110 -1.0623 -0.1472 -0.2699
   47MOL   C19010402   5.099   4.598   0.159 -0.3702  0.4763 -0.0736
   47MOL   C19110403   5.077   4.743   0.110  0.1500  0.5483 -0.9006
   47MOL   O19210404   4.978   4.807   0.148  0.0280 -0.1130 -0.7156
   47MOL   C19310405   5.193   4.804   0.043  0.2119 -0.1510 -0.7482
   47MOL   H19410406   4.889   4.560   0.106 -0.8552  0.3778  1.2576
   47MOL   H19510407   4.967   4.419   0.171  2.1776  0.8104  2.2145
   47MOL   H19610408   5.193   4.562   0.118 -1.1348 -0.1231 -1.3461
   47MOL   H19710409   5.243   4.734   7.834 -2.0409 -1.6033 -0.9656
   47MOL   H19810410   5.168   4.886   7.832  4.7979  0.7899 -1.4830
   47MOL   H19910411   5.261   4.856   0.111 -0.1270 -0.3479 -0.2634
   47MOL   C20010412   5.104   4.578   0.309  0.6644  0.2023  0.2287
   47MOL   C20110413   5.212   4.661   0.387  0.3663 -0.1136  0.1501
   47MOL   C20210414   5.356   4.602   0.393 -0.0690 -0.3129 -0.1071
   47MOL   O20310415   5.379   4.489   0.434  0.2075  0.2473 -0.0246
   47MOL   C20410416   5.468   4.689   0.337  0.1895 -0.1539  0.0675
   47MOL   H20510417   5.005   4.606   0.346 -0.2430  0.5668 -2.3463
   47MOL   H20610418   5.123   4.473   0.327 -0.8569 -0.3553 -1.2285
   47MOL   H20710419   5.231   4.753   0.331 -0.8272 -0.1304 -0.2979
   47MOL   H20810420   5.489   4.668   0.232  1.9046 -0.0105  0.3680
   47MOL   H20910421   5.449   4.796   0.349  0.4436 -0.2077  1.0040
   47MOL   H21010422   5.561   4.674   0.391 -0.0101  1.1439  0.8135
   47MOL   C21110423   5.155   4.695   0.523 -0.0358  0.6344  0.1844
   47MOL   C21210424   5.108   4.586   0.616 -0.1247 -0.1462 -0.4682
   47MOL   C21310425   5.057   4.638   0.747 -0.2324 -0.0573 -0.6115
   47MOL   O21410426   5.092   4.739   0.802 -0.1569 -0.3314 -0.3288
   47MOL   C21510427   4.974   4.543   0.828  0.6506  0.2179 -0.5616
   47MOL   H21610428   5.238   4.739   0.579  1.5116  1.3151 -2.5695
   47MOL   H21710429   5.088   4.781   0.521  1.3452  1.7188 -1.3295
   47MOL   H21810430   5.183   4.506   0.626 -1.0015 -1.0087 -0.6926
   47MOL   H21910431   4.871   4.528   0.794 -0.8145  0.0013  3.6333
   47MOL   H22010432   5.017   4.444   0.811  2.9114  0.6772  2.0901
   47MOL   H22110433   4.967   4.574   0.933  0.3862  0.1795 -0.5662
   47MOL   H22210434   5.027   4.538   0.561 -1.2572  1.7686 -0.4770
   48MOL     C110435   6.038   2.534   0.641 -0.2192  0.0430 -0.4202
   48MOL     C210436   5.893   2.484   0.612  0.3483  0.7452  0.2588
   48MOL     C310437   5.796   2.604   0.631  0.1204 -0.3718  0.1842
   48MOL     O410438   5.840   2.716   0.620  0.0687 -0.1979  0.1710
   48MOL     C510439   5.648   2.583   0.654  0.2022  0.1426  0.6493
   48MOL     H610440   6.034   2.588   0.736 -2.3414 -0.6647 -0.0794
   48MOL     H710441   6.073   2.602   0.564  2.8550  1.6904  2.2842
   48MOL     H810442   5.869   2.412   0.691  1.6473 -0.3086 -0.2990
   48MOL     H910443   5.622   2.661   0.725  1.3066  1.3307 -0.2128
   48MOL    H1010444   5.599   2.605   0.559 -1.4916 -1.1129  1.2226
   48MOL    H1110445   5.618   2.483   0.685  0.6693 -0.6387 -1.3110
   48MOL    H1210446   6.107   2.450   0.650 -0.0742  0.0267 -1.5998
   48MOL    C1310447   5.890   2.412   0.470  0.1261  0.5288 -0.0097
   48MOL    C1410448   5.751   2.356   0.429  0.0571 -0.2973  0.7391
   48MOL    C1510449   5.704   2.256   0.533  0.2098 -0.1676  0.0445
   48MOL    O1610450   5.611   2.274   0.612 -0.0580 -0.0788  0.3244
   48MOL    C1710451   5.788   2.124   0.536  0.4882  0.5116  0.0567
   48MOL    H1810452   5.932   2.481   0.397 -1.0140  1.4079  0.1481
   48MOL    H1910453   5.966   2.336   0.485  1.2809  1.2625 -1.9792
   48MOL    H2010454   5.691   2.445   0.448 -1.1344 -0.9382  0.0562
   48MOL    H2110455   5.896   2.131   0.550  0.4063  1.5148  0.2246
   48MOL    H2210456   5.756   2.079   0.630  2.6143 -0.0811  0.5225
   48MOL    H2310457   5.761   2.059   0.453  0.6060 -0.2011  0.5671
   48MOL    C2410458   5.744   2.310   0.288  0.6620 -0.1883 -0.2656
   48MOL    C2510459   5.592   2.292   0.238 -0.2395  0.3000  0.2663
   48MOL    C2610460   5.540   2.440   0.199  1.1055  0.0830 -0.6455
   48MOL    O2710461   5.599   2.501   0.112  0.1986 -0.3809 -0.3730
   48MOL    C2810462   5.415   2.483   0.275  0.2487 -0.1163 -0.6794
   48MOL    H2910463   5.802   2.382   0.231  1.9770 -0.0294  1.2300
   48MOL    H3010464   5.810   2.223   0.282  1.8550  0.7443 -0.9309
   48MOL    H3110465   5.530   2.245   0.313 -1.1188 -1.5116 -1.5335
   48MOL    H3210466   5.426   2.587   0.306  0.1775 -0.1265 -0.6187
   48MOL    H3310467   5.328   2.469   0.211 -0.1245 -0.4734 -0.1001
   48MOL    H3410468   5.400   2.424   0.365 -0.9636  3.3441  1.4786
   48MOL    C3510469   5.585   2.202   0.109 -0.3122 -0.2932  0.2714
   48MOL    C3610470   5.448   2.157   0.053 -0.3254 -0.2038 -0.2527
   48MOL    C3710471   5.378   2.246   7.805 -0.2128  0.3766 -0.0528
   48MOL    O3810472   5.270   2.296   7.833 -0.0954 -0.0002 -0.0208
   48MOL    C3910473   5.443   2.262   7.673 -0.1203 -0.3828 -0.5595
   48MOL    H4010474   5.627   2.109   0.149  0.4442 -0.0061  0.1525
   48MOL    H4110475   5.650   2.235   0.028  1.4364 -0.2195  1.6575
   48MOL    H4210476   5.381   2.159   0.139  0.5861  1.9663  0.4429
   48MOL    H4310477   5.513   2.180   7.661  2.0549  1.0467  1.8107
   48MOL    H4410478   5.492   2.355   7.642  0.4940  0.0157  1.5287
   48MOL    H4510479   5.363   2.249   7.600 -1.2826 -0.0569  0.6395
   48MOL    C4610480   5.441   2.004   0.029  0.0447 -0.1616  0.2139
   48MOL    C4710481   5.295   1.947   0.024  0.2762  0.1328 -0.5216
   48MOL    C4810482   5.299   1.836   7.773 -0.4685  0.3331 -0.3269
   48MOL    O4910483   5.383   1.742   7.780 -0.0569  0.1361  0.4172
   48MOL    C5010484   5.217   1.861   7.645 -0.4889  0.4206  0.1723
   48MOL    H5110485   5.493   1.957   0.113 -1.1054  2.6954  2.6482
   48MOL    H5210486   5.494   1.983   7.794  0.2454  1.7788 -0.1180
   48MOL    H5310487   5.226   2.028   0.001  0.7224  0.8725  0.6953
   48MOL    H5410488   5.188   1.967   7.640 -0.6570  0.3370 -0.6645
   48MOL    H5510489   5.270   1.833   7.555 -0.2725  0.3322  0.3267
   48MOL    H5610490   5.120   1.811   7.649 -0.2987  0.0828  0.6152
   48MOL    C5710491   5.263   1.876   0.163  0.9345  0.1075 -0.1008
   48MOL    C5810492   5.116   1.829   0.169  0.0555 -0.4255  0.1581
   48MOL    C5910493   5.089   1.710   0.261 -0.2092  0.3637 -0.0536
   48MOL    O6010494   5.127   1.701   0.379 -0.0967 -0.3008  0.6482
   48MOL    C6110495   5.007   1.597   0.206 -0.1753  0.0916  0.3276
   48MOL    H6210496   5.290   1.946   0.242 -0.7492 -1.5184  1.9635
   48MOL    H6310497   5.324   1.789   0.185 -0.0570 -0.2998  1.0399
   48MOL    H6410498   5.072   1.804   0.073 -3.7235  0.5047  1.5689
   48MOL    H6510499   4.944   1.547   0.280 -1.1377 -0.0927 -0.6138
   48MOL    H6610500   4.936   1.634   0.133 -0.3861 -0.1533  0.4097
   48MOL    H6710501   5.069   1.521   0.158 -0.7129 -1.2280  1.6687
   48MOL    C6810502   5.033   1.950   0.213  0.5576 -0.0383  0.7106
   48MOL    C6910503   4.889   1.953   0.153 -0.4619  0.5734 -0.8821
   48MOL    C7010504   4.900   1.990   7.856  0.4382 -0.1658 -0.2252
   48MOL    O7110505   4.912   1.906   7.774 -0.4391 -0.3257 -0.6790
   48MOL    C7210506   4.905   2.138   7.810 -0.3716 -0.0876  0.2879
   48MOL    H7310507   5.026   1.960   0.321  0.9881 -2.6929  1.0161
   48MOL    H7410508   5.082   2.046   0.198  1.3276 -0.5729 -0.2865
   48MOL    H7510509   4.858   1.848   0.151  0.1331  0.3921 -0.9845
   48MOL    H7610510   4.950   2.213   0.018 -0.6781  0.8251 -0.5226
   48MOL    H7710511   4.960   2.141   7.716  0.5225  0.0719  0.8128
   48MOL    H7810512   4.804   2.175   7.793 -0.8224  0.4101  3.7063
   48MOL    C7910513   4.784   2.033   0.237 -0.2316  0.4109  0.0385
   48MOL    C8010514   4.722   1.967   0.363 -0.2917 -0.6622  0.5936
   48MOL    C8110515   4.625   1.850   0.329 -0.5111 -0.2609 -0.0590
   48MOL    O8210516   4.675   1.739   0.337 -0.2522 -0.5986 -0.5938
   48MOL    C8310517   4.491   1.887   0.285  0.0449  0.5089 -0.0040
   48MOL    H8410518   4.703   2.076   0.178  0.7648 -0.1081 -1.7534
   48MOL    H8510519   4.835   2.114   0.288  1.6779 -1.4465  1.1691
   48MOL    H8610520   4.807   1.924   0.416  1.5592 -1.2148 -2.6909
   48MOL    H8710521   4.444   1.955   0.356  0.4798 -0.2914  1.0441
   48MOL    H8810522   4.414   1.811   0.276  1.2070 -0.6124 -0.6966
   48MOL    H8910523   4.496   1.931   0.185 -0.5514  2.7387  0.9179
   48MOL    C9010524   4.670   2.072   0.464 -0.2316 -0.8148  0.9495
   48MOL    C9110525   4.638   2.010   0.609  0.3949 -0.4056  0.4445
   48MOL    C9210526   4.769   1.989   0.689 -0.4604 -0.1403 -0.4344
   48MOL    O9310527   4.798   2.067   0.781  0.2102 -0.0463 -0.2242
   48MOL    C9410528   4.852   1.856   0.679  1.1005 -0.0108  0.1268
   48MOL    H9510529   4.742   2.153   0.478 -1.4985  0.9058 -2.0954
   48MOL    H9610530   4.580   2.125   0.432  0.2755 -0.2839  0.3970
   48MOL    H9710531   4.592   1.913   0.589 -1.1157  0.4362 -0.2837
   48MOL    H9810532   4.783   1.772   0.696 -0.3876  1.1625 -0.0391
   48MOL    H9910533   4.904   1.842   0.585  2.5366 -1.5600  1.1158
   48MOL   H10010534   4.928   1.861   0.757  1.3460  0.1925 -0.1273
   48MOL   C10110535   4.530   2.102   0.672 -0.5010  0.3606  0.3895
   48MOL   C10210536   4.466   2.038   0.800  0.9048 -0.3991  0.3611
   48MOL   C10310537   4.373   1.917   0.757  0.4266  0.3151 -0.4868
   48MOL   O10410538   4.302   1.929   0.658 -0.0442 -0.1680  0.1851
   48MOL   C10510539   4.377   1.793   0.843  0.0709  0.2240 -0.5260
   48MOL   H10610540   4.575   2.193   0.711  0.7212 -0.5902  1.2563
   48MOL   H10710541   4.460   2.129   0.594  0.8609 -1.4603 -1.5288
   48MOL   H10810542   4.552   2.008   0.860  2.9647  3.9028 -0.2473
   48MOL   H10910543   4.378   1.812   0.950 -0.0578  0.2515 -0.5302
   48MOL   H11010544   4.288   1.732   0.829 -0.7470  0.6909  2.4160
   48MOL   H11110545   4.461   1.728   0.818  0.0772  0.0111  0.0407
   48MOL   C11210546   4.393   2.144   0.881 -0.3169  0.2934 -0.3929
   48MOL   C11310547   4.403   2.140   1.035 -0.0352  0.2129 -0.0715
   48MOL   C11410548   4.319   2.234   1.117 -0.9148 -0.3813  0.8319
   48MOL   O11510549   4.363   2.332   1.171  0.2514 -0.0197 -0.6125
   48MOL   C11610550   4.173   2.202   1.126  0.1397 -0.3053  0.0929
   48MOL   H11710551   4.292   2.155   0.843 -0.4438  0.5580  0.0190
   48MOL   H11810552   4.435   2.242   0.859  0.4675  0.0855  0.1497
   48MOL   H11910553   4.363   2.043   1.063  0.3956 -1.0603 -3.6044
   48MOL   H12010554   4.147   2.097   1.141 -1.5760 -0.1992 -1.7911
   48MOL   H12110555   4.134   2.245   1.218  1.5402 -0.7972  0.9310
   48MOL   H12210556   4.120   2.233   1.035  1.5481 -0.3317 -0.7527
   48MOL   C12310557   4.551   2.131   1.084 -0.0376 -0.5494  1.1126
   48MOL   C12410558   4.593   2.001   1.158  0.1651 -0.0985  0.0293
   48MOL   C12510559   4.519   1.989   1.291 -0.2645  0.1890  0.4040
   48MOL   O12610560   4.547   2.064   1.383 -0.0109 -0.0296 -0.0719
   48MOL   C12710561   4.426   1.869   1.304  1.2534  0.0930 -0.7338
   48MOL   H12810562   4.579   2.217   1.144 -0.3674 -0.2625  0.8613
   48MOL   H12910563   4.617   2.147   0.999 -0.4836 -1.0615  0.6687
   48MOL   H13010564   4.577   1.913   1.094 -0.2398 -1.7349  2.3147
   48MOL   H13110565   4.328   1.873   1.255 -1.4501  0.0349  4.2906
   48MOL   H13210566   4.406   1.838   1.407 -1.7862  0.3429 -1.1834
   48MOL   H13310567   4.479   1.785   1.260 -0.5135 -1.9351  0.8675
   48MOL   C13410568   4.742   2.024   1.174  0.3937 -0.2859  0.0262
   48MOL   C13510569   4.827   1.919   1.257 -0.0781 -0.6038  0.5323
   48MOL   C13610570   4.820   1.782   1.179  0.0646 -0.9637  1.2921
   48MOL   O13710571   4.811   1.672   1.235 -0.1218 -0.1329 -0.3322
   48MOL   C13810572   4.814   1.786   1.031 -1.1163  0.0849 -0.3841
   48MOL   H13910573   4.749   2.111   1.240 -0.3216 -1.1819  1.3031
   48MOL   H14010574   4.796   2.061   1.087  1.7820 -0.9240  0.6023
   48MOL   H14110575   4.787   1.918   1.359  2.8467  3.5660  1.8889
   48MOL   H14210576   4.713   1.797   0.992 -1.8233  0.8853  1.6315
   48MOL   H14310577   4.853   1.692   0.992  0.1729  0.7165 -0.6770
   48MOL   H14410578   4.876   1.869   0.995  2.5503 -1.3822  2.2302
   48MOL   C14510579   4.978   1.964   1.276 -0.5584  0.1655  0.0667
   48MOL   C14610580   5.061   1.910   1.391  0.8009 -0.5479 -0.4697
   48MOL   C14710581   4.989   1.930   1.527  0.6507 -0.6746 -0.1957
   48MOL   O14810582   4.928   1.835   1.580 -0.2772  0.6308  0.4241
   48MOL   C14910583   5.001   2.060   1.604  0.2437  0.2345  0.0519
   48MOL   H15010584   4.977   2.071   1.295  2.5783  0.0734  0.9045
   48MOL   H15110585   5.034   1.951   1.183  1.6891  0.7912  1.2956
   48MOL   H15210586   5.140   1.985   1.395 -1.3015  1.6748  0.3217
   48MOL   H15310587   4.907   2.082   1.655 -1.1004 -1.1450 -1.7701
   48MOL   H15410588   5.065   2.033   1.688  0.7031  1.5140  0.1291
   48MOL   H15510589   5.054   2.140   1.552  1.6901 -0.4117  0.5003
   48MOL   C15610590   5.107   1.763   1.366 -0.2358  0.0237  0.5042
   48MOL   C15710591   5.240   1.729   1.433 -0.1113 -0.0202  0.0615
   48MOL   C15810592   5.358   1.835   1.407 -0.0841 -0.2133  0.2431
   48MOL   O15910593   5.438   1.830   1.311 -0.8703 -0.2618  0.0476
   48MOL   C16010594   5.380   1.931   1.520  0.2538  0.2808  1.0305
   48MOL   H16110595   5.024   1.700   1.396  0.5763 -2.1525 -1.7058
   48MOL   H16210596   5.117   1.740   1.260 -0.0285  1.8534  0.1106
   48MOL   H16310597   5.209   1.740   1.537 -2.3176  2.4428 -0.7923
   48MOL   H16410598   5.345   1.893   1.616 -2.3652 -0.4913 -0.1706
   48MOL   H16510599   5.328   2.026   1.507  1.0197  0.4373 -1.0969
   48MOL   H16610600   5.485   1.953   1.539  0.0170  0.6305  1.9972
   48MOL   C16710601   5.280   1.581   1.417 -0.2858  0.6049 -0.1748
   48MOL   C16810602   5.171   1.480   1.458 -0.4529 -0.3386  0.0954
   48MOL   C16910603   5.120   1.497   1.600 -0.2176  0.0183 -0.1954
   48MOL   O17010604   5.199   1.505   1.694  0.4251 -0.4267 -0.1852
   48MOL   C17110605   4.974   1.517   1.618 -0.5899  0.2417  0.7608
   48MOL   H17210606   5.303   1.566   1.311 -0.3640 -0.7444 -0.0066
   48MOL   H17310607   5.375   1.560   1.465 -0.5682  1.3700  0.7251
   48MOL   H17410608   5.081   1.501   1.400 -0.9654 -0.6191  0.7758
   48MOL   H17510609   4.917   1.592   1.564  0.3058 -0.6569 -1.5105
   48MOL   H17610610   4.946   1.515   1.723 -2.3852 -0.0181  0.2936
   48MOL   H17710611   4.934   1.421   1.586  0.8675  0.4677 -1.8824
   48MOL   C17810612   5.201   1.333   1.432 -0.4410  0.6295  0.1712
   48MOL   C17910613   5.163   1.271   1.291  0.4637  0.0896 -0.1431
   48MOL   C18010614   5.013   1.288   1.247 -0.2369  0.2632 -0.4080
   48MOL   O18110615   4.923   1.252   1.327 -0.1353  0.2991 -0.1054
   48MOL   C18210616   4.983   1.364   1.116 -0.4687 -0.0834 -0.4741
   48MOL   H18310617   5.309   1.334   1.448 -0.3941  0.7608 -0.1644
   48MOL   H18410618   5.139   1.279   1.504  0.6330  2.4458  2.5134
   48MOL   H18510619   5.237   1.313   1.223 -0.6789 -1.0291 -2.1324
   48MOL   H18610620   4.890   1.327   1.072 -0.5714 -1.9338  1.2091
   48MOL   H18710621   5.062   1.349   1.044  2.3879  0.2231  2.4817
   48MOL   H18810622   4.983   1.468   1.148  2.9969 -1.0580  3.0988
   48MOL   C18910623   5.207   1.123   1.306 -0.6884 -0.3788  0.0333
   48MOL   C19010624   5.212   1.039   1.174 -0.6656  0.4089  0.2502
   48MOL   C19110625   5.324   1.096   1.080  0.1762  0.2323  0.1873
   48MOL   O19210626   5.440   1.118   1.113 -0.5861 -0.2579 -0.1966
   48MOL   C19310627   5.281   1.139   0.946 -0.0576 -0.2271 -0.1192
   48MOL   H19410628   5.306   1.120   1.352 -0.8942 -0.1641  0.5032
   48MOL   H19510629   5.143   1.072   1.377  1.5924 -0.3565  2.1854
   48MOL   H19610630   5.116   1.040   1.122 -0.9508  1.0543  0.7801
   48MOL   H19710631   5.360   1.200   0.901  0.9367 -0.3627  1.4088
   48MOL   H19810632   5.258   1.059   0.876 -1.5320  0.7158 -0.7457
   48MOL   H19910633   5.197   1.209   0.952  0.8772  0.7545  1.9388
   48MOL   C20010634   5.243   0.893   1.204  0.1559 -0.1681 -0.7021
   48MOL   C20110635   5.216   0.793   1.089 -0.7042 -0.2917  0.4859
   48MOL   C20210636   5.068   0.806   1.045  0.0927 -0.1006  0.0805
   48MOL   O20310637   4.977   0.851   1.114  0.5443 -0.0995 -0.6280
   48MOL   C20410638   5.039   0.769   0.906  0.8436  0.7090 -0.1352
   48MOL   H20510639   5.349   0.885   1.226  0.2976 -0.7020 -1.5565
   48MOL   H20610640   5.185   0.860   1.291 -0.9574 -0.1689 -1.4395
   48MOL   H20710641   5.270   0.823   0.999 -0.5472 -0.1341  0.6332
   48MOL   H20810642   5.114   0.817   0.843  1.3797 -0.3204 -0.2979
   48MOL   H20910643   5.030   0.664   0.876 -2.9502  0.9279 -0.1074
   48MOL   H21010644   4.941   0.812   0.886  1.2870  1.2713 -1.1032
   48MOL   C21110645   5.241   0.649   1.121  0.5584  0.4918 -0.1859
   48MOL   C21210646   5.189   0.600   1.254  0.0732 -0.5590 -0.5130
   48MOL   C21310647   5.221   0.460   1.301  0.3682 -0.1817  0.1904
   48MOL   O21410648   5.258   0.369   1.230  0.0328  0.2293 -0.0755
   48MOL   C21510649   5.206   0.427   1.443  0.4773 -0.3166  0.7215
   48MOL   H21610650   5.197   0.575   1.054 -0.4221  0.7032  0.2199
   48MOL   H21710651   5.347   0.624   1.123  0.6326  0.8388  0.2537
   48MOL   H21810652   5.080   0.600   1.261  0.1621  0.9188  1.2156
   48MOL   H21910653   5.131   0.489   1.493  0.1111 -1.8866  2.1554
   48MOL   H22010654   5.186   0.322   1.464 -2.9529 -0.3885 -2.3751
   48MOL   H22110655   5.296   0.450   1.499  0.4030 -1.8650  1.5045
   48MOL   H22210656   5.227   0.670   1.329 -0.5819 -0.5273 -0.2092
   49MOL     C110657   2.908   0.832   3.145 -0.3644 -0.6752  0.1676
   49MOL     C210658   2.912   0.718   3.037 -0.4266 -0.5219 -0.3653
   49MOL     C310659   2.877   0.788   2.901  0.2147  0.3962  0.1226
   49MOL     O410660   2.782   0.740   2.833  0.4041 -0.3566  0.0569
   49MOL     C510661   2.953   0.903   2.844  0.5962  0.1949 -0.3260
   49MOL     H610662   2.833   0.910   3.130  0.3337  0.1266  0.8219
   49MOL     H710663   3.005   0.880   3.152  0.2460 -2.1379  2.1091
   49MOL     H810664   2.832   0.649   3.062 -1.0262  0.0438 -0.6973
   49MOL     H910665   2.938   0.988   2.910 -0.4393  1.4163 -2.0727
   49MOL    H1010666   3.059   0.890   2.823  0.6935  0.7214 -0.1824
   49MOL    H1110667   2.907   0.932   2.749 -1.1104  0.9525  0.7140
   49MOL    H1210668   2.888   0.776   3.236  1.9555  2.0219  2.4197
   49MOL    C1310669   3.044   0.640   3.012  0.6737 -0.4182 -0.0435
   49MOL    C1410670   3.082   0.552   3.128  0.2186  0.0138 -0.8094
   49MOL    C1510671   3.234   0.510   3.126  0.4152 -0.8085  0.2112
   49MOL    O1610672   3.280   0.458   3.030  0.0852  0.4440  0.5199
   49MOL    C1710673   3.317   0.533   3.244  0.5101 -0.9648 -0.2032
   49MOL    H1810674   3.049   0.579   2.922 -1.5981  0.2180 -0.6354
   49MOL    H1910675   3.122   0.714   2.997  0.9566 -0.5062  0.9312
   49MOL    H2010676   3.059   0.602   3.222  2.1716  0.3433 -0.4949
   49MOL    H2110677   3.268   0.491   3.332 -1.3873  0.1510 -0.7098
   49MOL    H2210678   3.414   0.483   3.235  2.4958  2.6763  0.2513
   49MOL    H2310679   3.321   0.639   3.268  0.8062 -0.8445 -0.7675
   49MOL    C2410680   2.998   0.418   3.123  0.2726 -0.1741  0.2917
   49MOL    C2510681   3.015   0.315   3.234 -0.4884 -0.5992 -0.2381
   49MOL    C2610682   2.956   0.360   3.369  0.0024 -0.3707  0.0631
   49MOL    O2710683   3.028   0.368   3.467  0.9540  0.1794  0.5342
   49MOL    C2810684   2.811   0.406   3.380  0.2704  0.6645 -0.2706
   49MOL    H2910685   2.895   0.434   3.090  1.1779  2.1653 -1.4771
   49MOL    H3010686   3.051   0.375   3.038  0.5577  0.9802 -0.1215
   49MOL    H3110687   3.119   0.294   3.257  0.1370  0.7314 -1.7499
   49MOL    H3210688   2.807   0.503   3.331  1.3330  0.6802 -0.3229
   49MOL    H3310689   2.738   0.333   3.343  0.3838  0.6392 -0.4425
   49MOL    H3410690   2.786   0.422   3.485  1.2831 -3.6238  0.7183
   49MOL    C3510691   2.946   0.185   3.197 -0.5307 -0.5968 -0.4987
   49MOL    C3610692   3.010   0.106   3.082 -0.2096 -0.5142 -0.2141
   49MOL    C3710693   3.153   0.053   3.114  0.8433  1.3383 -0.5355
   49MOL    O3810694   3.168   7.802   3.172  0.5819  0.6280 -0.3024
   49MOL    C3910695   3.270   0.139   3.077  0.0976  0.0182  0.0055
   49MOL    H4010696   2.843   0.203   3.167 -0.2058  0.5766 -0.9448
   49MOL    H4110697   2.953   0.122   3.286  0.5957 -1.1557 -0.9809
   49MOL    H4210698   3.039   0.171   3.000 -0.1681  0.0580  0.2477
   49MOL    H4310699   3.255   0.186   2.980  0.4495 -2.3466 -1.2170
   49MOL    H4410700   3.366   0.088   3.069 -0.1463 -0.4169 -0.1350
   49MOL    H4510701   3.276   0.230   3.138  1.1869 -1.2231  1.8124
   49MOL    C4610702   2.923   7.848   3.038 -0.0278  0.2855  0.0416
   49MOL    C4710703   2.820   0.039   2.929  0.0324 -0.1016 -0.0697
   49MOL    C4810704   2.883   0.106   2.804  0.4663 -0.1915 -0.4151
   49MOL    O4910705   2.842   0.221   2.772  0.0847 -0.0971  0.5748
   49MOL    C5010706   2.989   0.041   2.722  0.5824 -0.0042  0.4163
   49MOL    H5110707   2.870   7.800   3.120 -0.3901  0.0242 -0.3428
   49MOL    H5210708   2.971   7.761   2.992 -0.5409 -0.3442  0.6690
   49MOL    H5310709   2.744   0.114   2.951 -0.0654 -0.2481  0.1025
   49MOL    H5410710   3.090   0.057   2.761  0.3322 -0.7134  1.3611
   49MOL    H5510711   2.971   7.791   2.714 -3.6609  0.7619 -2.1122
   49MOL    H5610712   2.981   0.080   2.620  2.2147 -2.9126 -0.9076
   49MOL    C5710713   2.726   7.785   2.888 -0.5153 -0.1575  0.1425
   49MOL    C5810714   2.611   7.754   2.987 -0.4363 -0.4561  0.4236
   49MOL    C5910715   2.530   0.019   3.027 -0.3556  0.2376 -0.0025
   49MOL    O6010716   2.463   0.083   2.947  0.0699  1.1973 -0.1540
   49MOL    C6110717   2.541   0.054   3.178 -0.1213  0.0945 -0.0144
   49MOL    H6210718   2.778   7.689   2.882  2.2223  1.2719  0.1502
   49MOL    H6310719   2.679   7.820   2.796  1.3294 -0.1093 -0.8125
   49MOL    H6410720   2.653   7.718   3.081 -2.1897 -1.7654  0.7274
   49MOL    H6510721   2.502   0.152   3.206  3.4528  2.6626 -3.4488
   49MOL    H6610722   2.511   7.832   3.246  2.1875 -0.9583 -0.1834
   49MOL    H6710723   2.649   0.063   3.192  0.3860 -2.1938 -2.1087
   49MOL    C6810724   2.514   7.651   2.927  0.1971  0.7178 -0.2465
   49MOL    C6910725   2.514   7.506   2.975 -0.2796  0.5586 -0.0796
   49MOL    C7010726   2.489   7.511   3.126  0.2833 -0.2612  0.3309
   49MOL    O7110727   2.579   7.479   3.204  0.6180 -0.4997  1.0115
   49MOL    C7210728   2.353   7.555   3.175  0.4290  0.3487 -0.1054
   49MOL    H7310729   2.412   7.684   2.945 -0.8507 -2.4081 -0.0959
   49MOL    H7410730   2.522   7.662   2.818  0.9896  0.5516 -0.2141
   49MOL    H7510731   2.431   7.459   2.922  1.0579  0.1795 -1.8999
   49MOL    H7610732   2.321   7.467   3.231 -0.6224  1.3980  0.9665
   49MOL    H7710733   2.347   7.634   3.250  1.9204 -1.0526  1.5285
   49MOL    H7810734   2.282   7.583   3.097  0.8129  0.3607 -0.4512
   49MOL    C7910735   2.637   7.419   2.937 -0.2569 -0.5264  0.6518
   49MOL    C8010736   2.663   7.388   2.785 -0.1653 -0.6775 -0.8800
   49MOL    C8110737   2.576   7.273   2.717  0.3132 -0.5005 -0.4055
   49MOL    O8210738   2.592   7.235   2.601  0.2752 -0.5165  0.2538
   49MOL    C8310739   2.472   7.206   2.800 -0.3917  0.5999 -0.1156
   49MOL    H8410740   2.643   7.326   2.993  0.6267 -0.1110  1.2469
   49MOL    H8510741   2.723   7.479   2.967  1.2956 -2.1400 -0.5088
   49MOL    H8610742   2.647   7.484   2.737  0.4119  0.3536  0.9604
   49MOL    H8710743   2.472   7.256   2.897 -3.5614 -1.1136  0.8441
   49MOL    H8810744   2.489   7.098   2.802  0.3997  0.7177 -0.4022
   49MOL    H8910745   2.371   7.224   2.764 -0.2190 -0.2322 -1.0152
   49MOL    C9010746   2.815   7.360   2.757  0.1487 -0.2737 -0.3122
   49MOL    C9110747   2.856   7.387   2.613 -0.3654  0.3696 -0.3901
   49MOL    C9210748   2.820   7.519   2.550 -0.0629  0.1405 -0.3711
   49MOL    O9310749   2.804   7.627   2.608  0.2681  0.7176  0.6799
   49MOL    C9410750   2.777   7.519   2.402 -0.4849 -0.6564  0.1151
   49MOL    H9510751   2.868   7.428   2.825  1.4637 -0.3971 -1.2021
   49MOL    H9610752   2.835   7.253   2.766  0.4686 -0.1917 -0.0530
   49MOL    H9710753   2.805   7.314   2.550  3.4366 -1.1091 -1.9011
   49MOL    H9810754   2.811   7.429   2.350  1.3703 -0.8587  1.6383
   49MOL    H9910755   2.669   7.530   2.390 -0.4251  0.3584  0.4847
   49MOL   H10010756   2.833   7.600   2.357  0.4318 -0.8996  0.7853
   49MOL   C10110757   3.006   7.366   2.594 -0.5222 -0.1846 -1.1015
   49MOL   C10210758   3.051   7.329   2.445  0.1946  0.5459  0.0194
   49MOL   C10310759   2.975   7.210   2.395 -0.7372 -0.3038  0.9827
   49MOL   O10410760   2.932   7.214   2.280 -0.0357  0.0532  0.4405
   49MOL   C10510761   2.951   7.093   2.492  0.4062  0.9203  0.0242
   49MOL   H10610762   3.052   7.452   2.643  0.7192 -1.3701 -0.1177
   49MOL   H10710763   3.039   7.285   2.660 -2.5641  1.1695  1.6663
   49MOL   H10810764   3.043   7.405   2.368 -0.3493  0.0892 -0.3780
   49MOL   H10910765   3.028   7.096   2.569 -0.8772 -0.9009  1.4242
   49MOL   H11010766   2.858   7.074   2.546  0.7598 -0.4905  0.1606
   49MOL   H11110767   2.985   7.005   2.437 -0.4798  0.8858 -0.4873
   49MOL   C11210768   3.206   7.297   2.431 -0.0459  0.4584  0.1502
   49MOL   C11310769   3.301   7.407   2.482 -0.3353  0.0928  0.0251
   49MOL   C11410770   3.267   7.535   2.405 -0.0591 -0.2403  0.0545
   49MOL   O11510771   3.285   7.539   2.283 -0.2704 -0.7393  0.4502
   49MOL   C11610772   3.205   7.646   2.482  0.3128  0.0515 -0.5544
   49MOL   H11710773   3.245   7.279   2.331  0.0591 -0.9168  0.4287
   49MOL   H11810774   3.224   7.200   2.477 -0.5545  0.8245  1.1355
   49MOL   H11910775   3.284   7.426   2.588  0.2979 -0.6664  0.2696
   49MOL   H12010776   3.181   7.736   2.424  0.6252 -1.3144 -2.8415
   49MOL   H12110777   3.119   7.618   2.543 -0.4576  2.6035 -0.4050
   49MOL   H12210778   3.275   7.691   2.552 -2.7644 -1.2665  3.5377
   49MOL   C12310779   3.451   7.361   2.481  0.1569 -0.7302  0.0610
   49MOL   C12410780   3.535   7.449   2.574 -0.4243 -0.5143  0.6686
   49MOL   C12510781   3.686   7.454   2.545  0.3531  0.2715 -0.2998
   49MOL   O12610782   3.734   7.560   2.522  0.1771  0.0426 -0.3312
   49MOL   C12710783   3.756   7.322   2.522 -0.3978  0.0393 -0.2769
   49MOL   H12810784   3.486   7.378   2.379 -0.6809 -2.0789 -0.4610
   49MOL   H12910785   3.465   7.255   2.502 -1.3886 -1.2706 -1.5200
   49MOL   H13010786   3.511   7.554   2.556  0.8433 -0.3174  0.0453
   49MOL   H13110787   3.863   7.314   2.541 -0.5063 -2.3429 -0.4732
   49MOL   H13210788   3.740   7.291   2.418  0.5234 -2.0213  0.1520
   49MOL   H13310789   3.712   7.246   2.587 -0.0592  1.1944  1.3349
   49MOL   C13410790   3.514   7.421   2.725  0.3075  0.2502 -0.5559
   49MOL   C13510791   3.526   7.548   2.802  0.1151 -0.3005 -0.1063
   49MOL   C13610792   3.400   7.643   2.791  0.2502  0.1124  0.2557
   49MOL   O13710793   3.283   7.601   2.798 -0.0443  0.2804  0.1710
   49MOL   C13810794   3.428   7.793   2.796 -1.2920 -0.0274 -0.1300
   49MOL   H13910795   3.584   7.346   2.765  0.2376  1.5156  2.0495
   49MOL   H14010796   3.417   7.378   2.748 -0.4393  1.9931 -0.4454
   49MOL   H14110797   3.619   7.599   2.773  0.3049  0.4543  1.7969
   49MOL   H14210798   3.389   7.853   2.878 -2.3339 -0.9750  0.0754
   49MOL   H14310799   3.384   7.830   2.703  1.0861  0.3574 -1.1579
   49MOL   H14410800   3.533   7.806   2.769 -1.5705  0.7015 -0.8876
   49MOL   C14510801   3.545   7.519   2.956  0.2335 -0.2790 -0.2253
   49MOL   C14610802   3.684   7.480   2.996  0.5616  0.4714  0.6874
   49MOL   C14710803   3.726   7.564   3.115 -0.5990 -0.5672 -0.0180
   49MOL   O14810804   3.730   7.524   3.231 -0.1581  0.1680 -0.0994
   49MOL   C14910805   3.768   7.709   3.085 -0.0460 -0.2681 -0.3873
   49MOL   H15010806   3.478   7.438   2.986 -0.6516  0.2362 -0.8034
   49MOL   H15110807   3.507   7.600   3.018 -0.9224 -0.1860 -1.0427
   49MOL   H15210808   3.753   7.504   2.915  1.4377 -0.8408  1.0374
   49MOL   H15310809   3.858   7.699   3.025  0.8981  1.1650  0.7603
   49MOL   H15410810   3.690   7.769   3.038 -0.4390 -1.5777 -1.4540
   49MOL   H15510811   3.790   7.747   3.185  1.3751 -0.3145 -0.6788
   49MOL   C15610812   3.704   7.328   3.026 -0.2601  0.5179 -0.5782
   49MOL   C15710813   3.854   7.295   3.018 -0.4178 -0.3459 -0.4891
   49MOL   C15810814   3.893   7.252   2.875  0.3915 -0.4177  0.3016
   49MOL   O15910815   3.829   7.158   2.826 -0.1996  0.0042  0.2309
   49MOL   C16010816   4.014   7.313   2.812  0.4208  0.1988 -0.5697
   49MOL   H16110817   3.663   7.298   3.123  0.4789 -0.1186 -0.4513
   49MOL   H16210818   3.648   7.270   2.952  1.2774  1.7840 -2.7971
   49MOL   H16310819   3.916   7.374   3.060 -0.0247 -1.3412  0.8435
   49MOL   H16410820   3.991   7.415   2.781  1.0292  0.7429  0.7690
   49MOL   H16510821   4.033   7.248   2.727 -1.3712 -0.7449 -0.2612
   49MOL   H16610822   4.106   7.318   2.869 -0.9830  0.4189  1.7398
   49MOL   C16710823   3.882   7.187   3.134  0.3234 -0.2211  0.2207
   49MOL   C16810824   3.888   7.240   3.281  0.2368 -0.0728 -0.4865
   49MOL   C16910825   4.004   7.343   3.307  0.1050  0.1512 -0.0184
   49MOL   O17010826   4.096   7.365   3.228  0.3459  0.0001 -0.3394
   49MOL   C17110827   4.007   7.429   3.437 -0.4799 -0.3392 -0.8151
   49MOL   H17210828   3.799   7.116   3.127 -0.8655  1.0056  1.5088
   49MOL   H17310829   3.962   7.117   3.111  0.0843 -1.1496  2.0402
   49MOL   H17410830   3.803   7.296   3.321 -0.3168 -0.9162 -0.4438
   49MOL   H17510831   4.110   7.421   3.472 -0.1252  0.3395 -1.6705
   49MOL   H17610832   3.936   7.404   3.515  2.1923  0.2764  1.8970
   49MOL   H17710833   3.973   7.528   3.405 -0.5034 -0.2443 -0.5022
   49MOL   C17810834   3.896   7.113   3.377 -0.3288 -0.0611  0.8693
   49MOL   C17910835   3.753   7.040   3.398 -1.2067 -0.3613 -0.0161
   49MOL   C18010836   3.660   7.140   3.469 -0.9038  0.6900  0.0196
   49MOL   O18110837   3.674   7.169   3.585  0.7330  0.1486 -0.0413
   49MOL   C18210838   3.540   7.180   3.386  0.4004  0.3114  0.1654
   49MOL   H18310839   3.974   7.050   3.332  0.6799  1.6936  0.1142
   49MOL   H18410840   3.931   7.142   3.475 -3.2653  0.0686  1.9104
   49MOL   H18510841   3.708   7.020   3.301 -0.1870  1.5641 -0.9184
   49MOL   H18610842   3.492   7.085   3.363  0.6367  0.2614 -0.1197
   49MOL   H18710843   3.559   7.222   3.287  3.0974 -0.7697  0.2007
   49MOL   H18810844   3.473   7.237   3.451 -0.6058 -1.2456  0.5127
   49MOL   C18910845   3.769   6.908   3.466  0.4994 -0.3513 -0.1468
   49MOL   C19010846   3.645   6.822   3.473 -0.0681  0.1765 -0.5699
   49MOL   C19110847   3.623   6.745   3.341  0.2635  0.1357  0.3230
   49MOL   O19210848   3.524   6.770   3.271  0.3570 -0.4226 -0.3212
   49MOL   C19310849   3.720   6.640   3.303  0.1305 -1.0493 -0.7866
   49MOL   H19410850   3.857   6.863   3.420  2.0579  2.7356 -0.2725
   49MOL   H19510851   3.796   6.926   3.570  1.3735  1.0581 -0.6119
   49MOL   H19610852   3.570   6.902   3.470 -0.5487 -0.2330  0.2594
   49MOL   H19710853   3.713   6.558   3.374 -0.9722 -1.3388 -1.2332
   49MOL   H19810854   3.677   6.610   3.207  1.9488 -1.0027 -1.6525
   49MOL   H19910855   3.826   6.661   3.287 -0.2862  2.8842  1.0496
   49MOL   C20010856   3.628   6.729   3.595  0.2346 -0.7659 -0.2337
   49MOL   C20110857   3.494   6.655   3.603  0.4586 -0.6353 -0.6406
   49MOL   C20210858   3.375   6.750   3.566  0.1697 -1.0638  0.7055
   49MOL   O20310859   3.367   6.865   3.608 -0.1653  0.7720  0.2509
   49MOL   C20410860   3.262   6.696   3.480 -0.2726  0.4775  0.2657
   49MOL   H20510861   3.709   6.656   3.596 -0.6832 -1.7855  1.3882
   49MOL   H20610862   3.647   6.802   3.674 -1.1501 -0.9248  0.2583
   49MOL   H20710863   3.509   6.585   3.521  1.0651  0.0419 -1.1061
   49MOL   H20810864   3.287   6.597   3.442 -1.2773  1.0449 -1.9638
   49MOL   H20910865   3.167   6.680   3.530 -1.1264  0.4606 -1.3042
   49MOL   H21010866   3.256   6.762   3.393  2.7385 -1.2236 -1.3364
   49MOL   C21110867   3.474   6.565   3.729  0.3606 -0.1529  0.3347
   49MOL   C21210868   3.376   6.452   3.695  0.0938 -0.2927 -0.0430
   49MOL   C21310869   3.400   6.353   3.587 -0.2468 -0.1207  0.3245
   49MOL   O21410870   3.502   6.355   3.524  0.3301 -0.8049  0.5486
   49MOL   C21510871   3.282   6.287   3.532  0.5144 -0.1865 -0.4298
   49MOL   H21610872   3.566   6.511   3.751 -0.4041 -1.7357 -0.2935
   49MOL   H21710873   3.434   6.608   3.821 -1.0946  1.4995 -1.0471
   49MOL   H21810874   3.284   6.496   3.658 -0.7526 -0.3042  1.9823
   49MOL   H21910875   3.195   6.348   3.553  0.7205 -0.1949  0.4618
   49MOL   H22010876   3.299   6.276   3.425  0.9427  0.1733 -0.4001
   49MOL   H22110877   3.266   6.191   3.582 -0.4851 -1.6403 -3.4525
   49MOL   H22210878   3.344   6.408   3.790  1.3175 -2.1171 -0.4613
   50MOL     C110879   5.346   6.871   1.050 -0.4579 -0.2086 -0.2545
   50MOL     C210880   5.355   6.849   0.900 -0.3091  0.9723  0.1200
   50MOL     C310881   5.302   6.961   0.815  0.2346 -0.0217 -0.0422
   50MOL     O410882   5.371   7.054   0.791  0.1188 -1.1041 -0.1501
   50MOL     C510883   5.152   6.971   0.773  0.7601 -0.0526  0.2762
   50MOL     H610884   5.377   6.782   1.104  2.0038  1.7285  1.6164
   50MOL     H710885   5.249   6.889   1.097  0.0666  1.4487  0.2305
   50MOL     H810886   5.295   6.760   0.880  1.2979  0.0408 -0.6512
   50MOL     H910887   5.120   6.896   0.702 -0.6539  0.4836  0.3464
   50MOL    H1010888   5.095   6.954   0.865 -0.5303  1.5834 -0.2060
   50MOL    H1110889   5.151   7.070   0.728  0.2051 -0.0457  0.3048
   50MOL    H1210890   5.409   6.955   1.079 -1.7632  0.3034  1.1818
   50MOL    C1310891   5.493   6.809   0.853  0.1128  0.3555 -0.6606
   50MOL    C1410892   5.516   6.767   0.699  0.4954  0.0689 -0.0544
   50MOL    C1510893   5.440   6.641   0.661  0.3228  0.3105  0.7604
   50MOL    O1610894   5.383   6.559   0.738 -0.1301  0.0688  0.4314
   50MOL    C1710895   5.440   6.610   0.510 -0.2728  0.6847  0.0956
   50MOL    H1810896   5.551   6.898   0.877 -0.0030 -0.1196  1.5667
   50MOL    H1910897   5.539   6.731   0.915 -0.1989  1.0661  0.4948
   50MOL    H2010898   5.469   6.842   0.635  1.0100  0.1697 -0.3176
   50MOL    H2110899   5.361   6.537   0.493 -1.2495  1.7081  0.1453
   50MOL    H2210900   5.427   6.704   0.457 -1.5190  0.9778  0.8973
   50MOL    H2310901   5.536   6.568   0.480  0.1522  0.0896  2.2077
   50MOL    C2410902   5.666   6.743   0.663 -0.5783  0.4106  0.1142
   50MOL    C2510903   5.742   6.863   0.602 -0.0116  0.8726  0.4039
   50MOL    C2610904   5.898   6.853   0.604 -0.3925 -0.0143  0.8472
   50MOL    O2710905   5.948   6.751   0.541  0.7350 -0.3566 -0.0859
   50MOL    C2810906   5.981   6.976   0.647  0.1158 -0.2893 -0.1102
   50MOL    H2910907   5.728   6.706   0.745  1.6233 -0.1385 -1.7609
   50MOL    H3010908   5.671   6.674   0.580 -0.9680 -0.7802  1.0637
   50MOL    H3110909   5.719   6.946   0.670  1.7945  1.0098  0.8749
   50MOL    H3210910   6.001   7.020   0.549 -0.3710 -1.3081 -0.6699
   50MOL    H3310911   5.927   7.043   0.714  2.5627 -0.2935  1.9432
   50MOL    H3410912   6.075   6.948   0.696  0.2923  1.4445  0.6093
   50MOL    C3510913   5.681   6.913   0.466  0.1443  0.5909 -0.1310
   50MOL    C3610914   5.599   7.055   0.477  0.4223  0.5110 -0.6581
   50MOL    C3710915   5.681   7.167   0.535 -0.0373 -0.3222  0.2763
   50MOL    O3810916   5.800   7.179   0.509 -0.1262  0.0942  0.1642
   50MOL    C3910917   5.603   7.256   0.628  0.3999 -0.4874  0.1843
   50MOL    H4010918   5.605   6.843   0.432 -0.5573  0.5982  1.3944
   50MOL    H4110919   5.754   6.925   0.386 -1.1721  0.3154 -1.3843
   50MOL    H4210920   5.522   7.024   0.548  0.5492 -0.4869 -0.9364
   50MOL    H4310921   5.545   7.331   0.575  0.1777  1.4231  3.0541
   50MOL    H4410922   5.665   7.292   0.710 -0.0286  1.2708 -0.2417
   50MOL    H4510923   5.535   7.198   0.691 -1.0490  1.5534  0.5522
   50MOL    C4610924   5.537   7.096   0.341  0.1318 -0.1905  0.4051
   50MOL    C4710925   5.410   7.020   0.288  0.2601 -0.2799 -0.1277
   50MOL    C4810926   5.302   7.032   0.400 -0.1323  0.7275  0.4411
   50MOL    O4910927   5.278   6.940   0.475 -0.0584 -0.1751  0.7031
   50MOL    C5010928   5.249   7.167   0.437 -0.1610 -0.3530  0.1860
   50MOL    H5110929   5.630   7.087   0.284 -0.5671 -2.4068 -0.4287
   50MOL    H5210930   5.517   7.203   0.339 -0.0241 -0.2343 -1.2585
   50MOL    H5310931   5.441   6.916   0.280  1.4049  0.0638 -0.1567
   50MOL    H5410932   5.247   7.234   0.351  0.8705  0.6448  0.9177
   50MOL    H5510933   5.144   7.165   0.465 -0.4186 -0.1366 -0.7384
   50MOL    H5610934   5.310   7.216   0.514  0.9770 -1.4269 -0.0265
   50MOL    C5710935   5.368   7.071   0.152 -0.3156  0.0899 -0.7894
   50MOL    C5810936   5.278   6.963   0.083 -0.1498  0.0313 -0.0007
   50MOL    C5910937   5.193   7.038   7.836 -0.1041 -0.3438 -0.1427
   50MOL    O6010938   5.246   7.106   7.751  0.2190  0.2093  0.7309
   50MOL    C6110939   5.039   7.036   7.845 -0.6066 -0.2130  0.2398
   50MOL    H6210940   5.454   7.086   0.087  1.3315 -2.1681  0.7528
   50MOL    H6310941   5.318   7.166   0.166  0.8719  0.9891 -2.5136
   50MOL    H6410942   5.211   6.926   0.161 -2.0411  0.2040 -1.4819
   50MOL    H6510943   5.003   7.101   0.067 -0.1291 -0.7780  0.9265
   50MOL    H6610944   4.991   7.067   7.753 -2.1700  0.1007  1.1460
   50MOL    H6710945   5.003   6.935   0.009  2.1822 -1.5472 -1.1966
   50MOL    C6810946   5.356   6.836   0.031  0.2234 -0.1125 -0.2241
   50MOL    C6910947   5.263   6.734   7.832 -0.4342  0.0335  0.0470
   50MOL    C7010948   5.176   6.674   0.085  0.3935  0.0853  0.5375
   50MOL    O7110949   5.210   6.679   0.201 -0.2214  0.2648  0.2459
   50MOL    C7210950   5.024   6.636   0.050 -0.5077 -0.0042 -0.2362
   50MOL    H7310951   5.421   6.872   7.809  1.4832 -0.0374  0.8163
   50MOL    H7410952   5.427   6.801   0.106 -0.4543 -0.2721  0.3404
   50MOL    H7510953   5.201   6.774   7.753 -0.4365  1.5990  0.8178
   50MOL    H7610954   4.986   6.573   0.131  1.2820 -0.2696  0.4137
   50MOL    H7710955   4.964   6.727   0.044  1.1133  0.9779 -2.6046
   50MOL    H7810956   5.009   6.575   7.819  1.6739 -0.6836 -0.1630
   50MOL    C7910957   5.349   6.620   7.769  0.6900  0.4197 -0.5912
   50MOL    C8010958   5.440   6.634   7.644  0.1836 -0.2836  0.2414
   50MOL    C8110959   5.351   6.709   7.546 -0.3043 -0.1601 -0.1847
   50MOL    O8210960   5.266   6.654   7.484 -0.3085 -0.0942 -0.4891
   50MOL    C8310961   5.401   6.846   7.516  0.2977  0.3823  0.4862
   50MOL    H8410962   5.278   6.545   7.735  0.4733  0.2193  0.3156
   50MOL    H8510963   5.410   6.565   7.841 -1.9329 -0.9941  0.6168
   50MOL    H8610964   5.530   6.688   7.673  0.0503  0.3005 -0.4255
   50MOL    H8710965   5.489   6.839   7.452 -0.8539  0.2677 -1.1243
   50MOL    H8810966   5.434   6.908   7.599  3.0400  0.0647 -0.3215
   50MOL    H8910967   5.337   6.904   7.449 -0.6886  1.1178  2.0346
   50MOL    C9010968   5.502   6.496   7.594 -0.3869 -0.0838 -0.0989
   50MOL    C9110969   5.566   6.501   7.455 -0.1797 -0.7764  0.0320
   50MOL    C9210970   5.703   6.562   7.439  0.2104 -0.9462  0.4750
   50MOL    O9310971   5.791   6.551   7.521  0.9644 -0.2195  0.0064
   50MOL    C9410972   5.718   6.662   7.330  0.3539 -0.1895  0.6329
   50MOL    H9510973   5.565   6.452   7.671 -0.7392 -3.1523 -1.5150
   50MOL    H9610974   5.418   6.427   7.589 -1.3402  1.0446  0.1791
   50MOL    H9710975   5.498   6.564   7.396 -3.4575 -0.7872  3.5979
   50MOL    H9810976   5.762   6.758   7.357 -0.1177  0.2266 -0.0747
   50MOL    H9910977   5.771   6.614   7.248 -0.9179 -2.2980  1.0147
   50MOL   H10010978   5.619   6.680   7.287 -0.3435 -1.9117  1.4698
   50MOL   C10110979   5.573   6.355   7.397 -0.8171  0.9804 -0.7917
   50MOL   C10210980   5.445   6.301   7.324 -0.7076 -0.3456  0.5161
   50MOL   C10310981   5.462   6.151   7.299  0.6844 -0.8463  0.2294
   50MOL   O10410982   5.517   6.099   7.212  0.3378 -0.3936  0.1197
   50MOL   C10510983   5.423   6.054   7.409  0.1866 -0.3721 -0.1055
   50MOL   H10610984   5.653   6.336   7.326  2.1769  0.6175  2.5660
   50MOL   H10710985   5.606   6.289   7.477  0.8132  1.3646 -1.1275
   50MOL   H10810986   5.355   6.314   7.385  0.7253 -0.5956  2.7171
   50MOL   H10910987   5.449   6.100   7.504  1.0664 -0.6210 -0.2247
   50MOL   H11010988   5.318   6.024   7.401  0.7520 -2.1783 -1.1603
   50MOL   H11110989   5.482   5.962   7.412  0.7861  0.0493  1.4515
   50MOL   C11210990   5.424   6.382   7.197 -0.4253 -0.4244 -0.0614
   50MOL   C11310991   5.281   6.434   7.176  0.4434  0.4290  1.0473
   50MOL   C11410992   5.173   6.326   7.200 -0.1309  0.4925  0.3279
   50MOL   O11510993   5.166   6.219   7.139 -0.0354  0.2795  0.7069
   50MOL   C11610994   5.065   6.349   7.298  0.1674 -0.8004  0.2739
   50MOL   H11710995   5.454   6.328   7.107  1.7279  1.0607 -0.2664
   50MOL   H11810996   5.497   6.461   7.180 -0.1651 -1.0671 -2.0874
   50MOL   H11910997   5.258   6.511   7.249 -2.8138  0.5641 -0.0579
   50MOL   H12010998   4.975   6.397   7.259  0.8635 -0.0367 -0.4346
   50MOL   H12110999   5.025   6.254   7.333  1.0768 -2.5092 -3.0843
   50MOL   H12211000   5.101   6.405   7.384  0.7182  2.1653 -1.7899
   50MOL   C12311001   5.267   6.500   7.037 -0.0628  0.6181 -0.7305
   50MOL   C12411002   5.138   6.596   7.019 -0.0989  0.0029 -0.1758
   50MOL   C12511003   5.058   6.562   6.898  0.3044  0.4046 -0.3188
   50MOL   O12611004   5.074   6.618   6.787  0.1921 -0.4317  0.1014
   50MOL   C12711005   4.970   6.439   6.916  0.3130 -0.0700 -0.7260
   50MOL   H12811006   5.265   6.426   6.957  2.7959 -0.9349  0.5698
   50MOL   H12911007   5.355   6.564   7.027  0.2584  0.3535  0.4003
   50MOL   H13011008   5.071   6.587   7.105 -0.8545  2.4770 -0.4574
   50MOL   H13111009   4.901   6.452   7.000  0.6113  0.7659 -0.6065
   50MOL   H13211010   5.034   6.352   6.935 -0.7866 -0.8068 -0.3129
   50MOL   H13311011   4.919   6.432   6.820 -0.4634 -0.0923 -0.3151
   50MOL   C13411012   5.184   6.746   7.022 -0.7027  0.2510 -0.0271
   50MOL   C13511013   5.089   6.841   7.091 -1.0667  0.7207  1.2174
   50MOL   C13611014   4.943   6.826   7.041 -0.4237 -0.2253  1.3648
   50MOL   O13711015   4.869   6.741   7.085  0.8741 -0.0085 -0.2024
   50MOL   C13811016   4.905   6.918   6.929  0.4268 -0.5858 -0.1063
   50MOL   H13911017   5.228   6.780   6.928 -0.1101 -1.7029 -0.4772
   50MOL   H14011018   5.260   6.750   7.100 -2.7205  0.0078  1.9745
   50MOL   H14111019   5.121   6.944   7.075  1.1605 -0.1861 -0.4330
   50MOL   H14211020   4.918   7.022   6.959 -1.0864 -0.2334 -0.6262
   50MOL   H14311021   4.801   6.896   6.904  0.3156 -2.2546  1.7090
   50MOL   H14411022   4.964   6.884   6.844 -1.4610  0.2903 -1.8001
   50MOL   C14511023   5.108   6.816   7.244 -0.7102  0.0695  0.1171
   50MOL   C14611024   5.005   6.894   7.329 -0.2390  0.1048 -0.0853
   50MOL   C14711025   4.994   6.822   7.464 -0.6513 -0.0949 -0.0687
   50MOL   O14811026   5.044   6.860   7.566 -0.6258 -0.2571 -0.1001
   50MOL   C14911027   4.907   6.690   7.464  0.2473 -0.3473  0.0675
   50MOL   H15011028   5.210   6.845   7.268 -0.7512  1.4556 -1.2846
   50MOL   H15111029   5.102   6.711   7.273 -1.4952 -0.0143 -0.3286
   50MOL   H15211030   4.903   6.896   7.292 -0.6760 -1.3996  0.9572
   50MOL   H15311031   4.807   6.691   7.508  1.4229 -1.2798  2.9363
   50MOL   H15411032   4.885   6.636   7.373  0.7898 -0.0570 -0.2378
   50MOL   H15511033   4.958   6.612   7.521 -0.3066 -0.8581 -0.1368
   50MOL   C15611034   5.059   7.039   7.345 -0.1994 -0.1036  0.5580
   50MOL   C15711035   4.949   7.139   7.394  0.3312  0.4958 -0.5027
   50MOL   C15811036   4.861   7.184   7.278  0.0933  0.2562 -0.4111
   50MOL   O15911037   4.897   7.167   7.164  1.1253 -0.1776  0.3034
   50MOL   C16011038   4.723   7.248   7.301  0.3906 -0.2210  0.3641
   50MOL   H16111039   5.134   7.043   7.424 -1.1073  0.2624  1.4234
   50MOL   H16211040   5.092   7.076   7.248  0.4997 -1.8020  0.1358
   50MOL   H16311041   4.884   7.080   7.459  1.0433  0.0081 -0.2282
   50MOL   H16411042   4.656   7.172   7.343  1.7763 -1.5644  0.2023
   50MOL   H16511043   4.694   7.262   7.197  2.8884 -1.9311 -0.6290
   50MOL   H16611044   4.711   7.341   7.356  0.0776 -0.2282  0.3058
   50MOL   C16711045   5.006   7.245   7.485  0.7710 -0.0692 -0.5280
   50MOL   C16811046   5.116   7.337   7.427  0.6299 -0.4098  0.0628
   50MOL   C16911047   5.223   7.383   7.530  0.2032  0.0754 -0.4156
   50MOL   O17011048   5.195   7.440   7.634 -0.0521  0.2885  0.8428
   50MOL   C17111049   5.371   7.344   7.522 -0.1612 -0.8705  0.4302
   50MOL   H17211050   4.926   7.313   7.514  1.0861  0.2760 -0.4628
   50MOL   H17311051   5.036   7.207   7.583 -2.7087 -0.2485  0.5280
   50MOL   H17411052   5.165   7.277   7.350  1.0375 -0.5156  0.4050
   50MOL   H17511053   5.385   7.241   7.489  2.9700 -0.1623 -0.6606
   50MOL   H17611054   5.420   7.351   7.619 -2.5465  0.1164  1.6106
   50MOL   H17711055   5.421   7.407   7.448 -1.4136 -0.6232 -0.2249
   50MOL   C17811056   5.054   7.463   7.365 -0.1653  0.8794  0.0779
   50MOL   C17911057   5.144   7.517   7.253  0.2604  0.0997 -0.2954
   50MOL   C18011058   5.167   7.668   7.275 -0.3281 -0.0205 -0.4099
   50MOL   O18111059   5.101   7.753   7.224  0.4667  0.3246 -0.3114
   50MOL   C18211060   5.264   7.703   7.382  0.1180  0.8830  0.5056
   50MOL   H18311061   4.950   7.461   7.334 -0.5376  2.1843  1.1817
   50MOL   H18411062   5.032   7.540   7.439  2.5450  1.3436  0.4495
   50MOL   H18511063   5.240   7.466   7.252  0.3534  0.2504  0.5086
   50MOL   H18611064   5.360   7.657   7.356 -0.4052 -1.5191  2.6113
   50MOL   H18711065   5.238   7.658   7.478 -0.0342  0.5140  0.2931
   50MOL   H18811066   5.290   7.803   7.414  0.9630  0.6911  0.4397
   50MOL   C18911067   5.089   7.468   7.114  1.1764 -0.7659  0.2872
   50MOL   C19011068   5.192   7.430   7.002 -0.1006 -0.1327  0.1576
   50MOL   C19111069   5.285   7.544   6.963 -0.6780  0.5937 -0.0252
   50MOL   O19211070   5.394   7.561   7.013 -0.0886 -0.1850 -0.3144
   50MOL   C19311071   5.236   7.650   6.866 -0.2099  0.1538  0.3997
   50MOL   H19411072   5.022   7.384   7.132 -1.4320  1.1469 -0.1469
   50MOL   H19511073   5.022   7.544   7.073  1.1078 -1.5803 -1.1439
   50MOL   H19611074   5.125   7.421   6.916  0.7161  0.6113 -0.5613
   50MOL   H19711075   5.140   7.690   6.900  0.0028  0.8642  0.1645
   50MOL   H19811076   5.293   7.741   6.884 -0.4823 -0.0370  2.4088
   50MOL   H19911077   5.218   7.621   6.763 -3.1227  0.4545  0.7693
   50MOL   C20011078   5.254   7.287   7.032 -0.5178 -0.0652 -0.3415
   50MOL   C20111079   5.357   7.225   6.937  0.7063 -0.6503 -0.3291
   50MOL   C20211080   5.296   7.199   6.797  0.3865 -0.4023  0.9749
   50MOL   O20311081   5.176   7.164   6.794 -0.2835  0.0029 -0.2409
   50MOL   C20411082   5.366   7.227   6.664 -0.1827  0.0972  0.7214
   50MOL   H20511083   5.303   7.290   7.130  0.7783  0.1974 -0.9770
   50MOL   H20611084   5.171   7.218   7.039 -0.4701 -0.0691  0.2048
   50MOL   H20711085   5.430   7.303   6.918  0.2648  0.3497  1.8766
   50MOL   H20811086   5.309   7.178   6.586  0.1020  0.4797  0.2704
   50MOL   H20911087   5.364   7.335   6.645 -2.1477 -0.2186 -0.9778
   50MOL   H21011088   5.471   7.198   6.658  0.2412  1.8796 -1.0919
   50MOL   C21111089   5.425   7.103   6.994  0.2401  0.0992 -0.4223
   50MOL   C21211090   5.556   7.127   7.077 -0.3844 -0.1508  0.4948
   50MOL   C21311091   5.615   7.007   7.135  0.2453  0.1796  0.4133
   50MOL   O21411092   5.552   6.899   7.135 -0.2476 -0.1041  0.1680
   50MOL   C21511093   5.759   7.022   7.192 -0.5422  0.1587  0.5006
   50MOL   H21611094   5.356   7.045   7.054  1.8787  0.9394  2.3876
   50MOL   H21711095   5.451   7.034   6.914 -1.0771 -0.5517 -0.2934
   50MOL   H21811096   5.534   7.205   7.149 -0.9347 -0.7665  1.0031
   50MOL   H21911097   5.816   7.053   7.105  2.7634 -3.9579  1.0588
   50MOL   H22011098   5.753   7.100   7.268  0.0513 -0.7144  1.4679
   50MOL   H22111099   5.802   6.930   7.233 -0.4529 -0.5684 -1.1693
   50MOL   H22211100   5.634   7.169   7.013  0.1260 -0.4748  0.8922
   51MOL     C111101   1.457   1.103   7.489 -0.0357 -0.1637 -0.6309
   51MOL     C211102   1.531   1.114   7.358 -0.0170  0.1148 -0.3270
   51MOL     C311103   1.430   1.134   7.244 -0.6501  0.2215 -0.2576
   51MOL     O411104   1.367   1.240   7.239 -0.4087 -0.0104  0.3881
   51MOL     C511105   1.424   1.026   7.137  0.6621 -0.0069  0.3851
   51MOL     H611106   1.400   1.013   7.508  0.7190 -0.0759  2.3641
   51MOL     H711107   1.385   1.185   7.495  0.4396  0.3894 -2.2355
   51MOL     H811108   1.586   1.022   7.339  2.2134  1.5605 -1.0619
   51MOL     H911109   1.422   0.926   7.179  0.2341 -0.8752 -1.6168
   51MOL    H1011110   1.339   1.044   7.071  0.0632 -1.4284  0.7575
   51MOL    H1111111   1.511   1.025   7.071  0.5615  2.0673  0.1922
   51MOL    H1211112   1.526   1.120   7.572 -2.5887  3.3142  0.8928
   51MOL    C1311113   1.635   1.234   7.355  0.4633  0.4305  0.1051
   51MOL    C1411114   1.702   1.264   7.214 -0.6447  0.5708 -0.1226
   51MOL    C1511115   1.799   1.152   7.170  0.4387  0.3395  0.1334
   51MOL    O1611116   1.744   1.043   7.131 -0.5369 -0.0541  0.2975
   51MOL    C1711117   1.944   1.187   7.164 -0.8192  0.1699  0.0210
   51MOL    H1811118   1.565   1.315   7.376 -0.8495 -0.7519  0.3731
   51MOL    H1911119   1.704   1.225   7.439 -0.0845 -0.6479  0.4468
   51MOL    H2011120   1.625   1.257   7.137 -1.3303 -0.9402  0.6833
   51MOL    H2111121   1.951   1.265   7.239 -1.4382  0.0598  0.1935
   51MOL    H2211122   2.010   1.107   7.198  1.0864  1.1447 -1.3188
   51MOL    H2311123   1.980   1.214   7.065 -0.8330  1.6512  0.4139
   51MOL    C2411124   1.758   1.407   7.203 -0.3217  0.4353 -0.0276
   51MOL    C2511125   1.789   1.458   7.057  0.3756  0.6285 -0.3018
   51MOL    C2611126   1.663   1.458   6.974  0.1032 -0.1835 -0.0165
   51MOL    O2711127   1.573   1.540   6.990 -0.3995  0.4644 -0.5439
   51MOL    C2811128   1.644   1.349   6.871  0.9079 -0.1030  0.3558
   51MOL    H2911129   1.672   1.469   7.225 -0.4465  0.2472  0.0188
   51MOL    H3011130   1.829   1.425   7.284 -0.9590  0.2649  0.5702
   51MOL    H3111131   1.868   1.395   7.016  0.5869 -0.3240  1.5482
   51MOL    H3211132   1.729   1.280   6.873  1.0309  0.0454  0.2689
   51MOL    H3311133   1.550   1.297   6.890  2.3545 -2.1085  2.2111
   51MOL    H3411134   1.632   1.396   6.773 -0.6174 -1.2458 -0.0236
   51MOL    C3511135   1.851   1.596   7.079 -0.2019 -0.4834 -0.3783
   51MOL    C3611136   1.928   1.651   6.958  0.5772 -0.1234 -0.2716
   51MOL    C3711137   1.928   1.803   6.954  0.4351  0.0341 -0.2484
   51MOL    O3811138   2.021   1.863   7.010 -0.4392 -0.0143 -0.3551
   51MOL    C3911139   1.820   1.880   6.888  0.2752  0.7494 -0.7225
   51MOL    H4011140   1.924   1.581   7.158  0.5723 -0.6790 -1.1314
   51MOL    H4111141   1.770   1.658   7.118 -1.6671 -2.4283 -0.2314
   51MOL    H4211142   1.865   1.624   6.874 -1.1586 -0.6509  1.1807
   51MOL    H4311143   1.777   1.814   6.813  1.3008 -0.5244 -0.2103
   51MOL    H4411144   1.855   1.968   6.834  1.3909 -0.7804 -2.5579
   51MOL    H4511145   1.753   1.911   6.968  0.9507 -0.2772  0.2549
   51MOL    C4611146   2.073   1.591   6.959 -0.5168  0.4785 -0.3701
   51MOL    C4711147   2.161   1.631   6.833 -0.0153  0.8932 -0.1864
   51MOL    C4811148   2.315   1.607   6.852 -0.8807 -0.3554 -0.1831
   51MOL    O4911149   2.367   1.504   6.906 -0.3933  0.5886  0.4600
   51MOL    C5011150   2.402   1.720   6.802 -0.0859  0.0070 -0.5311
   51MOL    H5111151   2.065   1.483   6.950  1.9872  0.2786 -0.5583
   51MOL    H5211152   2.124   1.614   7.052  0.1305  0.4133 -0.7039
   51MOL    H5311153   2.159   1.740   6.830  2.8678  0.9680 -1.2745
   51MOL    H5411154   2.497   1.674   6.773  0.1105  1.9639 -3.1618
   51MOL    H5511155   2.354   1.787   6.731 -1.9128  0.9557  1.5542
   51MOL    H5611156   2.398   1.796   6.880 -0.8497 -1.4451  0.8853
   51MOL    C5711157   2.117   1.571   6.700  0.1073 -0.4689 -0.4385
   51MOL    C5811158   2.015   1.654   6.616  0.0616 -0.5580 -0.1123
   51MOL    C5911159   2.088   1.775   6.549 -0.6071 -0.2117  0.3764
   51MOL    O6011160   2.157   1.755   6.447 -0.1270 -0.5933  0.2553
   51MOL    C6111161   2.074   1.914   6.606  0.0758  0.2236 -0.0893
   51MOL    H6211162   2.091   1.466   6.719 -1.0993  0.0513  0.8418
   51MOL    H6311163   2.200   1.562   6.629 -0.8769  0.1023 -1.6938
   51MOL    H6411164   1.945   1.704   6.683  0.7099 -0.3611  0.4284
   51MOL    H6511165   2.148   1.984   6.567  0.3814 -1.4319 -2.5864
   51MOL    H6611166   1.973   1.955   6.596 -0.3979 -1.0757 -0.7554
   51MOL    H6711167   2.089   1.907   6.714  3.0117 -0.9054 -0.5312
   51MOL    C6811168   1.941   1.559   6.521  0.2084 -0.0522 -0.2599
   51MOL    C6911169   1.830   1.615   6.426  0.4989 -1.0101  0.2597
   51MOL    C7011170   1.707   1.668   6.507 -0.3927  0.0604 -0.7598
   51MOL    O7111171   1.686   1.644   6.627  0.2900  0.5336 -0.2076
   51MOL    C7211172   1.590   1.724   6.424 -0.3597  0.4629 -0.3929
   51MOL    H7311173   2.010   1.499   6.461 -1.2612  0.6987 -2.7885
   51MOL    H7411174   1.901   1.476   6.579 -1.7169 -0.4484 -2.0656
   51MOL    H7511175   1.879   1.705   6.388  0.3756 -0.2438  1.8516
   51MOL    H7611176   1.523   1.788   6.481 -1.8566 -1.3158 -0.1228
   51MOL    H7711177   1.614   1.778   6.333  0.6253 -0.6368 -0.8105
   51MOL    H7811178   1.517   1.651   6.392 -1.4721  1.4122 -0.0387
   51MOL    C7911179   1.788   1.513   6.315 -0.0153 -0.7183 -0.2572
   51MOL    C8011180   1.705   1.391   6.371 -0.2396  0.6861  0.9215
   51MOL    C8111181   1.792   1.268   6.358 -0.0029 -0.8821 -0.4774
   51MOL    O8211182   1.820   1.226   6.247  0.1805 -0.3065 -0.0900
   51MOL    C8311183   1.856   1.198   6.482  0.0856  0.7848  0.4760
   51MOL    H8411184   1.876   1.469   6.269  1.2358  0.1115  1.2793
   51MOL    H8511185   1.713   1.562   6.254  0.1031  1.0925  1.0068
   51MOL    H8611186   1.701   1.391   6.480  0.1401  0.9051  0.9369
   51MOL    H8711187   1.794   1.209   6.571  0.9230  1.3057  0.9994
   51MOL    H8811188   1.957   1.231   6.506  0.2218  0.6040  0.1606
   51MOL    H8911189   1.861   1.091   6.459  2.3848  0.7739  0.8701
   51MOL    C9011190   1.570   1.370   6.299  0.1798 -0.1419 -0.9707
   51MOL    C9111191   1.481   1.255   6.347 -0.1499 -0.1384  0.2298
   51MOL    C9211192   1.447   1.262   6.499  0.0104 -0.5099 -0.1540
   51MOL    O9311193   1.462   1.163   6.570 -0.3155 -0.0696  0.3145
   51MOL    C9411194   1.383   1.394   6.561  0.4906  0.1840 -0.0051
   51MOL    H9511195   1.509   1.459   6.313 -1.5071 -1.2344 -1.2161
   51MOL    H9611196   1.590   1.354   6.193 -0.1310 -1.5224 -0.8298
   51MOL    H9711197   1.544   1.168   6.327  0.7389  0.1452  1.7654
   51MOL    H9811198   1.323   1.445   6.486  0.0144 -1.3661 -0.7000
   51MOL    H9911199   1.311   1.364   6.637 -1.2291 -0.1678 -1.7368
   51MOL   H10011200   1.466   1.452   6.601  0.9359 -0.2388 -0.3112
   51MOL   C10111201   1.361   1.242   6.251 -0.0972 -0.2857 -0.6303
   51MOL   C10211202   1.244   1.148   6.299  0.1291  0.3202  0.6554
   51MOL   C10311203   1.289   1.001   6.306  0.1368  0.8588 -0.0821
   51MOL   O10411204   1.366   0.955   6.223  0.1849  0.4352  0.6221
   51MOL   C10511205   1.245   0.904   6.416  0.2211 -0.3576 -0.2936
   51MOL   H10611206   1.319   1.342   6.243  1.4957  0.4224 -0.2963
   51MOL   H10711207   1.387   1.217   6.148 -1.2900  3.9956 -2.0952
   51MOL   H10811208   1.217   1.181   6.400 -1.3469  1.4443 -0.0963
   51MOL   H10911209   1.295   0.807   6.417  0.9744  0.0425  0.5857
   51MOL   H11011210   1.279   0.940   6.512 -2.3469 -1.6482  1.1572
   51MOL   H11111211   1.137   0.887   6.406  0.6976 -1.4077 -4.5173
   51MOL   C11211212   1.107   1.175   6.221 -0.2606 -0.2438  0.4526
   51MOL   C11311213   1.068   1.087   6.105  0.5759  0.4367 -0.3218
   51MOL   C11411214   1.140   1.131   5.976  0.1667  0.8539  0.1371
   51MOL   O11511215   1.145   1.249   5.942  0.7352  1.1181  0.0819
   51MOL   C11611216   1.210   1.027   5.894  0.2349 -0.0468 -0.4247
   51MOL   H11711217   1.091   1.281   6.200 -0.6766 -0.3514  0.2277
   51MOL   H11811218   1.032   1.163   6.299 -0.9817 -1.6365 -0.4464
   51MOL   H11911219   1.095   0.984   6.129  1.3784  1.1674  2.0357
   51MOL   H12011220   1.285   1.078   5.833 -0.8303 -0.1417 -1.8431
   51MOL   H12111221   1.269   0.958   5.954  0.5497 -1.5482 -2.4083
   51MOL   H12211222   1.137   0.968   5.838  1.0769 -2.2308  0.7250
   51MOL   C12311223   0.915   1.098   6.087 -0.5432 -0.0029 -0.0453
   51MOL   C12411224   0.829   1.015   6.178 -1.0473  0.4573  0.6710
   51MOL   C12511225   0.852   0.861   6.156  0.2972  0.5384  0.0913
   51MOL   O12611226   0.845   0.807   6.046 -0.2327  0.1992  0.1745
   51MOL   C12711227   0.865   0.784   6.281  0.6353 -0.7398  0.6879
   51MOL   H12811228   0.894   1.066   5.985 -0.1886 -1.8488  0.4561
   51MOL   H12911229   0.893   1.203   6.107 -1.5227 -0.1943 -0.0495
   51MOL   H13011230   0.857   1.045   6.278  0.6376  2.2252 -0.2988
   51MOL   H13111231   0.911   0.847   6.356 -1.5848  0.8775  0.7394
   51MOL   H13211232   0.934   0.701   6.263  0.8667 -0.6431  1.1086
   51MOL   H13311233   0.772   0.734   6.310  0.9262 -1.3428  0.5839
   51MOL   C13411234   0.679   1.056   6.167 -0.6909  0.6329 -0.5424
   51MOL   C13511235   0.584   0.970   6.254  0.4991 -1.1596 -0.3257
   51MOL   C13611236   0.629   0.959   6.403 -1.1155  0.5099  0.9734
   51MOL   O13711237   0.712   1.032   6.457  0.2577  0.1451 -0.9104
   51MOL   C13811238   0.567   0.836   6.472 -0.3017 -0.2035  0.8986
   51MOL   H13911239   0.645   1.060   6.064  1.2123  0.9170 -1.1739
   51MOL   H14011240   0.662   1.153   6.215  0.5635 -0.8771  3.0955
   51MOL   H14111241   0.570   0.878   6.197  1.3846 -0.2769 -2.0142
   51MOL   H14211242   0.638   0.755   6.483  0.4726  0.3220 -0.1292
   51MOL   H14311243   0.484   0.791   6.416 -1.7208  2.9575  0.3133
   51MOL   H14411244   0.517   0.850   6.568 -0.0715 -0.3024  1.0326
   51MOL   C14511245   0.438   1.028   6.257 -0.0243  0.3093 -0.1253
   51MOL   C14611246   0.365   1.033   6.118  0.3035  0.0432  0.2824
   51MOL   C14711247   0.337   0.890   6.066 -1.0252  0.5329  0.0997
   51MOL   O14811248   0.269   0.812   6.131  0.4936  0.4780  0.0992
   51MOL   C14911249   0.402   0.847   5.937  0.2091 -0.2608  0.0924
   51MOL   H15011250   0.440   1.125   6.305 -1.7937 -0.6682  1.9779
   51MOL   H15111251   0.367   0.973   6.318  1.0141 -0.2254  0.6200
   51MOL   H15211252   0.429   1.077   6.041  0.6024 -1.4773 -0.3619
   51MOL   H15311253   0.319   0.790   5.896 -0.1779  1.5421 -1.6569
   51MOL   H15411254   0.430   0.934   5.878 -1.1233  0.5557  0.6599
   51MOL   H15511255   0.489   0.784   5.958 -0.5679 -0.6856  2.1179
   51MOL   C15611256   0.242   1.129   6.124 -0.3491  0.1615  0.2045
   51MOL   C15711257   0.171   1.173   5.994  1.0224 -0.0137 -0.0948
   51MOL   C15811258   0.260   1.222   5.880 -0.4994  0.4959  1.0742
   51MOL   O15911259   0.370   1.270   5.899 -0.3410 -0.2208 -0.4746
   51MOL   C16011260   0.205   1.204   5.740  0.1169 -0.3681  0.3407
   51MOL   H16111261   0.174   1.082   6.195 -0.4692  1.9741  1.3202
   51MOL   H16211262   0.270   1.217   6.181 -0.2087  0.8441 -0.8960
   51MOL   H16311263   0.116   1.085   5.960  1.9730 -1.3326  1.6952
   51MOL   H16411264   0.137   1.288   5.727  0.2035 -0.3071  0.2835
   51MOL   H16511265   0.142   1.115   5.741 -1.0376  0.4397  0.9081
   51MOL   H16611266   0.283   1.195   5.665  0.2112  3.2272 -0.0618
   51MOL   C16711267   0.069   1.287   6.028  0.0613  0.8528  0.2450
   51MOL   C16811268   7.782   1.239   6.058  0.2903 -0.3478  0.8510
   51MOL   C16911269   7.712   1.217   5.928  0.0917 -0.3487 -0.5981
   51MOL   O17011270   7.691   1.310   5.852 -0.6300  0.0927  0.4229
   51MOL   C17111271   7.696   1.071   5.883 -0.9236 -0.2284 -0.3140
   51MOL   H17211272   0.099   1.338   6.119  0.5588  2.0015 -0.5607
   51MOL   H17311273   0.067   1.370   5.958 -0.0303  0.5460 -0.1214
   51MOL   H17411274   7.785   1.151   6.122 -0.4048  0.7079  2.3921
   51MOL   H17511275   7.658   1.007   5.963  0.7481 -1.7311 -0.6787
   51MOL   H17611276   7.787   1.038   5.832 -2.7967 -1.0533 -3.2622
   51MOL   H17711277   7.619   1.087   5.808 -0.1461 -0.8319 -1.2506
   51MOL   C17811278   7.708   1.343   6.142 -0.3031 -0.0115  0.9998
   51MOL   C17911279   7.553   1.330   6.162 -0.3285 -0.9430  0.3683
   51MOL   C18011280   7.483   1.449   6.222  0.5147  0.3022  0.4485
   51MOL   O18111281   7.368   1.477   6.184  0.3316 -0.2363 -0.3725
   51MOL   C18211282   7.553   1.527   6.330  0.2649  0.2472  0.2742
   51MOL   H18311283   7.752   1.368   6.238 -0.1008  1.9023  0.4472
   51MOL   H18411284   7.733   1.433   6.085 -1.4821 -1.1476 -1.3651
   51MOL   H18511285   7.514   1.316   6.060  0.1829  1.2465 -0.1468
   51MOL   H18611286   7.480   1.602   6.359 -0.7869 -0.6293 -0.0782
   51MOL   H18711287   7.639   1.581   6.291  0.1576 -0.3710 -0.8537
   51MOL   H18811288   7.583   1.468   6.417  1.0881  0.4942  0.1668
   51MOL   C18911289   7.529   1.207   6.260  0.0881 -0.0473  0.4070
   51MOL   C19011290   7.380   1.160   6.287  0.7777  0.1195  0.0305
   51MOL   C19111291   7.340   1.091   6.150  0.1218  0.0302 -0.6924
   51MOL   O19211292   7.408   1.003   6.100  0.0305  0.3871 -0.8135
   51MOL   C19311293   7.208   1.134   6.085 -0.5383  0.0030  0.6514
   51MOL   H19411294   7.588   1.120   6.231 -2.0013 -1.1442 -0.6798
   51MOL   H19511295   7.560   1.238   6.360 -0.9398 -0.4370  0.8501
   51MOL   H19611296   7.311   1.241   6.312  0.6682  0.3703 -1.0657
   51MOL   H19711297   7.143   1.047   6.091  3.0428 -2.6591  2.7462
   51MOL   H19811298   7.165   1.224   6.128 -1.1187 -0.4519  1.0448
   51MOL   H19911299   7.225   1.156   5.980 -0.1188 -1.8057  0.3151
   51MOL   C20011300   7.367   1.044   6.388 -0.0786 -0.3901  0.3518
   51MOL   C20111301   7.380   1.101   6.532  0.1934 -0.1444 -0.3282
   51MOL   C20211302   7.492   1.037   6.611 -0.3874  0.5354 -0.2723
   51MOL   O20311303   7.516   0.913   6.602 -0.6789 -0.3066  0.6565
   51MOL   C20411304   7.559   1.117   6.719 -0.7355 -0.1638  0.0339
   51MOL   H20511305   7.267   1.003   6.388  0.0225 -0.6513  0.9815
   51MOL   H20611306   7.435   0.964   6.358  0.3743  0.5847 -1.2761
   51MOL   H20711307   7.420   1.203   6.529 -2.3776  0.9158  0.0172
   51MOL   H20811308   7.641   1.174   6.675  0.0461 -0.2373  1.3952
   51MOL   H20911309   7.494   1.189   6.767  2.2154  1.8136  1.2208
   51MOL   H21011310   7.604   1.060   6.800 -1.4711  0.4650  0.9006
   51MOL   C21111311   7.251   1.117   6.606 -0.6979  0.0384 -0.1005
   51MOL   C21211312   7.139   1.212   6.543  0.4398  0.2054 -0.5242
   51MOL   C21311313   7.180   1.365   6.550  0.4866 -0.5775  0.1496
   51MOL   O21411314   7.267   1.397   6.627  0.2046 -0.8965  0.5402
   51MOL   C21511315   7.123   1.463   6.447 -0.2842 -0.1996  0.3133
   51MOL   H21611316   7.209   1.017   6.601 -0.3459  0.0001 -2.5264
   51MOL   H21711317   7.268   1.138   6.712 -0.7436 -3.8189  0.7261
   51MOL   H21811318   7.045   1.200   6.597  0.9188  1.2006  0.5519
   51MOL   H21911319   7.204   1.521   6.402  0.5245  0.3542  2.4255
   51MOL   H22011320   7.051   1.424   6.375 -0.1170 -0.0164  0.0467
   51MOL   H22111321   7.065   1.545   6.489 -0.3516 -0.8406  1.4949
   51MOL   H22211322   7.126   1.183   6.438 -1.4564 -0.0191 -0.2518
   52MOL     C111323   0.131   0.641   3.972 -0.6876  0.3249 -0.1760
   52MOL     C211324   0.226   0.757   3.953  0.3346  0.4042  0.4293
   52MOL     C311325   0.160   0.893   3.908 -0.1199  0.1063 -0.0220
   52MOL     O411326   0.140   0.987   3.990  0.7416  0.7035  0.9020
   52MOL     C511327   0.128   0.912   3.762 -0.1650 -0.4927  0.0819
   52MOL     H611328   0.038   0.672   4.020  0.1461 -1.1140  2.4988
   52MOL     H711329   0.176   0.565   4.036  0.0619  1.7424  1.0313
   52MOL     H811330   0.297   0.746   3.870  0.4895 -1.7195  0.8000
   52MOL     H911331   0.208   0.888   3.693  0.4039  0.8282  0.2679
   52MOL    H1011332   0.044   0.846   3.741  0.2511 -1.3697  1.0775
   52MOL    H1111333   0.089   1.013   3.755 -0.5555 -0.5300  1.4495
   52MOL    H1211334   0.111   0.586   3.880 -1.1774 -0.5790  0.4586
   52MOL    C1311335   0.313   0.779   4.087  0.3280  0.1526  0.2622
   52MOL    C1411336   0.434   0.870   4.078  0.0656 -0.1143  0.0367
   52MOL    C1511337   0.551   0.803   4.007 -0.4550  0.3835  0.1651
   52MOL    O1611338   0.642   0.739   4.062  0.6721 -0.8442 -0.2166
   52MOL    C1711339   0.559   0.818   3.856  0.0196  0.0927 -0.5268
   52MOL    H1811340   0.243   0.811   4.164 -1.0957  1.2657 -1.4475
   52MOL    H1911341   0.363   0.684   4.110 -0.8613 -0.1700  1.5412
   52MOL    H2011342   0.405   0.948   4.008  0.0161 -2.1231 -2.2542
   52MOL    H2111343   0.620   0.744   3.804  2.6304  1.0785  0.9937
   52MOL    H2211344   0.460   0.830   3.814 -0.5264  1.2686  1.0344
   52MOL    H2311345   0.604   0.917   3.847  2.2479 -0.7203  1.0792
   52MOL    C2411346   0.467   0.923   4.215  0.9740  0.0881 -0.0134
   52MOL    C2511347   0.573   1.035   4.215 -0.1608  0.1436  0.2351
   52MOL    C2611348   0.507   1.169   4.177  0.1347  0.2076  0.0898
   52MOL    O2711349   0.414   1.206   4.251 -0.0849  0.1266 -0.2661
   52MOL    C2811350   0.553   1.250   4.059 -0.2973 -0.9423 -0.2101
   52MOL    H2911351   0.375   0.948   4.268 -1.0133 -0.6457 -2.9851
   52MOL    H3011352   0.513   0.846   4.277  0.2680 -0.5059 -0.2206
   52MOL    H3111353   0.643   1.014   4.134  0.9944  2.7735  0.5005
   52MOL    H3211354   0.594   1.179   3.987  0.0377 -1.8955  0.8903
   52MOL    H3311355   0.466   1.297   4.014  1.6443  3.5007  0.4419
   52MOL    H3411356   0.628   1.323   4.089 -1.5752  0.5775 -0.6973
   52MOL    C3511357   0.662   1.060   4.341 -0.1849 -0.1318  0.2082
   52MOL    C3611358   0.758   0.944   4.390  0.1680  0.3834 -0.7670
   52MOL    C3711359   0.860   0.900   4.290  0.1181  0.7696 -0.4475
   52MOL    O3811360   0.902   0.979   4.208  0.1607 -0.4906 -0.7475
   52MOL    C3911361   0.911   0.757   4.287  0.0270 -0.3593  0.0950
   52MOL    H4011362   0.601   1.098   4.423 -0.3195  1.2048 -0.5056
   52MOL    H4111363   0.725   1.144   4.312  1.9735 -1.6535  0.3390
   52MOL    H4211364   0.698   0.855   4.409  0.3405  0.7567  1.6984
   52MOL    H4311365   0.840   0.697   4.344 -0.3870 -0.4699 -0.5257
   52MOL    H4411366   1.011   0.751   4.331  0.2679  3.3618  0.2056
   52MOL    H4511367   0.907   0.726   4.182 -2.3307  2.4924 -0.7116
   52MOL    C4611368   0.835   0.970   4.525 -0.6971  0.1087 -0.2525
   52MOL    C4711369   0.764   0.922   4.653 -0.4685  0.2697  0.0388
   52MOL    C4811370   0.719   0.772   4.650  0.0401  0.1844 -0.7592
   52MOL    O4911371   0.796   0.692   4.609 -0.1180  0.3117  0.0568
   52MOL    C5011372   0.579   0.743   4.693  0.3357  0.5780 -0.0140
   52MOL    H5111373   0.864   1.075   4.528  0.4001 -0.1481 -1.1366
   52MOL    H5211374   0.931   0.919   4.529  0.0072  1.4174 -0.3052
   52MOL    H5311375   0.671   0.979   4.647  0.1361  1.1308 -1.5073
   52MOL    H5411376   0.576   0.644   4.738 -2.1097 -0.0915 -1.5212
   52MOL    H5511377   0.549   0.815   4.770 -0.9917  0.8639 -0.7839
   52MOL    H5611378   0.497   0.744   4.621 -1.3193 -0.2180  1.8047
   52MOL    C5711379   0.851   0.962   4.770  0.2920 -0.5290  0.8126
   52MOL    C5811380   0.838   1.103   4.817  0.1336  0.1069 -0.2434
   52MOL    C5911381   0.708   1.131   4.897 -0.2128  0.1038 -0.0376
   52MOL    O6011382   0.624   1.044   4.911  0.4473 -0.2796 -0.3397
   52MOL    C6111383   0.688   1.273   4.952  0.0670 -0.1538  0.0584
   52MOL    H6211384   0.953   0.943   4.736 -0.1546  0.3888 -1.1184
   52MOL    H6311385   0.828   0.890   4.849  4.0246 -2.6162  0.0878
   52MOL    H6411386   0.823   1.164   4.729 -0.3535 -1.0040 -0.9462
   52MOL    H6511387   0.586   1.273   4.990 -0.0907 -0.3496 -0.3597
   52MOL    H6611388   0.746   1.288   5.043  1.6520 -1.1313 -0.7695
   52MOL    H6711389   0.713   1.360   4.892  1.0826 -0.1244  0.5150
   52MOL    C6811390   0.976   1.137   4.888 -0.7956  0.2886 -0.3662
   52MOL    C6911391   1.016   1.285   4.879 -0.2642 -0.0156 -0.3475
   52MOL    C7011392   1.060   1.311   4.736 -0.1075 -0.3940  0.8363
   52MOL    O7111393   0.987   1.372   4.662 -0.0894 -0.0229  0.1906
   52MOL    C7211394   1.174   1.237   4.670  0.3569 -0.3495 -0.6445
   52MOL    H7311395   0.956   1.110   4.992 -0.8502 -0.9136 -0.6802
   52MOL    H7411396   1.060   1.078   4.852 -0.0578 -0.0875  1.8979
   52MOL    H7511397   0.931   1.351   4.898  0.2362  0.3221  0.7983
   52MOL    H7611398   1.134   1.166   4.597  0.5002 -0.1289 -0.9394
   52MOL    H7711399   1.226   1.306   4.605 -1.0883 -0.6186 -2.1203
   52MOL    H7811400   1.236   1.183   4.742 -0.4024  0.1981  0.4395
   52MOL    C7911401   1.128   1.327   4.977  0.5580  0.2579  0.5391
   52MOL    C8011402   1.134   1.480   4.986 -0.2408  0.2119 -0.5028
   52MOL    C8111403   1.264   1.514   5.055  0.3090 -0.4184  0.0234
   52MOL    O8211404   1.274   1.521   5.179  0.3185  0.1817  0.2390
   52MOL    C8311405   1.391   1.528   4.968 -0.2999 -0.3968 -0.3247
   52MOL    H8411406   1.228   1.293   4.950 -0.0200 -0.3620 -0.8772
   52MOL    H8511407   1.108   1.283   5.074 -0.9296 -0.3801 -0.0408
   52MOL    H8611408   1.127   1.530   4.889  0.4719  0.5337 -0.3942
   52MOL    H8711409   1.460   1.600   5.013 -0.1368 -1.1069  0.5699
   52MOL    H8811410   1.364   1.543   4.863  1.8511  4.4160 -0.3018
   52MOL    H8911411   1.446   1.435   4.978 -2.0048 -1.3743  0.0948
   52MOL    C9011412   1.010   1.540   5.061 -0.8743 -0.0462  0.0394
   52MOL    C9111413   1.024   1.687   5.116  0.2270 -0.1528 -0.0116
   52MOL    C9211414   1.048   1.787   4.994  0.7490 -0.9272  0.6194
   52MOL    O9311415   0.949   1.813   4.921  0.1324  0.5322  0.4306
   52MOL    C9411416   1.192   1.848   4.973  0.8069  0.3614  0.0457
   52MOL    H9511417   0.921   1.534   4.999  0.1007  1.2506 -1.5074
   52MOL    H9611418   0.986   1.473   5.144  1.8297 -0.7978  0.2565
   52MOL    H9711419   1.112   1.683   5.180  1.2667  2.5745 -1.1723
   52MOL    H9811420   1.269   1.772   4.958  0.1827 -0.2226 -0.2365
   52MOL    H9911421   1.185   1.925   4.896 -0.7728  0.8174  0.6161
   52MOL   H10011422   1.226   1.894   5.066 -1.6657 -0.8657  1.6111
   52MOL   C10111423   0.902   1.715   5.207  0.4084 -0.8870  0.4380
   52MOL   C10211424   0.897   1.839   5.305  0.6166  0.4309 -0.0963
   52MOL   C10311425   0.890   1.967   5.233 -0.0373 -0.2014  0.3310
   52MOL   O10411426   0.993   2.035   5.218 -0.6189 -0.2925  0.2746
   52MOL   C10511427   0.770   2.001   5.162  0.3631 -0.0577  0.1122
   52MOL   H10611428   0.815   1.722   5.141  1.1611 -0.9215 -0.5735
   52MOL   H10711429   0.875   1.627   5.265  0.6160  0.3116  2.3940
   52MOL   H10811430   0.800   1.830   5.352  1.1492 -2.0694  0.5961
   52MOL   H10911431   0.683   1.971   5.221  0.6920 -0.9821  0.1405
   52MOL   H11011432   0.762   2.107   5.141 -0.4633 -0.1236  0.0703
   52MOL   H11111433   0.772   1.952   5.064  0.6429  0.5124 -0.1698
   52MOL   C11211434   1.018   1.836   5.404  0.1742 -0.9566 -0.4652
   52MOL   C11311435   1.038   1.719   5.505 -0.5504  0.4049  0.1240
   52MOL   C11411436   0.921   1.695   5.601  0.2639  0.7643 -0.3341
   52MOL   O11511437   0.837   1.780   5.633  0.2005  0.1672 -0.6887
   52MOL   C11611438   0.911   1.549   5.654  0.3372 -0.0809  0.4894
   52MOL   H11711439   1.013   1.931   5.458  0.5310 -1.3060  0.1889
   52MOL   H11811440   1.108   1.848   5.343  1.1175 -1.6918  0.7598
   52MOL   H11911441   1.050   1.624   5.453 -0.5792  0.5502 -0.1467
   52MOL   H12011442   0.997   1.493   5.617  1.6383  1.8698  0.4913
   52MOL   H12111443   0.908   1.532   5.762 -0.7147 -0.6221  0.3828
   52MOL   H12211444   0.826   1.504   5.603  0.2725  1.0756 -0.4485
   52MOL   C12311445   1.171   1.756   5.581  0.2367  0.0061  0.6455
   52MOL   C12411446   1.307   1.693   5.527  0.2136 -0.4740 -1.2510
   52MOL   C12511447   1.317   1.545   5.588 -0.3354 -0.3179 -0.1980
   52MOL   O12611448   1.308   1.457   5.508  0.3265  0.1226 -0.1012
   52MOL   C12711449   1.342   1.545   5.742 -0.3150  0.3333 -0.7980
   52MOL   H12811450   1.153   1.736   5.686 -1.0013 -0.1375  0.4124
   52MOL   H12911451   1.190   1.863   5.586 -0.9506  0.1936  1.1388
   52MOL   H13011452   1.295   1.677   5.419 -0.0391  0.6835 -1.3979
   52MOL   H13111453   1.312   1.636   5.793 -1.1010 -1.0377  1.2565
   52MOL   H13211454   1.450   1.534   5.751 -0.2351  1.5084 -0.2399
   52MOL   H13311455   1.295   1.461   5.794  1.3353  1.0236  1.8952
   52MOL   C13411456   1.441   1.778   5.545  0.3781  0.1287 -0.1917
   52MOL   C13511457   1.500   1.873   5.427 -0.1448  0.3206  0.1304
   52MOL   C13611458   1.548   1.802   5.298 -0.3963  0.4999  0.6651
   52MOL   O13711459   1.481   1.811   5.188  0.1072  0.3334 -0.2909
   52MOL   C13811460   1.678   1.721   5.316  0.5972 -0.2081 -0.1634
   52MOL   H13911461   1.528   1.719   5.576  0.2256  0.0992  0.1855
   52MOL   H14011462   1.411   1.833   5.634 -0.0054 -0.1427 -0.1501
   52MOL   H14111463   1.588   1.917   5.474  0.0258  1.0621 -0.8605
   52MOL   H14211464   1.757   1.766   5.256 -1.9447  2.6231 -1.5001
   52MOL   H14311465   1.664   1.620   5.278  1.1340 -0.3613  0.0380
   52MOL   H14411466   1.721   1.718   5.416 -0.5339 -0.0481  0.3439
   52MOL   C14511467   1.412   2.004   5.393 -0.1383  1.3614 -0.5808
   52MOL   C14611468   1.430   2.120   5.499  0.0496 -0.3212 -0.0013
   52MOL   C14711469   1.553   2.204   5.472  0.1209  0.1740 -0.0742
   52MOL   O14811470   1.554   2.287   5.383  0.1138  0.2655  0.0507
   52MOL   C14911471   1.675   2.174   5.562 -0.3238 -0.2589  0.3270
   52MOL   H15011472   1.307   1.977   5.383  0.5815 -2.5652  1.5466
   52MOL   H15111473   1.441   2.038   5.293 -0.2501 -3.2429 -2.2920
   52MOL   H15211474   1.440   2.066   5.592 -1.8405 -1.3325 -0.3611
   52MOL   H15311475   1.635   2.112   5.643  0.7077 -0.4197  0.7133
   52MOL   H15411476   1.744   2.108   5.511 -1.6942 -0.1066 -1.7802
   52MOL   H15511477   1.725   2.265   5.595 -1.3948  0.5398 -0.2135
   52MOL   C15611478   1.310   2.217   5.515 -0.1260  0.2070  0.0351
   52MOL   C15711479   1.322   2.315   5.635 -0.7382  0.5112  0.5779
   52MOL   C15811480   1.351   2.261   5.772  0.2494 -0.0428  0.4608
   52MOL   O15911481   1.280   2.171   5.814 -0.5114  0.0482 -0.0177
   52MOL   C16011482   1.453   2.335   5.858  0.2270  0.6115 -0.0651
   52MOL   H16111483   1.298   2.274   5.423 -0.3508 -0.5182 -0.3901
   52MOL   H16211484   1.216   2.163   5.522 -0.6853  1.2633  0.9528
   52MOL   H16311485   1.403   2.382   5.608 -3.1319  3.4277  0.3239
   52MOL   H16411486   1.424   2.328   5.963  1.2538  0.8408  0.2371
   52MOL   H16511487   1.462   2.440   5.831 -2.7077  0.7436 -0.7103
   52MOL   H16611488   1.552   2.291   5.846  1.0453  2.7583 -1.3423
   52MOL   C16711489   1.194   2.403   5.645 -0.6876 -0.4667  0.0375
   52MOL   C16811490   1.168   2.498   5.528 -1.1194  0.0419 -0.3781
   52MOL   C16911491   1.277   2.600   5.511 -0.2736  0.2698 -0.6990
   52MOL   O17011492   1.324   2.654   5.613  0.2622  0.5241  0.0276
   52MOL   C17111493   1.313   2.641   5.375 -0.7955  0.1838 -0.3755
   52MOL   H17211494   1.109   2.337   5.659 -0.0795 -1.4917 -0.9902
   52MOL   H17311495   1.192   2.472   5.729  0.3758 -0.5760  0.1531
   52MOL   H17411496   1.172   2.442   5.435 -1.4579  1.0587 -1.0167
   52MOL   H17511497   1.420   2.662   5.387 -0.9895  0.6847  0.5062
   52MOL   H17611498   1.253   2.729   5.349 -1.6648 -0.1477  0.5045
   52MOL   H17711499   1.289   2.564   5.301 -1.4647 -0.0139  0.0509
   52MOL   C17811500   1.022   2.560   5.531  0.4457 -0.0093 -0.0792
   52MOL   C17911501   0.904   2.475   5.560  0.3629 -0.4710 -0.8557
   52MOL   C18011502   0.883   2.363   5.453 -0.0665  0.4996 -0.2636
   52MOL   O18111503   0.852   2.249   5.491 -0.0325  0.3640  0.0322
   52MOL   C18211504   0.881   2.395   5.305 -0.8486 -0.0766 -0.3217
   52MOL   H18311505   1.030   2.651   5.591  0.0288 -0.1117  0.1326
   52MOL   H18411506   1.004   2.597   5.430  0.2046 -1.2582 -0.5033
   52MOL   H18511507   0.919   2.423   5.655  4.6127 -0.4940 -1.4462
   52MOL   H18611508   0.841   2.301   5.265  0.8975 -0.5839 -0.9474
   52MOL   H18711509   0.986   2.411   5.281 -0.4060  1.5360  2.5144
   52MOL   H18811510   0.820   2.483   5.286  0.8767  1.2286  0.0727
   52MOL   C18911511   0.779   2.558   5.574  0.5321 -0.1878 -0.2555
   52MOL   C19011512   0.661   2.484   5.651 -0.0409 -0.3987  0.1464
   52MOL   C19111513   0.679   2.464   5.803  0.2608 -0.0823  0.8971
   52MOL   O19211514   0.665   2.560   5.878  0.5526  1.0284 -0.0919
   52MOL   C19311515   0.731   2.328   5.848  0.0599 -0.0123 -0.3313
   52MOL   H19411516   0.798   2.645   5.638 -0.8434  0.6501 -0.9638
   52MOL   H19511517   0.748   2.598   5.477  0.1162  0.5480  0.1732
   52MOL   H19611518   0.666   2.388   5.601  0.3574 -1.6694  2.5734
   52MOL   H19711519   0.825   2.302   5.799  0.2070  2.9336 -1.7012
   52MOL   H19811520   0.768   2.353   5.948 -2.3850 -1.2273  0.9279
   52MOL   H19911521   0.659   2.247   5.834 -0.2155  0.2488 -0.4231
   52MOL   C20011522   0.534   2.559   5.625  0.1496  0.4185 -0.2745
   52MOL   C20111523   0.397   2.489   5.629 -0.6121 -0.3021 -0.0871
   52MOL   C20211524   0.369   2.390   5.512 -0.1605 -0.7798 -0.6794
   52MOL   O20311525   0.412   2.405   5.402 -0.7046  0.1305  0.1391
   52MOL   C20411526   0.273   2.274   5.539  0.5995  0.2720  0.1969
   52MOL   H20511527   0.537   2.650   5.684  0.4454  0.9123 -1.0313
   52MOL   H20611528   0.538   2.601   5.524 -0.0525  1.2140  0.0427
   52MOL   H20711529   0.396   2.419   5.713 -1.4448 -0.9692 -0.6467
   52MOL   H20811530   0.203   2.290   5.621  0.6447 -0.7591  0.4491
   52MOL   H20911531   0.205   2.262   5.455  2.3460 -1.5155 -0.9924
   52MOL   H21011532   0.311   2.172   5.534 -1.4365 -0.4719 -0.6654
   52MOL   C21111533   0.275   2.583   5.644  0.5210 -0.7669  0.2894
   52MOL   C21211534   0.240   2.616   5.786  0.1092  0.6893  0.3087
   52MOL   C21311535   0.310   2.732   5.848  0.0113 -0.3219  0.2402
   52MOL   O21411536   0.341   2.828   5.786  0.4391  0.1086 -0.3752
   52MOL   C21511537   0.376   2.706   5.980  0.0907  0.3508 -0.0417
   52MOL   H21611538   0.303   2.680   5.601 -2.8164  1.0659  1.9905
   52MOL   H21711539   0.191   2.545   5.586 -0.6834  0.4395  1.2047
   52MOL   H21811540   0.262   2.536   5.856 -0.8562  1.2079  1.2137
   52MOL   H21911541   0.369   2.798   6.039 -0.3033 -0.1463  0.6939
   52MOL   H22011542   0.316   2.636   6.037  0.2037  0.7421  0.5647
   52MOL   H22111543   0.480   2.673   5.983  0.6792  2.2026  0.5825
   52MOL   H22211544   0.132   2.634   5.790 -0.0533  0.0317 -0.7346
   53MOL     C111545   3.036   7.467   0.334  0.2327  0.0486 -0.1258
   53MOL     C211546   2.937   7.591   0.314 -0.5386  0.0378 -0.4505
   53MOL     C311547   2.997   7.715   0.378  0.5334 -0.0974  0.0737
   53MOL     O411548   3.084   7.786   0.320  0.2472 -0.1232  0.1589
   53MOL     C511549   2.952   7.735   0.525 -0.0248 -0.3877  0.4219
   53MOL     H611550   3.139   7.485   0.306  0.3015  0.0251  0.1053
   53MOL     H711551   2.997   7.384   0.276 -2.4367  0.0781  1.5473
   53MOL     H811552   2.845   7.575   0.369 -0.9950  0.8395 -0.9604
   53MOL     H911553   3.027   7.797   0.574  1.5121 -0.2348 -2.0715
   53MOL    H1011554   2.860   7.793   0.524  0.6258  0.6482  0.0029
   53MOL    H1111555   2.923   7.640   0.571  0.7821 -0.6248  0.4527
   53MOL    H1211556   3.033   7.433   0.438 -0.3523 -0.7579 -0.4044
   53MOL    C1311557   2.905   7.607   0.164  0.6639  0.5743 -0.3095
   53MOL    C1411558   2.768   7.666   0.126  0.4501  0.0294 -0.1056
   53MOL    C1511559   2.753   7.679   7.835  0.9163 -0.3231  0.7151
   53MOL    O1611560   2.790   7.780   7.771 -0.3970 -0.2180  0.1590
   53MOL    C1711561   2.695   7.560   7.767 -0.2993  0.0039 -0.5354
   53MOL    H1811562   2.980   7.668   0.115  0.7663 -0.2401 -1.1781
   53MOL    H1911563   2.901   7.505   0.125  2.1991 -0.1182  1.2532
   53MOL    H2011564   2.692   7.601   0.169 -1.1268  1.3731 -0.8309
   53MOL    H2111565   2.587   7.562   7.776 -0.4996 -3.2151 -1.2733
   53MOL    H2211566   2.714   7.562   7.659  2.2160  0.2523 -0.1167
   53MOL    H2311567   2.738   7.468   7.806  0.9782  0.6358 -0.4271
   53MOL    C2411568   2.727   7.811   0.185 -0.1204  0.0793 -0.0180
   53MOL    C2511569   2.593   0.019   0.146 -0.0648  0.4294  0.2650
   53MOL    C2611570   2.471   7.784   0.164 -0.2364 -0.1678 -0.0392
   53MOL    O2711571   2.480   7.689   0.242  0.0134  0.6769  0.7286
   53MOL    C2811572   2.335   7.814   0.095  0.6362 -0.9139  0.9015
   53MOL    H2911573   2.739   7.808   0.294 -0.4031  3.1849  0.1355
   53MOL    H3011574   2.817   0.011   0.166 -0.9044  0.9009 -1.2316
   53MOL    H3111575   2.594   0.037   0.039 -0.9766 -2.4795 -0.2878
   53MOL    H3211576   2.301   7.725   0.042  1.1987 -1.4818  1.4852
   53MOL    H3311577   2.264   7.834   0.175 -0.0592 -0.0905  0.0934
   53MOL    H3411578   2.341   0.045   0.033 -0.5736 -0.4275  1.4566
   53MOL    C3511579   2.575   0.157   0.221 -0.2768  0.5187 -0.9558
   53MOL    C3611580   2.659   0.278   0.179 -0.2636 -0.1840 -0.0716
   53MOL    C3711581   2.620   0.340   0.043 -0.3037 -0.7282  0.6015
   53MOL    O3811582   2.504   0.351   0.005 -0.1192 -0.3954 -0.3886
   53MOL    C3911583   2.736   0.383   7.809  0.4070 -0.5905 -0.6422
   53MOL    H4011584   2.600   0.124   0.322  0.6241  0.9790 -1.0201
   53MOL    H4111585   2.473   0.196   0.222 -0.3453  0.3806  1.4919
   53MOL    H4211586   2.758   0.235   0.161  0.4116  0.9822  0.7954
   53MOL    H4311587   2.831   0.387   0.004 -0.4961  2.9222  0.8252
   53MOL    H4411588   2.729   0.474   7.750  2.2969 -0.3782 -0.5762
   53MOL    H4511589   2.742   0.299   7.740  0.2290 -0.4274 -0.8555
   53MOL    C4611590   2.673   0.393   0.281  0.0635 -0.2789  0.0535
   53MOL    C4711591   2.737   0.360   0.415  0.2887  0.2093  0.4925
   53MOL    C4811592   2.881   0.316   0.398 -0.0262 -0.0638 -0.6688
   53MOL    O4911593   2.951   0.362   0.306  0.1708 -0.3492 -0.5632
   53MOL    C5011594   2.941   0.223   0.507  0.0219  0.6695 -0.3210
   53MOL    H5111595   2.574   0.435   0.297 -0.0556 -0.6712  0.3459
   53MOL    H5211596   2.732   0.475   0.240  1.3413 -0.8929  0.6276
   53MOL    H5311597   2.684   0.277   0.460  1.5338 -0.0364  1.5333
   53MOL    H5411598   3.023   0.163   0.466  1.4004  2.3087 -0.0043
   53MOL    H5511599   2.967   0.283   0.593  0.2159 -2.5310  1.9424
   53MOL    H5611600   2.859   0.157   0.535  0.3211  0.0341 -0.9148
   53MOL    C5711601   2.718   0.491   0.497 -0.1551  0.5390  0.2250
   53MOL    C5811602   2.762   0.495   0.641 -0.7188  0.4616  0.6472
   53MOL    C5911603   2.771   0.642   0.700 -0.1750 -0.4763  0.0919
   53MOL    O6011604   2.745   0.739   0.633  0.1968 -0.4930  0.0099
   53MOL    C6111605   2.814   0.662   0.842  0.1589 -0.0095 -0.5911
   53MOL    H6211606   2.612   0.516   0.491 -0.0419  1.1288  0.5459
   53MOL    H6311607   2.768   0.571   0.442  1.1547  0.3869  1.1580
   53MOL    H6411608   2.869   0.480   0.647 -1.0079 -0.9583  2.6919
   53MOL    H6511609   2.728   0.689   0.902 -0.7327  1.9911 -2.7281
   53MOL    H6611610   2.857   0.567   0.875 -0.6075  0.6423  2.4543
   53MOL    H6711611   2.887   0.742   0.846  0.8814 -0.6103 -1.5009
   53MOL    C6811612   2.695   0.397   0.735 -0.3280  0.5014  0.2545
   53MOL    C6911613   2.536   0.387   0.735 -0.6732 -0.5189  0.3754
   53MOL    C7011614   2.465   0.511   0.781  0.0635 -0.4664 -0.2747
   53MOL    O7111615   2.462   0.537   0.903 -0.4920 -0.1122 -0.3322
   53MOL    C7211616   2.403   0.609   0.680 -0.0156 -0.0546  0.3445
   53MOL    H7311617   2.740   0.302   0.705 -0.6305 -0.2095  1.9521
   53MOL    H7411618   2.728   0.411   0.838  0.9346 -1.0913  0.0958
   53MOL    H7511619   2.507   0.372   0.631  2.9087 -1.0888 -0.6144
   53MOL    H7611620   2.305   0.583   0.641 -0.1873 -0.6123  1.1388
   53MOL    H7711621   2.378   0.702   0.733 -0.3450  0.0865 -0.0582
   53MOL    H7811622   2.466   0.637   0.596 -1.1410  0.7706 -0.2397
   53MOL    C7911623   2.491   0.261   0.816 -0.0511 -0.5738  0.7175
   53MOL    C8011624   2.557   0.119   0.793  0.6935 -0.8066 -0.4703
   53MOL    C8111625   2.550   0.086   0.641 -0.8950  1.4664 -0.7845
   53MOL    O8211626   2.653   0.047   0.582  0.4480  0.2913  0.5090
   53MOL    C8311627   2.416   0.075   0.569  0.1456  0.2797 -0.1523
   53MOL    H8411628   2.385   0.238   0.804  0.2465 -0.7158 -1.9402
   53MOL    H8511629   2.507   0.292   0.920  2.4533  1.0705 -0.1359
   53MOL    H8611630   2.662   0.124   0.821  0.7025 -3.1971  0.0663
   53MOL    H8711631   2.339   0.013   0.615 -0.9302  0.9751 -0.9873
   53MOL    H8811632   2.429   0.040   0.467 -1.0342 -1.6877  0.3654
   53MOL    H8911633   2.369   0.173   0.553  0.3901  0.4355  0.0744
   53MOL    C9011634   2.488   0.008   0.879 -0.6224 -0.0064  0.5724
   53MOL    C9111635   2.564   7.728   0.869 -0.3043  0.5549  0.0622
   53MOL    C9211636   2.687   7.727   0.956 -0.2879 -0.5008  0.3393
   53MOL    O9311637   2.679   7.686   1.073  0.0124 -0.2404 -0.0732
   53MOL    C9411638   2.821   7.783   0.915  0.3681  0.0659 -0.3379
   53MOL    H9511639   2.479   0.043   0.981  0.1867  2.5550 -0.2156
   53MOL    H9611640   2.384   0.002   0.846 -0.5573  0.7670  0.2255
   53MOL    H9711641   2.601   7.726   0.766  0.4796 -1.6935  0.3572
   53MOL    H9811642   2.819   7.846   0.826 -0.6096  0.3596 -0.1101
   53MOL    H9911643   2.884   7.818   0.996  3.3205 -1.6012 -1.8273
   53MOL   H10011644   2.885   7.697   0.896  1.3098  0.1354  2.3271
   53MOL   C10111645   2.466   7.614   0.903  0.2681  0.5898 -0.4695
   53MOL   C10211646   2.494   7.474   0.849 -0.3563  0.1737 -0.0320
   53MOL   C10311647   2.491   7.466   0.694 -0.9737  0.3093 -0.4000
   53MOL   O10411648   2.386   7.443   0.626 -0.3279  0.2470  0.3795
   53MOL   C10511649   2.611   7.511   0.621 -0.2332  0.1619 -0.4032
   53MOL   H10611650   2.454   7.616   1.011 -0.5630 -0.7652 -0.5215
   53MOL   H10711651   2.367   7.639   0.863 -0.9213 -2.1819  0.6114
   53MOL   H10811652   2.593   7.454   0.889  0.1283  0.7212 -0.9249
   53MOL   H10911653   2.702   7.522   0.680  0.1847 -1.0608 -0.7998
   53MOL   H11011654   2.630   7.439   0.541 -0.2554  0.5539 -0.7632
   53MOL   H11111655   2.601   7.607   0.571  0.0687  0.0270 -0.7308
   53MOL   C11211656   2.399   7.376   0.918  0.0397  0.0743 -0.9740
   53MOL   C11311657   2.428   7.223   0.888  0.2551 -0.1387 -0.3498
   53MOL   C11411658   2.301   7.140   0.913 -0.4646 -0.4616 -0.0465
   53MOL   O11511659   2.223   7.166   0.999  0.0555  0.0338  0.3153
   53MOL   C11611660   2.287   7.025   0.824 -0.3215 -0.5974  0.7803
   53MOL   H11711661   2.295   7.404   0.900 -0.9179 -3.2646 -0.9099
   53MOL   H11811662   2.422   7.386   1.024  0.4479  0.8109 -1.1219
   53MOL   H11911663   2.443   7.215   0.780  0.1813 -0.5248 -0.3326
   53MOL   H12011664   2.319   6.933   0.872  2.3903 -1.2663 -2.1019
   53MOL   H12111665   2.184   7.015   0.789 -0.4953  2.7639  0.1690
   53MOL   H12211666   2.347   7.036   0.734 -0.2861  1.6930  1.0433
   53MOL   C12311667   2.553   7.174   0.961  0.2808 -0.7185 -0.3300
   53MOL   C12411668   2.687   7.188   0.879  0.2213  0.2611  0.4282
   53MOL   C12511669   2.693   7.090   0.766  0.2122  1.1696  0.3325
   53MOL   O12611670   2.678   7.119   0.649 -0.0888  0.4433  0.0567
   53MOL   C12711671   2.731   6.949   0.790  0.2053 -0.1737 -0.2251
   53MOL   H12811672   2.541   7.075   1.004 -0.5513  0.0347  1.2264
   53MOL   H12911673   2.559   7.231   1.053 -0.6055  1.4141 -1.5409
   53MOL   H13011674   2.672   7.283   0.827  1.6781  0.3011  0.0364
   53MOL   H13111675   2.838   6.936   0.775  0.1764 -0.6299 -0.0444
   53MOL   H13211676   2.679   6.866   0.742 -1.4706  1.1567 -0.7496
   53MOL   H13311677   2.715   6.926   0.896  3.3126  0.3261  0.4134
   53MOL   C13411678   2.811   7.184   0.967 -1.0067 -0.3337  0.9748
   53MOL   C13511679   2.948   7.226   0.889  0.7222 -0.2162 -0.2111
   53MOL   C13611680   2.933   7.362   0.823  0.2845  0.2189 -0.7462
   53MOL   O13711681   2.854   7.448   0.864  0.2777 -0.7367 -0.2726
   53MOL   C13811682   3.020   7.387   0.701 -0.8598 -0.3230  0.5775
   53MOL   H13911683   2.821   7.083   1.006 -2.9915 -1.2163 -0.6638
   53MOL   H14011684   2.803   7.242   1.059  2.7436  0.2293  1.0311
   53MOL   H14111685   2.956   7.152   0.809  1.1723  0.5315 -0.8682
   53MOL   H14211686   3.120   7.345   0.706  0.2304  1.8765 -1.4200
   53MOL   H14311687   3.043   7.492   0.682  0.7905 -0.7390  0.2311
   53MOL   H14411688   2.968   7.329   0.625 -0.8663 -0.3232  0.5820
   53MOL   C14511689   3.071   7.221   0.981 -0.4687  0.2682  0.1636
   53MOL   C14611690   3.119   7.078   1.022 -0.1760  0.6336 -0.5469
   53MOL   C14711691   3.145   6.979   0.910  0.2147 -0.3293 -0.7970
   53MOL   O14811692   3.175   7.023   0.799 -0.2305  0.1411  0.4200
   53MOL   C14911693   3.119   6.834   0.942 -0.6924  0.0876  0.1519
   53MOL   H15011694   3.054   7.274   1.075  1.0480 -1.0768  1.2266
   53MOL   H15111695   3.152   7.269   0.925 -0.4908 -0.1122 -0.1981
   53MOL   H15211696   3.031   7.034   1.069  1.3226 -0.1108  1.5728
   53MOL   H15311697   3.117   6.798   1.045 -0.9238  1.6586  0.6985
   53MOL   H15411698   3.025   6.814   0.891  0.3330 -1.7050 -1.1124
   53MOL   H15511699   3.191   6.777   0.883 -1.3544  1.5355 -2.0866
   53MOL   C15611700   3.248   7.076   1.111 -0.0892  0.5887  0.1483
   53MOL   C15711701   3.251   7.161   1.241 -0.4251  0.4222  0.4415
   53MOL   C15811702   3.389   7.167   1.303 -0.4433 -0.1054 -0.7473
   53MOL   O15911703   3.455   7.064   1.307 -0.0890  0.0257 -0.1809
   53MOL   C16011704   3.449   7.298   1.353 -0.7082  1.2833  0.4445
   53MOL   H16111705   3.256   6.970   1.134  0.8326 -0.3297 -3.9226
   53MOL   H16211706   3.338   7.103   1.055  0.3936 -0.7866  0.2384
   53MOL   H16311707   3.224   7.264   1.217 -1.9414 -0.5444 -2.2778
   53MOL   H16411708   3.543   7.276   1.405  0.0595 -0.3894 -1.5782
   53MOL   H16511709   3.383   7.352   1.421  1.3580  1.9961  1.9417
   53MOL   H16611710   3.483   7.351   1.265  0.5446 -0.7463 -0.3398
   53MOL   C16711711   3.148   7.112   1.342  0.5277  0.3031 -0.3560
   53MOL   C16811712   3.099   7.230   1.440  0.2263  0.0186  0.6177
   53MOL   C16911713   3.108   7.205   1.591  0.7487 -0.5991  0.3651
   53MOL   O17011714   3.154   7.286   1.673  0.1077 -0.5066  0.3538
   53MOL   C17111715   3.053   7.072   1.641 -0.4620 -0.0441  0.1387
   53MOL   H17211716   3.066   7.070   1.285  0.3256  2.5626 -1.7469
   53MOL   H17311717   3.195   7.037   1.407 -1.0989  0.3131  0.8670
   53MOL   H17411718   3.176   7.306   1.432 -1.3779  1.3195 -3.4267
   53MOL   H17511719   2.983   7.036   1.566 -0.1893  0.5236 -0.3938
   53MOL   H17611720   2.999   7.105   1.730  1.3156  0.4026  1.0651
   53MOL   H17711721   3.138   7.006   1.657  0.7871  1.7983  1.3233
   53MOL   C17811722   2.964   7.292   1.395 -0.7280  0.0658 -0.0306
   53MOL   C17911723   2.945   7.446   1.384 -0.8863 -0.0644  0.3049
   53MOL   C18011724   3.051   7.495   1.280 -0.2925  0.4355  0.2033
   53MOL   O18111725   3.171   7.481   1.290  0.4435  0.5321  0.6021
   53MOL   C18211726   2.997   7.545   1.153  0.8454 -0.0744 -0.2650
   53MOL   H18311727   2.941   7.245   1.299  0.1074 -1.2527  0.4002
   53MOL   H18411728   2.884   7.256   1.460 -0.7100 -1.2486 -0.7178
   53MOL   H18511729   2.850   7.477   1.340 -0.0457  0.4445 -1.1974
   53MOL   H18611730   3.055   7.514   1.067  0.3370 -1.3411 -0.1618
   53MOL   H18711731   2.998   7.654   1.157 -0.5477 -0.0657 -0.0205
   53MOL   H18811732   2.893   7.514   1.141  0.0300  2.1532  0.7704
   53MOL   C18911733   2.965   7.519   1.515  0.1169  0.4344 -0.1772
   53MOL   C19011734   2.854   7.517   1.621 -0.2508  0.2140  0.6718
   53MOL   C19111735   2.715   7.535   1.558  1.1331  0.2210 -0.0364
   53MOL   O19211736   2.641   7.441   1.538 -0.0679  0.1190  0.2167
   53MOL   C19311737   2.664   7.674   1.536 -0.3363  0.1670 -0.4545
   53MOL   H19411738   3.058   7.489   1.564  0.0378  1.6712  0.7405
   53MOL   H19511739   2.987   7.625   1.503  1.6762  0.2884  1.1524
   53MOL   H19611740   2.865   7.607   1.681  1.5612 -0.0523  0.7546
   53MOL   H19711741   2.722   7.741   1.600 -0.0471 -1.1569  0.6737
   53MOL   H19811742   2.688   7.694   1.432  0.9419  2.3735  0.2243
   53MOL   H19911743   2.557   7.676   1.555 -0.1845  1.3841  0.3533
   53MOL   C20011744   2.860   7.395   1.712  0.1355  0.3499 -0.2633
   53MOL   C20111745   2.769   7.406   1.838  0.5104  0.5957  0.5512
   53MOL   C20211746   2.823   7.517   1.930 -0.1993 -0.1503 -0.1471
   53MOL   O20311747   2.935   7.506   1.978  1.1392 -0.0313 -0.3387
   53MOL   C20411748   2.736   7.640   1.953  0.5641  0.6897  0.2237
   53MOL   H20511749   2.834   7.311   1.648 -1.3984  0.2922  0.4262
   53MOL   H20611750   2.962   7.392   1.751  0.3837  2.0357 -0.7531
   53MOL   H20711751   2.665   7.428   1.813  0.7083 -0.3150 -1.1699
   53MOL   H20811752   2.781   7.690   2.039  0.4704 -0.9132  1.2174
   53MOL   H20911753   2.753   7.713   1.873  1.1227  1.1447  0.7449
   53MOL   H21011754   2.630   7.620   1.966  0.5859  1.1249  1.0914
   53MOL   C21111755   2.774   7.268   1.908 -0.2942 -0.1885 -0.0263
   53MOL   C21211756   2.676   7.265   2.024 -0.3705 -0.6449 -0.1090
   53MOL   C21311757   2.648   7.125   2.075 -0.2560 -0.0724 -0.4693
   53MOL   O21411758   2.673   7.025   2.008  0.3387 -0.7075 -0.3731
   53MOL   C21511759   2.588   7.119   2.212  0.5307  0.4010  0.5254
   53MOL   H21611760   2.756   7.186   1.840  1.8015 -0.3297 -0.4290
   53MOL   H21711761   2.872   7.240   1.946 -0.7743  0.0526  1.4408
   53MOL   H21811762   2.584   7.301   1.978  1.9462  1.8002 -3.1244
   53MOL   H21911763   2.588   7.016   2.247 -0.6425  0.6117  1.1686
   53MOL   H22011764   2.642   7.184   2.281  0.4565  0.7220  0.2809
   53MOL   H22111765   2.485   7.150   2.200 -0.4259 -3.3751 -2.0478
   53MOL   H22211766   2.704   7.332   2.105 -1.2540 -0.3563 -0.0425
   54MOL     C111767   7.839   3.985   3.946  0.1583  0.6217 -0.6665
   54MOL     C211768   7.726   4.029   3.858 -0.1129 -0.1437  0.4695
   54MOL     C311769   7.614   3.930   3.885 -0.3796  0.3989  0.8878
   54MOL     O411770   7.529   3.938   3.972  0.0821  0.5750 -0.6021
   54MOL     C511771   7.618   3.803   3.797  0.5570 -0.3664 -0.3470
   54MOL     H611772   0.030   3.902   3.895 -1.2237  0.2049 -1.3237
   54MOL     H711773   7.804   3.950   4.044 -2.2014 -0.2022 -1.7793
   54MOL     H811774   7.768   4.027   3.758 -0.8095  0.2216  0.1609
   54MOL     H911775   7.661   3.819   3.698 -0.8548  2.4092 -0.5632
   54MOL    H1011776   7.680   3.724   3.839 -0.0340 -0.4561  0.3717
   54MOL    H1111777   7.511   3.782   3.802  0.4252  0.1912 -0.7866
   54MOL    H1211778   0.065   4.056   3.952  0.5381  0.1785 -0.6990
   54MOL    C1311779   7.678   4.180   3.879 -0.0853 -0.7236  0.3716
   54MOL    C1411780   7.592   4.231   3.765  0.0348 -0.1451  0.6979
   54MOL    C1511781   7.674   4.259   3.638  0.5700  0.0114 -0.0344
   54MOL    O1611782   7.749   4.354   3.626 -0.1666  0.2484 -0.7341
   54MOL    C1711783   7.642   4.158   3.527  0.6918 -0.0833  0.1774
   54MOL    H1811784   7.622   4.171   3.972 -0.1145  0.5191  0.4735
   54MOL    H1911785   7.759   4.248   3.901 -1.6064  1.6750 -1.2211
   54MOL    H2011786   7.513   4.160   3.742 -1.1344  1.3998 -0.2224
   54MOL    H2111787   7.607   4.203   3.434 -0.3276 -0.8878  0.1580
   54MOL    H2211788   7.734   4.109   3.494  0.4680 -0.4279  0.0652
   54MOL    H2311789   7.572   4.083   3.564 -0.4431  0.4513 -0.8579
   54MOL    C2411790   7.529   4.359   3.829 -0.3514 -0.0319  0.0065
   54MOL    C2511791   7.427   4.435   3.749 -0.4037  0.4577 -0.3685
   54MOL    C2611792   7.317   4.347   3.698  0.4959 -0.9239  0.0066
   54MOL    O2711793   7.258   4.356   3.589 -0.4737  0.3250 -0.1877
   54MOL    C2811794   7.250   4.259   3.808 -0.0113  0.3968  0.3005
   54MOL    H2911795   7.482   4.336   3.925  0.5598  0.6864  0.6343
   54MOL    H3011796   7.605   4.435   3.848 -1.2117  0.6694  0.7261
   54MOL    H3111797   7.461   4.481   3.657 -0.5522  0.5271 -0.3894
   54MOL    H3211798   7.337   4.195   3.823  0.6948  1.5736  1.3134
   54MOL    H3311799   7.225   4.314   3.899  1.9705 -0.1386  1.2067
   54MOL    H3411800   7.166   4.211   3.758 -0.4143 -0.7042  1.9855
   54MOL    C3511801   7.380   4.561   3.824  0.6384 -0.7286 -0.9982
   54MOL    C3611802   7.474   4.689   3.831 -0.0770  0.9089 -0.6663
   54MOL    C3711803   7.487   4.759   3.695 -0.3393  0.1922 -0.0225
   54MOL    O3811804   7.385   4.769   3.618 -0.2959 -0.0039 -0.2174
   54MOL    C3911805   7.618   4.828   3.649  0.1498 -0.6214 -0.1823
   54MOL    H4011806   7.341   4.517   3.915 -1.3406  0.1347 -1.3883
   54MOL    H4111807   7.281   4.584   3.783 -0.4675  1.2284  2.5703
   54MOL    H4211808   7.572   4.648   3.857 -0.0574  3.1645  3.3147
   54MOL    H4311809   7.590   4.914   3.588 -1.6712 -0.5258  0.7555
   54MOL    H4411810   7.679   4.753   3.597  1.9151  2.0108 -2.0249
   54MOL    H4511811   7.666   4.852   3.744  1.4221  0.1015 -0.9914
   54MOL    C4611812   7.418   4.782   3.935 -0.0103  0.1180  0.2507
   54MOL    C4711813   7.469   4.757   4.073 -0.2375  0.5954 -0.4394
   54MOL    C4811814   7.614   4.809   4.099 -0.1039  0.4574  0.2860
   54MOL    O4911815   7.667   4.882   4.021 -0.2579 -0.1040 -0.9234
   54MOL    C5011816   7.686   4.746   4.215 -0.4574 -0.4715 -1.1599
   54MOL    H5111817   7.311   4.783   3.915  0.3234  2.6178 -1.6884
   54MOL    H5211818   7.448   4.882   3.902  0.8040 -0.4336 -0.7147
   54MOL    H5311819   7.462   4.649   4.085  1.3708  0.2770 -2.2136
   54MOL    H5411820   7.684   4.812   4.302 -0.6009 -0.0135 -1.5058
   54MOL    H5511821   7.653   4.646   4.244 -2.8115  0.5670 -0.1763
   54MOL    H5611822   7.791   4.737   4.186 -0.4702  1.2108 -1.7663
   54MOL    C5711823   7.365   4.820   4.168 -0.3769  0.3559 -0.1613
   54MOL    C5811824   7.241   4.732   4.200 -0.4866  0.4588  0.8004
   54MOL    C5911825   7.267   4.604   4.283 -0.3110  0.3610  0.1586
   54MOL    O6011826   7.283   4.608   4.408  0.3970  0.1690  0.2927
   54MOL    C6111827   7.292   4.475   4.206  0.2954  0.1877  0.4539
   54MOL    H6211828   7.357   4.922   4.130 -1.2273 -0.0384 -1.0634
   54MOL    H6311829   7.410   4.835   4.266 -0.9630 -2.3374  0.5498
   54MOL    H6411830   7.202   4.693   4.106 -1.6860  0.8845  1.1148
   54MOL    H6511831   7.382   4.473   4.145  0.6743  1.8573  0.9315
   54MOL    H6611832   7.303   4.398   4.283  0.0754 -0.9252 -0.6211
   54MOL    H6711833   7.205   4.441   4.149  0.7354  1.2478 -0.8671
   54MOL    C6811834   7.122   4.824   4.242  0.1835  0.0921 -0.4309
   54MOL    C6911835   6.989   4.736   4.238  0.4713  0.1710  0.8612
   54MOL    C7011836   6.890   4.775   4.127 -0.2869 -0.0994  0.1279
   54MOL    O7111837   6.791   4.850   4.138  0.0051 -0.1446 -0.0586
   54MOL    C7211838   6.924   4.713   3.988 -0.1748 -0.6334  0.5287
   54MOL    H7311839   7.130   4.874   4.338 -3.5364  0.8614 -0.4610
   54MOL    H7411840   7.115   4.903   4.167 -1.4829 -0.1497 -0.5436
   54MOL    H7511841   7.022   4.635   4.214  1.0211  0.9843 -1.9293
   54MOL    H7611842   6.828   4.695   3.940 -0.5162 -0.3662  1.1055
   54MOL    H7711843   6.992   4.767   3.922  0.7272 -0.8233  1.2910
   54MOL    H7811844   6.972   4.619   4.014  1.9555  0.0742 -0.7881
   54MOL    C7911845   6.917   4.739   4.378 -0.1421 -0.1321  0.4133
   54MOL    C8011846   6.811   4.633   4.386  0.1034  0.3114  0.2179
   54MOL    C8111847   6.687   4.672   4.472 -0.2139 -0.3983  0.4119
   54MOL    O8211848   6.647   4.597   4.566 -0.7298 -0.7390  0.0105
   54MOL    C8311849   6.609   4.798   4.437 -0.4672 -0.2190 -0.1138
   54MOL    H8411850   6.880   4.837   4.407 -1.4145 -0.0615 -1.4083
   54MOL    H8511851   6.987   4.718   4.459  0.7453  2.1710  0.2785
   54MOL    H8611852   6.773   4.610   4.286 -1.3676 -1.1138  1.0846
   54MOL    H8711853   6.505   4.766   4.441 -0.9338  1.2581 -0.2777
   54MOL    H8811854   6.621   4.822   4.331 -1.0244 -1.6254 -0.5081
   54MOL    H8911855   6.619   4.885   4.501 -1.2175  1.1879 -1.8496
   54MOL    C9011856   6.883   4.503   4.433  0.2652  0.2367  1.1565
   54MOL    C9111857   6.802   4.369   4.405  0.1021  0.3289 -0.3416
   54MOL    C9211858   6.783   4.351   4.256 -0.0953 -0.0218  0.9867
   54MOL    O9311859   6.881   4.354   4.174  0.1186  0.4242 -0.2333
   54MOL    C9411860   6.640   4.337   4.197 -0.2053 -0.0072 -0.2494
   54MOL    H9511861   6.976   4.495   4.377 -0.4899  1.6578 -0.3517
   54MOL    H9611862   6.910   4.506   4.538  3.5972 -2.3060  0.4535
   54MOL    H9711863   6.704   4.378   4.451  1.0725  2.1622  1.4946
   54MOL    H9811864   6.648   4.351   4.089 -1.3335  3.4606  0.0636
   54MOL    H9911865   6.599   4.237   4.215 -0.0435  0.3019  1.9359
   54MOL   H10011866   6.569   4.417   4.214  1.0056  1.5271 -2.2434
   54MOL   C10111867   6.889   4.258   4.457  0.0001 -0.2515 -0.3797
   54MOL   C10211868   6.817   4.129   4.506 -0.2012 -0.2398 -1.0439
   54MOL   C10311869   6.706   4.156   4.607  0.0648  0.4342  0.2207
   54MOL   O10411870   6.729   4.223   4.705 -0.1719  0.1634  0.3883
   54MOL   C10511871   6.580   4.063   4.608 -0.0060 -0.2100  0.6956
   54MOL   H10611872   6.965   4.228   4.384  0.0412 -0.8869 -0.0758
   54MOL   H10711873   6.943   4.292   4.546 -0.5445 -0.2911 -0.0355
   54MOL   H10811874   6.781   4.085   4.414  0.2701  0.4083 -1.5399
   54MOL   H10911875   6.591   3.994   4.691 -1.3462 -2.5365 -0.9863
   54MOL   H11011876   6.494   4.130   4.613  0.4004  0.4063 -0.3494
   54MOL   H11111877   6.574   4.009   4.513 -2.3205 -0.8436  1.1742
   54MOL   C11211878   6.920   4.031   4.562 -0.2858 -0.5138  0.6488
   54MOL   C11311879   6.882   3.886   4.555  0.6223  0.9680  0.8340
   54MOL   C11411880   6.940   3.798   4.665  0.2194 -0.2309 -0.0685
   54MOL   O11511881   7.049   3.736   4.650 -1.0216  0.0223 -0.5047
   54MOL   C11611882   6.856   3.787   4.790  0.6920 -0.5242  0.2807
   54MOL   H11711883   6.959   4.053   4.661 -0.1570 -0.4570  0.5852
   54MOL   H11811884   7.013   4.043   4.507 -1.0749  1.3743 -0.2998
   54MOL   H11911885   6.774   3.872   4.570  0.6394 -0.8151 -0.4915
   54MOL   H12011886   6.910   3.741   4.873 -1.0394  0.4277  1.9624
   54MOL   H12111887   6.814   3.882   4.823  0.9615 -0.2517 -0.1441
   54MOL   H12211888   6.777   3.719   4.757 -0.3521  1.2169 -0.9015
   54MOL   C12311889   6.919   3.832   4.415 -0.1385  0.0134  0.0384
   54MOL   C12411890   6.869   3.687   4.392  0.2946 -0.6375 -0.3356
   54MOL   C12511891   6.934   3.622   4.269 -0.1669  0.4565  0.2275
   54MOL   O12611892   6.906   3.665   4.159  0.2659 -0.1955  0.0419
   54MOL   C12711893   7.018   3.492   4.291  0.4781 -0.4562  0.5974
   54MOL   H12811894   7.027   3.830   4.399 -0.0155  0.9556  0.7100
   54MOL   H12911895   6.870   3.902   4.347 -1.3072 -0.6245  0.2199
   54MOL   H13011896   6.890   3.621   4.476  0.7647 -1.8190 -1.3707
   54MOL   H13111897   6.951   3.409   4.271 -0.0637 -0.0445  0.6800
   54MOL   H13211898   7.059   3.486   4.392  2.6534  2.0334 -0.0810
   54MOL   H13311899   7.097   3.484   4.217 -0.5282 -0.4814 -0.4815
   54MOL   C13411900   6.710   3.691   4.376 -0.2102  0.3870  0.5023
   54MOL   C13511901   6.645   3.550   4.362  0.6226  1.1538 -0.0325
   54MOL   C13611902   6.684   3.447   4.479 -0.1491 -0.9126 -0.0883
   54MOL   O13711903   6.727   3.485   4.584  0.3273  0.2597 -0.0323
   54MOL   C13811904   6.677   3.298   4.454  0.3088 -0.5164  0.8397
   54MOL   H13911905   6.678   3.754   4.294 -2.2659  1.3972  2.0434
   54MOL   H14011906   6.678   3.740   4.468 -1.0635 -0.6978  0.7893
   54MOL   H14111907   6.685   3.514   4.267  0.8043  1.9632 -0.2699
   54MOL   H14211908   6.571   3.273   4.456  0.4955 -1.4624 -0.5798
   54MOL   H14311909   6.719   3.226   4.523 -0.5535  0.8671  2.8585
   54MOL   H14411910   6.708   3.274   4.352  0.1712 -0.9578  0.8999
   54MOL   C14511911   6.494   3.566   4.349 -0.0052  0.1246  0.4611
   54MOL   C14611912   6.428   3.450   4.265  0.1642 -0.2698 -0.2638
   54MOL   C14711913   6.284   3.422   4.306 -0.9355  0.0888  0.4139
   54MOL   O14811914   6.212   3.519   4.326  0.1709  0.3896 -0.0103
   54MOL   C14911915   6.242   3.284   4.333 -0.0036 -0.4293 -0.1281
   54MOL   H15011916   6.463   3.661   4.305  0.7831  1.5679  2.8972
   54MOL   H15111917   6.463   3.573   4.453 -1.3335  0.3145  0.0623
   54MOL   H15211918   6.488   3.363   4.290  0.8677  0.8314  1.9994
   54MOL   H15311919   6.263   3.258   4.437 -0.4748  2.8705  0.8560
   54MOL   H15411920   6.140   3.270   4.299  0.0320  0.6248 -0.7007
   54MOL   H15511921   6.300   3.210   4.278  0.1976 -1.8913  1.9840
   54MOL   C15611922   6.440   3.470   4.116  0.0812 -0.7387 -0.1135
   54MOL   C15711923   6.369   3.593   4.047  0.0703  0.2231 -0.1327
   54MOL   C15811924   6.225   3.562   4.005  0.3985 -0.0827  0.9712
   54MOL   O15911925   6.190   3.446   3.993  0.2147 -0.0031  0.3166
   54MOL   C16011926   6.123   3.680   3.989 -0.1733 -0.7824  0.9865
   54MOL   H16111927   6.547   3.492   4.107  0.0480 -0.4666  0.1683
   54MOL   H16211928   6.415   3.372   4.075  0.2477 -1.1169  0.6820
   54MOL   H16311929   6.364   3.668   4.126 -4.4921  0.7973 -0.8162
   54MOL   H16411930   6.074   3.670   3.892 -0.1064  1.6834  0.6715
   54MOL   H16511931   6.179   3.770   3.966 -1.0071 -0.8598 -1.4974
   54MOL   H16611932   6.048   3.698   4.065  0.5159  2.0862  1.0475
   54MOL   C16711933   6.438   3.654   3.926  0.9622  0.4144 -0.4523
   54MOL   C16811934   6.555   3.754   3.958  0.5060  0.3882  0.0589
   54MOL   C16911935   6.502   3.895   4.010 -0.7809 -0.4972 -0.5165
   54MOL   O17011936   6.532   3.926   4.125  0.4335 -0.5604 -0.3767
   54MOL   C17111937   6.423   3.991   3.920 -0.1712  0.0135  0.3840
   54MOL   H17211938   6.467   3.564   3.871  1.0822 -0.7653  1.4834
   54MOL   H17311939   6.364   3.715   3.875  1.2094  0.9415 -0.1864
   54MOL   H17411940   6.626   3.707   4.026 -0.6040  2.0295  2.4267
   54MOL   H17511941   6.343   4.049   3.965 -0.1367 -0.5631  1.2014
   54MOL   H17611942   6.383   3.933   3.837  0.8178 -0.4427  0.2195
   54MOL   H17711943   6.492   4.064   3.879 -0.6804 -0.8475 -2.0765
   54MOL   C17811944   6.635   3.768   3.822  0.2104 -0.2029  0.1167
   54MOL   C17911945   6.784   3.813   3.835 -0.1246 -1.1245 -0.2119
   54MOL   C18011946   6.795   3.957   3.879  0.5421  0.5732  0.2242
   54MOL   O18111947   6.734   4.044   3.824  0.6698  0.0635 -0.6783
   54MOL   C18211948   6.883   3.989   3.999 -0.4154 -0.8248  0.1497
   54MOL   H18311949   6.639   3.671   3.772 -0.0208  0.2491 -0.7845
   54MOL   H18411950   6.573   3.822   3.751 -1.4461 -2.3865 -0.1622
   54MOL   H18511951   6.837   3.759   3.914  0.1828 -1.1201 -0.4147
   54MOL   H18611952   6.855   3.926   4.083 -1.8750 -1.8320 -1.0558
   54MOL   H18711953   6.871   4.092   4.032 -2.6703 -0.9274 -0.2308
   54MOL   H18811954   6.987   3.968   3.978 -0.2697 -1.0321  1.0706
   54MOL   C18911955   6.863   3.806   3.698 -0.4104  0.4088  0.2089
   54MOL   C19011956   7.019   3.838   3.699  0.7527  0.6018 -0.1953
   54MOL   C19111957   7.084   3.748   3.808  0.6120  0.1816 -0.6421
   54MOL   O19211958   7.059   3.627   3.818 -0.1323  0.3476 -0.7079
   54MOL   C19311959   7.191   3.814   3.892  0.2335 -0.4128 -0.0168
   54MOL   H19411960   6.841   3.711   3.649 -2.5352  1.0778 -0.1849
   54MOL   H19511961   6.821   3.882   3.632 -0.7945 -0.4285 -0.5209
   54MOL   H19611962   7.034   3.944   3.717  1.5032  0.2886  1.1446
   54MOL   H19711963   7.169   3.819   3.998  0.7333 -2.2640  0.2038
   54MOL   H19811964   7.286   3.760   3.885  0.1079 -0.4059 -2.3857
   54MOL   H19911965   7.215   3.906   3.839  0.0515 -1.4713 -2.0076
   54MOL   C20011966   7.077   3.792   3.563 -0.3410 -0.9248  0.7482
   54MOL   C20111967   7.211   3.841   3.512  0.2259  0.6017  0.7736
   54MOL   C20211968   7.220   3.994   3.511 -0.0164  0.6144 -0.5507
   54MOL   O20311969   7.323   4.048   3.560  0.4237  0.7611  0.2092
   54MOL   C20411970   7.108   4.078   3.449  0.2262  0.5604  0.7837
   54MOL   H20511971   7.091   3.684   3.570  0.2865 -0.8694  0.3399
   54MOL   H20611972   7.011   3.820   3.480  0.9482 -0.7272 -0.2247
   54MOL   H20711973   7.289   3.810   3.582  0.5966 -0.9497 -0.2827
   54MOL   H20811974   7.100   4.182   3.480  0.7816  1.5075 -2.0399
   54MOL   H20911975   7.134   4.106   3.347 -1.0448  0.8019  0.5119
   54MOL   H21011976   7.010   4.032   3.441 -0.2637  1.1318  3.0825
   54MOL   C21111977   7.247   3.776   3.371  0.3335  0.4027  0.2426
   54MOL   C21211978   7.386   3.813   3.321  0.3101  0.2029  1.6696
   54MOL   C21311979   7.508   3.749   3.393 -0.0341  0.6307 -0.1261
   54MOL   O21411980   7.482   3.662   3.473  0.2173 -0.2546 -0.5063
   54MOL   C21511981   7.651   3.784   3.362  0.1077  0.2186 -0.7994
   54MOL   H21611982   7.233   3.669   3.382 -0.0911  0.2970 -1.1929
   54MOL   H21711983   7.169   3.809   3.302 -0.1320 -0.8598  0.1679
   54MOL   H21811984   7.396   3.922   3.322 -0.1556  0.2606  0.8757
   54MOL   H21911985   7.687   3.715   3.285 -0.1422  0.7652 -1.4136
   54MOL   H22011986   7.663   3.881   3.313  0.2178  0.5031 -0.2032
   54MOL   H22111987   7.706   3.791   3.455  0.1146  0.1357 -0.7970
   54MOL   H22211988   7.386   3.787   3.215  3.3829  0.9893  1.4289
   55MOL     C111989   7.691   5.110   0.863  0.2586 -0.4210 -0.1053
   55MOL     C211990   7.702   5.045   1.001  0.0992 -0.2796 -0.1410
   55MOL     C311991   7.565   4.993   1.041  0.1650 -0.0279 -0.0748
   55MOL     O411992   7.537   4.872   1.055  0.5138 -0.2634  0.5316
   55MOL     C511993   7.458   5.095   1.070  0.0291 -0.1912 -0.0356
   55MOL     H611994   7.633   5.201   0.848  1.3486  0.0351 -1.5990
   55MOL     H711995   7.645   5.046   0.787  0.6047  0.6424 -1.2270
   55MOL     H811996   7.731   5.123   1.072  0.7952 -1.4743  0.9122
   55MOL     H911997   7.391   5.113   0.987 -1.3053 -1.2297  0.7958
   55MOL    H1011998   7.404   5.059   1.158  0.2069 -0.9538 -0.2316
   55MOL    H1111999   7.510   5.189   1.090  2.8071 -1.8743  0.9208
   55MOL    H1212000   7.792   5.117   0.823  0.6276 -0.7926  0.7465
   55MOL    C1312001   7.810   4.937   1.006 -0.2371  0.1567 -0.3979
   55MOL    C1412002   7.850   4.856   1.140 -0.4303  0.0425  0.4778
   55MOL    C1512003   0.058   4.953   1.240  0.5822  0.2518 -0.0691
   55MOL    O1612004   0.006   4.989   1.347  0.4314 -0.7332  0.2781
   55MOL    C1712005   0.188   5.017   1.201 -0.2407 -0.7497 -0.1191
   55MOL    H1812006   7.787   4.861   0.932 -0.4751 -1.3096  1.1550
   55MOL    H1912007   0.053   4.966   0.973  0.1585 -1.0632 -0.2753
   55MOL    H2012008   7.761   4.813   1.186 -1.2060  1.3120  0.1862
   55MOL    H2112009   0.164   5.111   1.152  0.0647 -0.6147 -0.0094
   55MOL    H2212010   0.255   5.038   1.284 -0.9069  4.3791 -0.7651
   55MOL    H2312011   0.251   4.952   1.139 -1.3310 -1.5383 -0.4192
   55MOL    C2412012   0.079   4.735   1.106  0.0627 -0.1240  0.0099
   55MOL    C2512013   0.092   4.637   1.220 -0.6705  0.1358 -0.0418
   55MOL    C2612014   0.107   4.496   1.160  0.5111  0.0136 -0.0171
   55MOL    O2712015   0.214   4.443   1.143  0.7454  0.0576  0.3415
   55MOL    C2812016   7.838   4.421   1.112 -0.1641 -0.4158  0.9402
   55MOL    H2912017   0.029   4.678   1.027 -0.6311  2.2972 -1.3477
   55MOL    H3012018   0.176   4.764   1.065  0.4963  0.2283  1.2663
   55MOL    H3112019   0.006   4.626   1.287 -1.1423 -1.8550 -0.9378
   55MOL    H3212020   0.003   4.314   1.105  0.5678 -0.2348  0.4600
   55MOL    H3312021   7.758   4.429   1.186 -1.3292  0.6976 -0.4188
   55MOL    H3412022   7.809   4.444   1.010  0.3976 -1.0165  0.6403
   55MOL    C3512023   0.212   4.672   1.306  0.4660  0.8418  0.1631
   55MOL    C3612024   0.259   4.564   1.408 -0.4887 -0.4062  0.7711
   55MOL    C3712025   0.412   4.591   1.431  0.4512  0.3180  0.1300
   55MOL    O3812026   0.448   4.677   1.511 -0.2707 -0.3805 -0.3032
   55MOL    C3912027   0.520   4.507   1.368 -0.2918 -0.3523 -0.4053
   55MOL    H4012028   0.180   4.759   1.363 -0.2041  1.2634 -0.8397
   55MOL    H4112029   0.290   4.714   1.243 -0.5733  1.1226 -0.9694
   55MOL    H4212030   0.262   4.464   1.365 -0.0942  0.6009 -1.6147
   55MOL    H4312031   0.529   4.405   1.405 -1.8353 -0.7038 -0.9533
   55MOL    H4412032   0.615   4.560   1.376 -2.2235  3.0081  1.7651
   55MOL    H4512033   0.499   4.501   1.261 -1.2518 -4.1409 -0.0489
   55MOL    C4612034   0.194   4.555   1.545  0.3352 -0.4216  0.8610
   55MOL    C4712035   0.070   4.454   1.539 -0.3900 -0.1792  0.5963
   55MOL    C4812036   0.118   4.307   1.520  0.9370  0.2124 -0.1599
   55MOL    O4912037   0.236   4.266   1.513  0.0445  0.4888  0.0903
   55MOL    C5012038   0.003   4.206   1.496 -0.8899 -0.8310  0.4454
   55MOL    H5112039   0.155   4.653   1.573 -1.3960 -0.8474  0.0245
   55MOL    H5212040   0.258   4.527   1.629 -1.8549 -2.3432  1.9702
   55MOL    H5312041   0.010   4.477   1.451  1.4888  1.5887 -0.2736
   55MOL    H5412042   7.785   4.263   1.443  0.0499  0.8938  0.8978
   55MOL    H5512043   0.031   4.134   1.419 -0.1673 -0.0251 -0.0602
   55MOL    H5612044   7.826   4.158   1.588  2.0818  0.6228  2.4192
   55MOL    C5712045   7.833   4.472   1.659  0.5737 -0.3283  0.2357
   55MOL    C5812046   7.731   4.586   1.651  0.4742 -0.2295 -0.4899
   55MOL    C5912047   7.661   4.588   1.515 -0.2280  0.4466 -0.2888
   55MOL    O6012048   7.607   4.482   1.476  0.1838  0.3663  0.1007
   55MOL    C6112049   7.661   4.718   1.435 -0.2037 -0.0854  0.6592
   55MOL    H6212050   0.043   4.477   1.744 -0.2674  1.2183  0.8441
   55MOL    H6312051   7.773   4.382   1.668  0.5618 -0.6101 -2.1619
   55MOL    H6412052   7.797   4.672   1.657 -2.4659  1.8965  2.3677
   55MOL    H6512053   7.572   4.780   1.445  0.8894  1.3268  1.8003
   55MOL    H6612054   7.751   4.771   1.463 -0.4584  0.7443 -0.0537
   55MOL    H6712055   7.663   4.692   1.329 -1.1740 -0.6060  0.7632
   55MOL    C6812056   7.623   4.579   1.759  0.0800  0.2913  0.5638
   55MOL    C6912057   7.538   4.703   1.794  0.2365  0.3288  0.0462
   55MOL    C7012058   7.627   4.820   1.825  0.3714 -0.2313  0.6167
   55MOL    O7112059   7.702   4.807   1.922 -0.6488  0.0858  0.5046
   55MOL    C7212060   7.622   4.946   1.733  0.0824  0.1719  0.3361
   55MOL    H7312061   7.557   4.494   1.741  0.5269 -0.2654  1.5257
   55MOL    H7412062   7.674   4.548   1.850  0.5765 -1.7519 -0.3887
   55MOL    H7512063   7.486   4.730   1.702 -1.4165  0.9174  1.1314
   55MOL    H7612064   7.538   4.941   1.663 -1.5891 -0.9251  2.3894
   55MOL    H7712065   7.618   5.038   1.790 -0.3622 -0.1248  0.7866
   55MOL    H7812066   7.709   4.960   1.668 -0.8951  3.1985 -0.4194
   55MOL    C7912067   7.429   4.672   1.900 -0.2539  0.0298  0.5241
   55MOL    C8012068   7.331   4.779   1.951  0.0404  0.8991 -0.8621
   55MOL    C8112069   7.266   4.859   1.834  0.2054 -0.1047  0.1456
   55MOL    O8212070   7.323   4.955   1.780 -0.1822 -0.3275 -0.1358
   55MOL    C8312071   7.139   4.804   1.771 -0.1773  0.1422 -0.8240
   55MOL    H8412072   7.482   4.612   1.974 -1.4516 -0.1429  1.2535
   55MOL    H8512073   7.363   4.597   1.856 -0.7663  0.5946  0.3346
   55MOL    H8612074   7.252   4.722   2.000  2.5060 -3.5983 -1.9166
   55MOL    H8712075   7.145   4.828   1.664 -1.9465  2.7230 -0.3913
   55MOL    H8812076   7.046   4.847   1.808  1.0868  1.0067  1.4604
   55MOL    H8912077   7.143   4.696   1.780 -0.1258  0.1512 -0.7445
   55MOL    C9012078   7.395   4.868   2.055 -0.3070  0.7652 -0.1085
   55MOL    C9112079   7.308   4.927   2.165 -0.7287  0.6901  0.3591
   55MOL    C9212080   7.244   4.817   2.254 -0.3706 -0.4848  0.8878
   55MOL    O9312081   7.305   4.766   2.348  0.4925 -0.6392  0.6854
   55MOL    C9412082   7.107   4.768   2.221  0.4811  0.2657 -1.3830
   55MOL    H9512083   7.477   4.821   2.109 -1.2486 -0.1338  0.5505
   55MOL    H9612084   7.447   4.953   2.010 -0.7159  1.5550  0.8742
   55MOL    H9712085   7.231   4.985   2.115  0.4656  1.9836 -0.0186
   55MOL    H9812086   7.109   4.667   2.180  0.0196 -0.8492  1.3021
   55MOL    H9912087   7.046   4.757   2.310  1.1292  0.7985 -0.8713
   55MOL   H10012088   7.051   4.828   2.149 -0.7375  0.3655 -0.3630
   55MOL   C10112089   7.384   5.027   2.256 -0.6196 -0.0591  0.1945
   55MOL   C10212090   7.303   5.080   2.374 -0.6241  0.0162  0.3367
   55MOL   C10312091   7.188   5.169   2.330  0.1000  0.0683  0.3773
   55MOL   O10412092   7.203   5.269   2.261 -0.7844 -0.3701  0.5930
   55MOL   C10512093   7.050   5.109   2.346  0.5176 -0.3441 -0.4560
   55MOL   H10612094   7.473   4.979   2.297 -0.6987  0.2331  0.7199
   55MOL   H10712095   7.420   5.107   2.191  1.4097 -0.5266  0.7091
   55MOL   H10812096   7.258   5.000   2.433  0.9773 -0.2344  1.2384
   55MOL   H10912097   7.051   5.024   2.415  0.5195 -0.4378 -0.5706
   55MOL   H11012098   6.981   5.183   2.386 -0.4806 -1.0256 -0.9059
   55MOL   H11112099   7.025   5.064   2.250  0.4906 -0.9163 -0.1854
   55MOL   C11212100   7.398   5.158   2.470 -0.5922  0.1280 -0.0133
   55MOL   C11312101   7.466   5.069   2.570  0.2294  0.2525  0.7712
   55MOL   C11412102   7.367   5.041   2.689  0.1915  0.2106 -0.4422
   55MOL   O11512103   7.275   5.114   2.719  0.3385 -0.5689  0.2289
   55MOL   C11612104   7.389   4.907   2.762  0.1543 -0.4905 -0.4884
   55MOL   H11712105   7.350   5.236   2.529  0.6913 -0.6067  2.0446
   55MOL   H11812106   7.475   5.215   2.417 -2.3898 -0.5867 -3.5317
   55MOL   H11912107   7.486   4.973   2.522  0.9754 -0.3776  2.3044
   55MOL   H12012108   7.317   4.901   2.843 -0.4791  0.6594 -0.9587
   55MOL   H12112109   7.362   4.821   2.700  0.0498 -1.6274  1.1083
   55MOL   H12212110   7.495   4.896   2.785  0.3296  0.5758 -0.7571
   55MOL   C12312111   7.601   5.123   2.625 -0.5139  0.0871 -0.6572
   55MOL   C12412112   7.725   5.074   2.552 -0.5743 -0.4606 -0.8628
   55MOL   C12512113   7.737   5.139   2.408  0.0741 -0.0962  0.2686
   55MOL   O12612114   7.695   5.078   2.310 -0.0735  0.0558  0.3402
   55MOL   C12712115   7.811   5.280   2.402 -0.6934  0.4085 -0.2513
   55MOL   H12812116   7.601   5.089   2.729  0.7969 -2.4902 -1.4771
   55MOL   H12912117   7.603   5.232   2.632  2.4495  0.1898 -2.5053
   55MOL   H13012118   7.816   5.109   2.600 -0.1705  0.0501 -1.9784
   55MOL   H13112119   0.058   5.258   2.425 -0.4984 -0.0688 -1.5153
   55MOL   H13212120   7.786   5.357   2.474  0.4604  0.8782 -0.3387
   55MOL   H13312121   7.801   5.322   2.302 -1.3409 -3.4308 -1.9182
   55MOL   C13412122   7.734   4.926   2.545  0.2035  0.0913  0.1350
   55MOL   C13512123   0.009   4.856   2.546  0.0907  0.9072 -0.3946
   55MOL   C13612124   0.082   4.892   2.677 -0.5416  0.2705 -0.8254
   55MOL   O13712125   0.207   4.904   2.675  0.2066  0.1482 -0.2326
   55MOL   C13812126   0.006   4.907   2.813 -0.6381  0.0432  0.7310
   55MOL   H13912127   7.681   4.891   2.456 -0.0596  2.0415 -0.5141
   55MOL   H14012128   7.677   4.880   2.625  2.3098 -1.3359  0.8282
   55MOL   H14112129   0.064   4.894   2.460 -0.1274 -1.0614 -1.4525
   55MOL   H14212130   0.076   4.921   2.896  1.0069  0.0822 -0.6423
   55MOL   H14312131   7.795   4.822   2.818 -1.8947  1.0200  0.5233
   55MOL   H14412132   7.817   5.005   2.809 -1.0406 -0.2414 -2.9571
   55MOL   C14512133   7.856   4.702   2.539 -0.3686  0.0699  0.5940
   55MOL   C14612134   0.131   4.634   2.497 -0.4986  0.5650 -0.9982
   55MOL   C14712135   0.124   4.478   2.505  0.3259  0.3981  0.3994
   55MOL   O14812136   0.079   4.414   2.413  0.5914 -0.0785  0.9646
   55MOL   C14912137   0.185   4.416   2.624 -0.2476  0.0693  0.0079
   55MOL   H15012138   7.782   4.676   2.464  2.4950 -0.0001 -2.3394
   55MOL   H15112139   7.812   4.667   2.632 -0.3426  0.3268  0.7033
   55MOL   H15212140   0.209   4.663   2.567 -0.8790  0.2454 -0.4341
   55MOL   H15312141   0.221   4.315   2.606 -1.9128 -0.2787 -1.4468
   55MOL   H15412142   0.277   4.472   2.640 -0.1796 -0.6113  2.1692
   55MOL   H15512143   0.125   4.428   2.714  1.9537 -0.8599  1.6511
   55MOL   C15612144   0.182   4.665   2.352  0.0322 -0.4284  1.5226
   55MOL   C15712145   0.328   4.620   2.316 -0.3274  0.6827 -0.2196
   55MOL   C15812146   0.426   4.702   2.399  0.6419  0.8768 -0.1493
   55MOL   O15912147   0.484   4.642   2.486 -0.1405  0.3712 -1.1369
   55MOL   C16012148   0.439   4.850   2.384 -0.5676  0.5501  0.1137
   55MOL   H16112149   0.108   4.629   2.281  0.5005 -0.1014  0.8567
   55MOL   H16212150   0.176   4.773   2.333  0.5731 -0.5898  0.3861
   55MOL   H16312151   0.340   4.522   2.362  0.6998  0.6527 -0.5355
   55MOL   H16412152   0.398   4.902   2.298 -2.3553  1.4277  1.4663
   55MOL   H16512153   0.547   4.865   2.393 -0.4708  1.5360 -2.4159
   55MOL   H16612154   0.388   4.890   2.472 -0.1366  1.3884 -0.0070
   55MOL   C16712155   0.364   4.635   2.174  0.9392 -0.1957  0.0655
   55MOL   C16812156   0.268   4.577   2.059 -0.2029 -0.2757 -0.2711
   55MOL   C16912157   0.243   4.423   2.083  0.0295  0.3495 -0.0999
   55MOL   O17012158   0.329   4.358   2.134  0.3839  0.3937  0.4282
   55MOL   C17112159   0.113   4.360   2.039 -0.0602  0.3633 -0.1296
   55MOL   H17212160   0.369   4.740   2.145 -1.0263 -0.3021 -0.6767
   55MOL   H17312161   0.461   4.587   2.159  0.7487 -0.6440  0.2631
   55MOL   H17412162   0.172   4.628   2.068 -0.3844 -0.6765  0.0977
   55MOL   H17512163   0.081   4.286   2.113 -1.0510  0.0822 -0.8361
   55MOL   H17612164   0.128   4.309   1.943  2.9619 -1.0101  0.9903
   55MOL   H17712165   0.035   4.432   2.017 -0.7661 -0.2792  0.2239
   55MOL   C17812166   0.316   4.603   1.914 -0.6227 -0.0086 -0.4954
   55MOL   C17912167   0.312   4.746   1.853  0.0932 -1.0667  0.1629
   55MOL   C18012168   0.441   4.817   1.875  0.3960 -0.5921  0.3922
   55MOL   O18112169   0.451   4.904   1.960 -0.3918  0.2834 -0.4691
   55MOL   C18212170   0.563   4.782   1.782  0.1065 -0.4746 -0.5333
   55MOL   H18312171   0.417   4.565   1.897 -0.4684  0.9137 -1.6978
   55MOL   H18412172   0.252   4.544   1.848 -1.3618  0.5609 -0.2940
   55MOL   H18512173   0.299   4.734   1.745  2.7046 -1.6870 -0.1364
   55MOL   H18612174   0.567   4.846   1.694 -3.9720  0.1230 -0.3819
   55MOL   H18712175   0.552   4.677   1.753  0.5516 -0.8565  0.6538
   55MOL   H18812176   0.645   4.788   1.854 -2.3752  1.8634  2.1813
   55MOL   C18912177   0.184   4.824   1.898 -0.1452  0.6995  0.6377
   55MOL   C19012178   0.170   4.975   1.846  0.3671  0.0962 -0.2643
   55MOL   C19112179   0.141   4.977   1.693  1.2871  0.8507  0.2900
   55MOL   O19212180   0.110   4.877   1.629 -0.2888 -1.0503  0.4061
   55MOL   C19312181   0.164   5.110   1.629  0.6194 -0.5099  0.0766
   55MOL   H19412182   0.098   4.763   1.870 -0.8140  2.7224 -1.9061
   55MOL   H19512183   0.183   4.820   2.007  0.4164 -2.3360  0.5855
   55MOL   H19612184   0.268   5.022   1.857  0.3274  0.0904  0.1216
   55MOL   H19712185   0.246   5.157   1.683  2.0566 -1.0304 -1.6106
   55MOL   H19812186   0.207   5.101   1.529  1.4695  3.1308  0.0331
   55MOL   H19912187   0.076   5.174   1.619  1.8120  1.2757  0.7803
   55MOL   C20012188   0.069   5.048   1.936 -0.0415  0.4654  0.4677
   55MOL   C20112189   0.084   5.197   1.952  0.3551 -0.2938 -0.2561
   55MOL   C20212190   0.215   5.230   2.030 -0.1229 -0.7389 -1.3683
   55MOL   O20312191   0.315   5.261   1.966 -0.6521  0.1320 -0.2067
   55MOL   C20412192   0.223   5.215   2.179  0.0818 -0.3709  0.2383
   55MOL   H20512193   7.825   5.016   1.913  0.1649  0.0793  0.0853
   55MOL   H20612194   0.078   4.994   2.030 -2.0206 -2.2185 -0.8298
   55MOL   H20712195   0.084   5.242   1.852 -1.3482  0.8882  0.2448
   55MOL   H20812196   0.307   5.159   2.220 -0.3334 -1.0822  0.1418
   55MOL   H20912197   0.213   5.312   2.226  1.6014  0.0938 -0.3678
   55MOL   H21012198   0.137   5.160   2.218 -0.5599  1.2735  1.1462
   55MOL   C21112199   7.819   5.251   2.028  0.3563 -0.7330 -0.4169
   55MOL   C21212200   7.802   5.405   2.039 -0.2767 -0.6040 -0.0096
   55MOL   C21312201   7.789   5.490   1.912  0.2562  0.8331  0.2151
   55MOL   O21412202   7.800   5.434   1.805  0.6249  0.2097  0.5978
   55MOL   C21512203   7.784   5.640   1.920  0.1705 -0.0098 -0.2071
   55MOL   H21612204   7.734   5.212   1.973 -1.0051  1.1985  0.2570
   55MOL   H21712205   7.812   5.205   2.126  1.9512 -0.0542  0.0401
   55MOL   H21812206   0.019   5.443   2.109  0.8811 -1.5289 -0.7185
   55MOL   H21912207   0.006   5.678   1.857 -2.2609  0.8459 -2.8843
   55MOL   H22012208   7.691   5.679   1.879 -0.4019 -0.1114  0.9621
   55MOL   H22112209   7.782   5.671   2.025  1.7897  1.4080 -0.5786
   55MOL   H22212210   7.708   5.434   2.086 -0.6823 -0.9854 -0.5703
   56MOL     C112211   6.066   4.643   4.849 -0.5140  0.1881 -0.9506
   56MOL     C212212   6.007   4.725   4.738  0.6002 -0.4405 -0.6903
   56MOL     C312213   6.039   4.664   4.606 -0.5457 -0.1660  1.0657
   56MOL     O412214   5.970   4.580   4.547 -0.2693 -0.2077 -0.8788
   56MOL     C512215   6.171   4.700   4.546  0.3941  0.2130 -0.2810
   56MOL     H612216   6.168   4.612   4.828 -0.6592 -0.7319 -0.3272
   56MOL     H712217   6.001   4.558   4.869 -1.9559  1.2204 -1.1948
   56MOL     H812218   6.048   4.826   4.738 -0.6116  0.0629 -0.6312
   56MOL     H912219   6.200   4.641   4.460  0.8400 -2.1821  1.4638
   56MOL    H1012220   6.176   4.807   4.525  0.2889  0.7698  2.3184
   56MOL    H1112221   6.255   4.677   4.612  0.8867 -1.1326 -1.3608
   56MOL    H1212222   6.069   4.715   4.931  1.5503 -0.3055 -0.5536
   56MOL    C1312223   5.855   4.740   4.752  0.5429 -0.2531  0.1232
   56MOL    C1412224   5.779   4.838   4.658  0.0495  0.4659  0.0922
   56MOL    C1512225   5.834   4.978   4.673 -0.1479 -0.8363 -0.4993
   56MOL    O1612226   5.795   5.043   4.773  0.0334 -0.1949 -0.0310
   56MOL    C1712227   5.910   5.045   4.559  0.1438  0.1273 -0.1405
   56MOL    H1812228   5.811   4.641   4.754  1.8194 -0.8015  2.3737
   56MOL    H1912229   5.836   4.770   4.855  1.0737 -1.4987  0.5884
   56MOL    H2012230   5.807   4.811   4.556 -0.9082 -0.7492  0.1231
   56MOL    H2112231   5.941   5.147   4.582 -0.2083  0.2650 -0.2685
   56MOL    H2212232   5.992   4.974   4.544 -0.2529 -0.5281  0.7828
   56MOL    H2312233   5.852   5.049   4.467 -0.7706 -0.2025  0.4173
   56MOL    C2412234   5.629   4.829   4.690 -0.2731  0.1137  0.2830
   56MOL    C2512235   5.525   4.915   4.610  0.1766 -0.4204  0.4800
   56MOL    C2612236   5.531   4.884   4.462  0.3215  0.7016 -0.5092
   56MOL    O2712237   5.533   4.770   4.412 -0.3686  0.2590 -0.1720
   56MOL    C2812238   5.531   5.002   4.363 -0.1673  0.5549 -0.4721
   56MOL    H2912239   5.601   4.724   4.684 -0.1616  0.1418 -0.6743
   56MOL    H3012240   5.606   4.853   4.794 -1.1374 -0.6954  0.2779
   56MOL    H3112241   5.565   5.015   4.622 -0.9213  0.1029 -0.1785
   56MOL    H3212242   5.626   5.052   4.346  0.3576 -1.2537 -3.1165
   56MOL    H3312243   5.501   4.976   4.261 -1.0364 -0.5882  0.0592
   56MOL    H3412244   5.473   5.078   4.415 -0.2482 -0.2365  0.6027
   56MOL    C3512245   5.382   4.934   4.674  1.0092  0.4363 -0.0073
   56MOL    C3612246   5.274   4.817   4.668  0.6509 -0.5781  0.3385
   56MOL    C3712247   5.313   4.689   4.740 -0.4179 -1.1199  0.3958
   56MOL    O3812248   5.312   4.684   4.862 -0.6207  0.5679  0.3704
   56MOL    C3912249   5.346   4.567   4.660  0.4238 -0.5614  0.4792
   56MOL    H4012250   5.339   5.010   4.609  1.6332 -0.9884 -2.1404
   56MOL    H4112251   5.396   4.979   4.773  1.7249 -1.3006  0.7074
   56MOL    H4212252   5.266   4.802   4.560 -1.1537  0.2566  0.3288
   56MOL    H4312253   5.298   4.552   4.563 -1.2861 -1.6549  1.4618
   56MOL    H4412254   5.305   4.479   4.710  0.2039 -0.4004  0.5816
   56MOL    H4512255   5.454   4.552   4.652 -0.0786 -3.4314 -1.9964
   56MOL    C4612256   5.128   4.853   4.702  0.5030  0.2640  0.5007
   56MOL    C4712257   5.114   4.917   4.841 -0.0187  0.2687  0.4514
   56MOL    C4812258   5.131   5.069   4.838 -0.0932  0.5884 -0.1794
   56MOL    O4912259   5.117   5.137   4.733  0.5981  0.3946 -0.3777
   56MOL    C5012260   5.159   5.140   4.972 -0.3557 -0.0493 -0.3698
   56MOL    H5112261   5.058   4.771   4.683  0.1149  0.8928 -0.8208
   56MOL    H5212262   5.093   4.920   4.624 -2.7711 -0.0433  1.6491
   56MOL    H5312263   5.195   4.893   4.910  1.3930  1.3596 -0.8270
   56MOL    H5412264   5.222   5.072   5.028  0.6990  0.9013 -0.3738
   56MOL    H5512265   5.213   5.232   4.948 -1.1672  0.5780  0.1916
   56MOL    H5612266   5.067   5.155   5.029  0.6888 -0.1811  1.3752
   56MOL    C5712267   4.983   4.872   4.918 -0.2280  0.2008  0.4656
   56MOL    C5812268   4.852   4.934   4.859 -0.0479 -0.1884 -0.3640
   56MOL    C5912269   4.800   4.867   4.734  0.1928  0.1067  0.1959
   56MOL    O6012270   4.782   4.938   4.628  0.1656  0.0263  0.4041
   56MOL    C6112271   4.774   4.717   4.733  0.5885  0.5168  0.4538
   56MOL    H6212272   4.997   4.907   5.020 -0.2472 -1.3275  0.9971
   56MOL    H6312273   4.965   4.766   4.933  0.2107  0.0929  0.2435
   56MOL    H6412274   4.884   5.031   4.822 -0.1960  0.0570  0.1409
   56MOL    H6512275   4.767   4.685   4.629  0.8754  1.6360  0.0810
   56MOL    H6612276   4.864   4.671   4.772  1.1936  2.2361  1.1233
   56MOL    H6712277   4.690   4.676   4.789  0.2746  0.4801 -0.0350
   56MOL    C6812278   4.739   4.947   4.962  0.6846 -0.1098  0.0043
   56MOL    C6912279   4.598   5.019   4.922  0.1410  0.0722 -0.4860
   56MOL    C7012280   4.607   5.150   4.838 -0.4505 -0.5553  0.4657
   56MOL    O7112281   4.720   5.193   4.811  0.0978  0.4004 -0.0336
   56MOL    C7212282   4.478   5.204   4.774  0.3506 -0.3064 -0.2555
   56MOL    H7312283   4.716   4.843   4.984 -1.4475  0.4542  0.5414
   56MOL    H7412284   4.783   4.990   5.052 -1.4356  1.7796  0.1901
   56MOL    H7512285   4.552   4.953   4.848 -0.5771  2.2823 -2.0461
   56MOL    H7612286   4.463   5.310   4.793 -0.3993 -0.0230 -2.2534
   56MOL    H7712287   4.463   5.189   4.667 -2.0433  0.1275 -0.0039
   56MOL    H7812288   4.399   5.155   4.830  2.5709 -0.4731  2.8905
   56MOL    C7912289   4.504   5.029   5.045  0.4501  0.2514 -0.2259
   56MOL    C8012290   4.456   4.902   5.116 -0.7340 -0.3978  0.0059
   56MOL    C8112291   4.393   4.800   5.016 -0.4693  1.0626 -0.4128
   56MOL    O8212292   4.461   4.703   4.973  1.2495  0.2201  0.0729
   56MOL    C8312293   4.274   4.839   4.939  0.1860 -0.5405 -0.2052
   56MOL    H8412294   4.408   5.080   5.032  0.5440  0.1958 -1.1471
   56MOL    H8512295   4.551   5.089   5.123  2.2599 -1.0225 -0.3061
   56MOL    H8612296   4.545   4.856   5.161 -0.9993 -0.5676  0.3581
   56MOL    H8712297   4.301   4.813   4.837 -0.5479 -0.1671 -0.4997
   56MOL    H8812298   4.262   4.948   4.944 -0.8496 -0.7180  1.8715
   56MOL    H8912299   4.185   4.789   4.979  0.3878 -0.7213  0.0169
   56MOL    C9012300   4.371   4.927   5.240  0.2111  0.0518 -0.1313
   56MOL    C9112301   4.348   4.808   5.342  0.3451 -0.2573  0.4383
   56MOL    C9212302   4.479   4.731   5.385 -0.6769 -0.0627  0.0904
   56MOL    O9312303   4.522   4.740   5.498 -0.2400  0.4339  0.2705
   56MOL    C9412304   4.554   4.646   5.285  0.5166  0.1398  0.4937
   56MOL    H9512305   4.404   5.017   5.293 -0.8701  0.6699 -0.4975
   56MOL    H9612306   4.271   4.946   5.203  0.0954  0.5610  0.4271
   56MOL    H9712307   4.283   4.734   5.295 -1.0388  0.2299  1.5542
   56MOL    H9812308   4.483   4.603   5.214  0.6880  2.4293 -1.1515
   56MOL    H9912309   4.632   4.693   5.225 -0.9478  1.9597 -0.0574
   56MOL   H10012310   4.599   4.566   5.344  0.2929  0.8958  1.7059
   56MOL   C10112311   4.276   4.865   5.463 -0.1204 -0.0727  0.1888
   56MOL   C10212312   4.201   4.757   5.544 -0.8181  0.9029 -0.1119
   56MOL   C10312313   4.056   4.724   5.488 -0.0371 -0.2635  0.0067
   56MOL   O10412314   3.972   4.813   5.475 -0.0637 -0.0263 -0.1174
   56MOL   C10512315   4.025   4.579   5.462  0.2897  0.2908 -0.1709
   56MOL   H10612316   4.342   4.917   5.532 -0.4385  0.6873 -0.0754
   56MOL   H10712317   4.203   4.935   5.421  0.1283  1.7069  2.6590
   56MOL   H10812318   4.261   4.668   5.526  0.3571  1.5988  0.2802
   56MOL   H10912319   3.919   4.557   5.444 -0.6808  2.1429  2.8078
   56MOL   H11012320   4.084   4.540   5.380  0.6069  0.0595  0.1654
   56MOL   H11112321   4.049   4.511   5.545  0.4010 -0.4454 -0.7971
   56MOL   C11212322   4.197   4.777   5.693 -0.0473 -0.0266  0.6934
   56MOL   C11312323   4.326   4.768   5.774  0.1647  0.7514 -0.3310
   56MOL   C11412324   4.391   4.623   5.769  0.4925  0.7553  0.2270
   56MOL   O11512325   4.332   4.517   5.770 -0.4481 -0.3685 -0.3778
   56MOL   C11612326   4.545   4.623   5.785 -0.1269 -0.2843 -0.1471
   56MOL   H11712327   4.126   4.705   5.734 -1.0638 -0.0131 -1.0251
   56MOL   H11812328   4.155   4.875   5.715  0.2493  0.5150 -1.1247
   56MOL   H11912329   4.394   4.834   5.720  2.8292 -0.2841  1.6483
   56MOL   H12012330   4.579   4.666   5.879 -1.9249  1.0154 -0.0683
   56MOL   H12112331   4.577   4.522   5.758  3.0859  0.7841 -0.4329
   56MOL   H12212332   4.580   4.692   5.708  1.7656 -0.0174  0.9380
   56MOL   C12312333   4.304   4.811   5.926  0.0441 -0.0966  0.1705
   56MOL   C12412334   4.379   4.941   5.969 -0.2335 -0.2015  0.1340
   56MOL   C12512335   4.331   5.067   5.890 -0.3575  0.4034  0.3109
   56MOL   O12612336   4.322   5.070   5.769  0.6235  0.1301 -0.3506
   56MOL   C12712337   4.312   5.197   5.977 -0.6376  0.3007 -0.5841
   56MOL   H12812338   4.338   4.737   5.999 -1.0952  0.9691  1.8281
   56MOL   H12912339   4.197   4.815   5.947 -0.0786  0.3383 -0.5383
   56MOL   H13012340   4.340   4.958   6.069  1.1916  1.2302  0.4776
   56MOL   H13112341   4.372   5.200   6.067 -0.4819 -0.5879 -0.6457
   56MOL   H13212342   4.209   5.218   6.007 -1.2486 -0.0504 -2.3584
   56MOL   H13312343   4.352   5.286   5.928 -1.3096  1.2632  0.6134
   56MOL   C13412344   4.531   4.934   5.974  0.0668  0.2958  0.4400
   56MOL   C13512345   4.604   5.046   6.061  0.3243 -0.8015 -0.4002
   56MOL   C13612346   4.580   5.029   6.212 -0.1154  0.5901  0.0676
   56MOL   O13712347   4.523   4.932   6.259 -0.3938  0.1848 -0.1890
   56MOL   C13812348   4.639   5.135   6.300 -0.3338  0.1965  0.1541
   56MOL   H13912349   4.574   4.929   5.874  1.1078 -2.3014  0.9897
   56MOL   H14012350   4.568   4.848   6.029  0.6147  0.9957  1.1790
   56MOL   H14112351   4.573   5.148   6.039 -1.7401 -1.0890  0.9939
   56MOL   H14212352   4.634   5.230   6.246  0.0956 -0.2691 -0.7229
   56MOL   H14312353   4.744   5.119   6.324  0.0073 -1.6218 -2.2914
   56MOL   H14412354   4.589   5.158   6.394  0.8766 -2.4546  1.4853
   56MOL   C14512355   4.767   5.037   6.046  0.6538  0.2616 -0.6679
   56MOL   C14612356   4.847   5.168   6.034  0.3506  0.3090 -0.2226
   56MOL   C14712357   5.000   5.133   6.043  0.5474  0.4133 -0.3103
   56MOL   O14812358   5.061   5.089   5.951 -0.0305  0.1446 -0.8566
   56MOL   C14912359   5.063   5.140   6.177 -0.0403  0.4976  0.2171
   56MOL   H15012360   4.780   4.975   5.957  0.1389  0.3240 -0.7867
   56MOL   H15112361   4.815   4.989   6.131  1.0260 -0.9622 -1.5641
   56MOL   H15212362   4.825   5.237   6.115 -2.0385  0.6854 -1.1613
   56MOL   H15312363   5.170   5.135   6.159 -0.0064 -1.1799  0.7833
   56MOL   H15412364   5.047   5.244   6.206 -4.0501  0.3287 -1.0429
   56MOL   H15512365   5.028   5.061   6.243 -0.0382 -0.2219 -0.6284
   56MOL   C15612366   4.811   5.247   5.908  0.5199  0.0460  0.3052
   56MOL   C15712367   4.885   5.379   5.881  0.9998  0.2706  0.2096
   56MOL   C15812368   4.851   5.479   5.991  0.6515  0.6090  0.2427
   56MOL   O15912369   4.758   5.458   6.073 -0.4441  0.5238 -0.7126
   56MOL   C16012370   4.924   5.608   5.997 -0.7610  0.8619 -0.7844
   56MOL   H16112371   4.840   5.179   5.827  1.9661 -0.1444  0.9608
   56MOL   H16212372   4.704   5.265   5.907 -0.2032 -3.7581 -1.2145
   56MOL   H16312373   4.994   5.381   5.879  1.0778  0.1435  2.3277
   56MOL   H16412374   4.875   5.680   5.930 -2.4213  0.7750  0.3036
   56MOL   H16512375   5.025   5.589   5.961  0.7153  3.3810  1.9020
   56MOL   H16612376   4.931   5.641   6.100  1.2871  1.0874 -0.9719
   56MOL   C16712377   4.840   5.448   5.740 -0.1329  0.1583  0.2712
   56MOL   C16812378   4.871   5.359   5.619  0.1923 -1.0477  0.5736
   56MOL   C16912379   5.025   5.340   5.603 -0.1515  0.9830  0.2683
   56MOL   O17012380   5.101   5.436   5.617 -0.2969  0.5939 -0.2288
   56MOL   C17112381   5.078   5.200   5.583 -0.1752  0.1027  0.5634
   56MOL   H17212382   4.736   5.479   5.743  0.1207  1.2097 -1.0859
   56MOL   H17312383   4.899   5.539   5.730  2.4969 -1.5254 -0.0522
   56MOL   H17412384   4.847   5.253   5.635  1.2802 -1.7726 -2.2385
   56MOL   H17512385   4.994   5.135   5.606  0.2765 -1.1572 -1.1684
   56MOL   H17612386   5.160   5.176   5.651 -0.3599 -1.5851  0.2080
   56MOL   H17712387   5.105   5.189   5.478 -0.6043 -0.2534  0.4891
   56MOL   C17812388   4.809   5.412   5.484 -0.5912 -0.0744  0.0371
   56MOL   C17912389   4.654   5.393   5.470  0.0689  0.0828  0.5819
   56MOL   C18012390   4.613   5.250   5.457 -0.4086  0.3343 -0.3304
   56MOL   O18112391   4.639   5.187   5.352  0.1758 -0.3526  0.1671
   56MOL   C18212392   4.527   5.181   5.569 -0.0405 -0.5878  0.2081
   56MOL   H18312393   4.850   5.513   5.476 -1.6529  0.3394 -0.3033
   56MOL   H18412394   4.861   5.367   5.400 -1.2813 -0.5671 -0.1355
   56MOL   H18512395   4.614   5.431   5.563  0.0962 -1.5524  1.2716
   56MOL   H18612396   4.562   5.078   5.580  0.6846 -0.1987  1.7623
   56MOL   H18712397   4.430   5.167   5.521  1.3555 -1.2830 -2.5101
   56MOL   H18812398   4.512   5.240   5.660  1.2383 -1.0888  0.7630
   56MOL   C18912399   4.594   5.494   5.375  0.4524  0.1784 -0.1386
   56MOL   C19012400   4.438   5.492   5.360 -0.3997  0.1056  0.5846
   56MOL   C19112401   4.394   5.394   5.259  0.2638 -0.3382  1.0892
   56MOL   O19212402   4.338   5.293   5.300 -0.2460 -0.2624  0.0695
   56MOL   C19312403   4.400   5.428   5.118  0.1521  0.5101  0.1601
   56MOL   H19412404   4.616   5.595   5.408 -0.2876  0.1585  0.4539
   56MOL   H19512405   4.635   5.485   5.275 -1.2103  0.2337 -0.8285
   56MOL   H19612406   4.413   5.587   5.314 -0.2494 -0.9663 -1.8003
   56MOL   H19712407   4.311   5.395   5.064 -1.1582  1.0757  1.9053
   56MOL   H19812408   4.412   5.533   5.092 -0.0116  0.6611  0.6838
   56MOL   H19912409   4.480   5.372   5.071  1.8029  1.6861  1.5199
   56MOL   C20012410   4.359   5.487   5.494 -1.0246 -0.4531  0.5131
   56MOL   C20112411   4.208   5.513   5.490 -0.0553  0.3653  0.1917
   56MOL   C20212412   4.176   5.656   5.433 -0.1505  0.2501  0.1793
   56MOL   O20312413   4.254   5.743   5.406  0.1691  0.3088  0.0894
   56MOL   C20412414   4.025   5.685   5.409 -0.0615  0.1974  0.7955
   56MOL   H20512415   4.383   5.389   5.536  0.0387 -0.8902 -1.0649
   56MOL   H20612416   4.407   5.560   5.560 -0.1132 -2.1065  1.7333
   56MOL   H20712417   4.160   5.448   5.417  0.6965  2.2030 -2.0010
   56MOL   H20812418   3.969   5.724   5.494  0.6663 -2.1438  2.3964
   56MOL   H20912419   3.991   5.749   5.328 -3.7422 -1.7618  0.6641
   56MOL   H21012420   3.973   5.591   5.393 -0.8950  0.8914 -0.6388
   56MOL   C21112421   4.134   5.504   5.629 -0.1890 -0.3304 -1.0343
   56MOL   C21212422   4.108   5.358   5.683  0.1014 -0.7493  0.8821
   56MOL   C21312423   4.008   5.283   5.598 -0.2217 -0.1543 -0.4299
   56MOL   O21412424   3.930   5.344   5.528 -0.2208 -0.4017  0.2824
   56MOL   C21512425   3.999   5.135   5.617  0.5056 -0.0131  0.1260
   56MOL   H21612426   4.188   5.566   5.700 -1.0407 -2.0448  1.1548
   56MOL   H21712427   4.038   5.556   5.625  0.5376  1.1587  0.5559
   56MOL   H21812428   4.077   5.356   5.787 -0.6700 -2.4437  0.6264
   56MOL   H21912429   4.070   5.102   5.541 -0.6253 -0.5552 -0.6959
   56MOL   H22012430   4.031   5.122   5.721 -0.0034  0.4069  0.3382
   56MOL   H22112431   3.895   5.106   5.602  0.7250  0.2419 -2.0238
   56MOL   H22212432   4.201   5.303   5.680  1.1392  0.9483  1.2419
   57MOL     C112433   4.525   7.810   3.507  0.0815 -0.1079 -0.1783
   57MOL     C212434   4.411   7.842   3.408  0.3098 -0.3408 -0.6591
   57MOL     C312435   4.375   0.138   3.430  0.5039 -0.5641  0.2812
   57MOL     O412436   4.417   0.223   3.363 -0.0782  0.0756  0.1682
   57MOL     C512437   4.288   0.175   3.549  1.0241 -1.3665 -0.0306
   57MOL     H612438   4.616   0.013   3.498 -1.0078  1.6707  0.4463
   57MOL     H712439   4.553   7.706   3.493  1.1393  0.3623 -1.6171
   57MOL     H812440   4.332   7.778   3.447  1.6231 -1.1262  0.7828
   57MOL     H912441   4.361   0.231   3.608 -0.5758  0.7362  0.0437
   57MOL    H1012442   4.206   0.243   3.524  0.4417 -1.1418  2.3469
   57MOL    H1112443   4.255   0.089   3.606  2.8923 -1.4287  0.9889
   57MOL    H1212444   4.485   7.834   3.606  3.3376 -0.0344  1.2113
   57MOL    C1312445   4.429   7.815   3.256  0.0559  0.5410 -0.1872
   57MOL    C1412446   4.309   7.839   3.168  0.2223 -0.8388 -0.5069
   57MOL    C1512447   4.224   7.717   3.165 -0.5572 -0.1717 -0.9326
   57MOL    O1612448   4.126   7.717   3.235 -0.0188 -0.4634  0.2798
   57MOL    C1712449   4.252   7.589   3.075 -0.6755  0.0350 -0.6140
   57MOL    H1812450   4.514   0.015   3.218  0.0298 -0.0353 -1.1503
   57MOL    H1912451   4.472   7.715   3.249 -0.7729  0.2843 -1.7316
   57MOL    H2012452   4.249   0.057   3.218  0.1049 -0.7103 -0.8465
   57MOL    H2112453   4.165   7.566   3.014 -1.3416 -0.6797  0.5894
   57MOL    H2212454   4.336   7.598   3.006 -1.3039 -0.3456 -1.4347
   57MOL    H2312455   4.279   7.501   3.133 -0.1635  0.7471  0.2393
   57MOL    C2412456   4.342   0.033   3.024 -0.1557 -0.0877 -0.3736
   57MOL    C2512457   4.217   0.055   2.939 -0.0706 -0.4257  0.1742
   57MOL    C2612458   4.145   0.186   2.980  0.7680 -0.4978  0.3001
   57MOL    O2712459   4.214   0.288   2.993 -0.3017  0.2321  0.2294
   57MOL    C2812460   3.992   0.190   2.988 -0.2785  0.0070 -0.1251
   57MOL    H2912461   4.408   0.118   3.038 -0.5321 -0.1442  1.8944
   57MOL    H3012462   4.400   7.809   2.981  0.8493  0.9636 -1.0359
   57MOL    H3112463   4.157   7.823   2.954  0.2335 -0.4657  1.2330
   57MOL    H3212464   3.953   0.092   3.013  0.5472  0.1865  1.9724
   57MOL    H3312465   3.953   0.245   3.074  0.6861  1.3371 -0.5146
   57MOL    H3412466   3.940   0.239   2.906  0.8272  1.6330  0.1147
   57MOL    C3512467   4.255   0.060   2.791 -0.2417  0.6212 -0.2095
   57MOL    C3612468   4.348   0.175   2.735 -0.6191 -0.1091  0.4758
   57MOL    C3712469   4.443   0.117   2.631  0.7377  0.0303 -0.4045
   57MOL    O3812470   4.410   0.040   2.539  0.3947  0.2626  0.0005
   57MOL    C3912471   4.587   0.153   2.661 -1.1517 -0.1764  0.3387
   57MOL    H4012472   4.164   0.045   2.733  0.9496  0.1784 -2.0052
   57MOL    H4112473   4.306   7.823   2.773  0.0629  0.7946 -0.2485
   57MOL    H4212474   4.413   0.218   2.811 -1.2284  0.4205  0.7056
   57MOL    H4312475   4.656   0.110   2.588  0.3064 -0.1898  1.7010
   57MOL    H4412476   4.612   0.088   2.745  1.7240  0.5467  0.1181
   57MOL    H4512477   4.611   0.257   2.684  0.7688 -0.3766 -0.5779
   57MOL    C4612478   4.266   0.295   2.681 -0.6318  0.4128 -0.4525
   57MOL    C4712479   4.213   0.294   2.535  0.1064 -0.2680 -0.0922
   57MOL    C4812480   4.096   0.205   2.506 -0.0153  0.0202  0.3804
   57MOL    O4912481   3.994   0.213   2.573 -0.4175  0.5124 -0.3112
   57MOL    C5012482   4.116   0.124   2.381  0.0118 -0.0860  0.9163
   57MOL    H5112483   4.339   0.375   2.686  0.1106 -0.2895 -0.0432
   57MOL    H5212484   4.193   0.338   2.749  0.9079  0.6892  1.0283
   57MOL    H5312485   4.295   0.251   2.477 -1.1452 -3.2622  0.2822
   57MOL    H5412486   4.021   0.075   2.362  0.7136 -1.2766  0.4890
   57MOL    H5512487   4.134   0.197   2.302  0.5612 -0.9139  0.2672
   57MOL    H5612488   4.195   0.049   2.378 -1.1439 -1.3463  1.4106
   57MOL    C5712489   4.184   0.440   2.477 -0.0564 -0.0704  0.1477
   57MOL    C5812490   4.304   0.524   2.448 -0.5905 -0.5710  0.5091
   57MOL    C5912491   4.387   0.464   2.336 -0.7966  0.7229  0.1316
   57MOL    O6012492   4.334   0.393   2.250 -0.8828 -0.0923  0.0813
   57MOL    C6112493   4.528   0.512   2.326 -0.3536 -0.2315  0.6001
   57MOL    H6212494   4.134   0.490   2.560 -1.2400 -2.3413  0.8755
   57MOL    H6312495   4.107   0.442   2.399 -0.5436  2.2315  0.6506
   57MOL    H6412496   4.373   0.520   2.532 -0.7574  0.2238  0.6934
   57MOL    H6512497   4.532   0.611   2.279 -1.5054 -1.0315 -1.2634
   57MOL    H6612498   4.581   0.517   2.421 -0.4876  0.9086  0.6280
   57MOL    H6712499   4.587   0.441   2.268  0.0987  1.0193 -0.5246
   57MOL    C6812500   4.273   0.675   2.428  0.4717  0.0320 -0.6263
   57MOL    C6912501   4.163   0.718   2.329 -0.3198  0.3955  0.6160
   57MOL    C7012502   4.177   0.667   2.188  0.3941  0.2071  0.2458
   57MOL    O7112503   4.268   0.707   2.114  0.3039  0.1966  0.0409
   57MOL    C7212504   4.071   0.569   2.137  0.0275 -0.6509 -0.3629
   57MOL    H7312505   4.237   0.704   2.527  2.4672 -1.8539  0.6976
   57MOL    H7412506   4.366   0.731   2.417 -0.4930  1.7621 -0.0943
   57MOL    H7512507   4.073   0.667   2.362 -0.8270  1.3693  0.7302
   57MOL    H7612508   4.083   0.547   2.031 -0.6806 -1.5596 -0.2660
   57MOL    H7712509   4.088   0.473   2.185  1.6350 -0.4068 -0.4064
   57MOL    H7812510   3.971   0.612   2.140 -0.8079 -2.4309 -1.7502
   57MOL    C7912511   4.147   0.870   2.331 -0.1484 -0.6142  0.3781
   57MOL    C8012512   4.012   0.924   2.282  0.2701  0.4052  0.7908
   57MOL    C8112513   4.022   1.072   2.242 -0.7434  0.4275  0.6974
   57MOL    O8212514   3.939   1.162   2.271  0.3216  0.3431  0.4395
   57MOL    C8312515   4.151   1.113   2.159  0.8052 -0.1484  0.6796
   57MOL    H8412516   4.241   0.909   2.293 -1.6113  2.0641 -0.6605
   57MOL    H8512517   4.143   0.890   2.439 -1.1077  2.2692 -0.1351
   57MOL    H8612518   3.998   0.879   2.184 -0.5518 -0.7446  1.4314
   57MOL    H8712519   4.125   1.196   2.093 -1.6911 -1.6496 -0.3279
   57MOL    H8812520   4.201   1.044   2.091 -0.0994  0.2760 -0.4380
   57MOL    H8912521   4.216   1.144   2.240  0.7238  2.6695 -0.2836
   57MOL    C9012522   3.892   0.899   2.379 -0.1255  0.5414  0.0949
   57MOL    C9112523   3.751   0.925   2.307 -0.7720  0.4872 -0.0325
   57MOL    C9212524   3.720   0.860   2.166 -0.1679  0.1347 -0.4139
   57MOL    O9312525   3.782   0.759   2.130 -0.3942  0.4916 -0.0388
   57MOL    C9412526   3.600   0.906   2.079  0.1133  0.4315  0.4072
   57MOL    H9512527   3.893   0.802   2.429 -1.0289  0.1285 -0.6789
   57MOL    H9612528   3.905   0.971   2.460  1.9567 -0.9086  1.1030
   57MOL    H9712529   3.751   1.030   2.275  0.2841  0.8287  1.0756
   57MOL    H9812530   3.621   0.887   1.974  1.4326  2.4640  0.2619
   57MOL    H9912531   3.506   0.860   2.108 -0.7850  2.8574  1.4722
   57MOL   H10012532   3.580   1.013   2.089 -1.0787  0.3491 -1.0115
   57MOL   C10112533   3.641   0.914   2.412 -0.3587  0.4742  0.1203
   57MOL   C10212534   3.558   1.044   2.426  0.0019 -0.0651  0.4663
   57MOL   C10312535   3.612   1.143   2.526  0.1258  0.4986  0.7019
   57MOL   O10412536   3.578   1.144   2.647  0.5063 -0.6070 -0.2818
   57MOL   C10512537   3.696   1.257   2.475 -0.4542  0.0855 -0.0425
   57MOL   H10612538   3.591   0.817   2.403  0.0712  0.3168 -0.6070
   57MOL   H10712539   3.679   0.898   2.513 -2.1273 -0.0599  0.7256
   57MOL   H10812540   3.573   1.098   2.333  3.1880 -2.6508 -0.6382
   57MOL   H10912541   3.652   1.354   2.452 -3.4509 -0.8908  1.2235
   57MOL   H11012542   3.780   1.271   2.543 -0.1865  1.0606 -0.5698
   57MOL   H11112543   3.742   1.217   2.385  0.2312 -0.4274  0.5225
   57MOL   C11212544   3.411   1.006   2.441  0.4939  0.7244 -0.0743
   57MOL   C11312545   3.305   1.098   2.374 -0.2456 -0.2593 -0.1010
   57MOL   C11412546   3.342   1.132   2.229  0.7752  0.0248 -0.2858
   57MOL   O11512547   3.420   1.219   2.204 -0.1062  0.4107  0.0416
   57MOL   C11612548   3.284   1.045   2.120  0.1424 -0.2751  0.0763
   57MOL   H11712549   3.386   0.990   2.546  1.3678 -0.2902 -0.0112
   57MOL   H11812550   3.402   0.908   2.394  1.5420  0.5148  0.1516
   57MOL   H11912551   3.218   1.032   2.373 -1.2106  0.9819 -2.1626
   57MOL   H12012552   3.325   0.945   2.136 -0.1505 -0.1404  1.8449
   57MOL   H12112553   3.175   1.033   2.119  0.2377 -1.3007  0.9361
   57MOL   H12212554   3.318   1.072   2.020  4.7037 -2.7789  0.8076
   57MOL   C12312555   3.279   1.224   2.453 -0.1320  0.5361 -0.5557
   57MOL   C12412556   3.137   1.277   2.448  0.3246  0.0219 -0.2264
   57MOL   C12512557   3.104   1.354   2.329 -0.1735 -0.1947 -0.0122
   57MOL   O12612558   3.117   1.477   2.314  0.1388  0.2151 -0.3451
   57MOL   C12712559   2.998   1.289   2.244 -0.4600  0.0626 -0.0772
   57MOL   H12812560   3.336   1.309   2.419 -1.2541  0.9413 -1.4630
   57MOL   H12912561   3.309   1.206   2.557 -3.1436  1.9233  0.6309
   57MOL   H13012562   3.076   1.187   2.447  2.5621 -1.5135 -1.3414
   57MOL   H13112563   3.003   1.311   2.137  2.4650 -1.0725 -0.2312
   57MOL   H13212564   2.894   1.318   2.259 -0.1629  2.2619 -2.0495
   57MOL   H13312565   3.019   1.183   2.230  2.3987  0.7356 -1.3050
   57MOL   C13412566   3.103   1.360   2.579 -0.2007 -0.0740 -0.1889
   57MOL   C13512567   2.966   1.414   2.610  0.1897  0.1116 -0.2251
   57MOL   C13612568   2.863   1.302   2.595 -0.0067 -0.0769 -0.2477
   57MOL   O13712569   2.781   1.302   2.502 -0.7060 -0.2882 -0.1587
   57MOL   C13812570   2.863   1.195   2.702 -0.2304 -0.7521  0.4632
   57MOL   H13912571   3.173   1.444   2.579  0.9780 -1.0291 -1.6745
   57MOL   H14012572   3.127   1.289   2.658 -1.5080  0.0635  0.3447
   57MOL   H14112573   2.954   1.491   2.534  0.2630 -0.1486 -0.5033
   57MOL   H14212574   2.967   1.165   2.717  0.0361  0.7111  1.6361
   57MOL   H14312575   2.810   1.114   2.651  0.9549 -0.8920 -0.5746
   57MOL   H14412576   2.816   1.225   2.796  0.9567  3.8429 -0.2956
   57MOL   C14512577   2.944   1.482   2.754 -0.3400 -0.6416 -0.0731
   57MOL   C14612578   2.985   1.627   2.782 -0.2206 -0.6059 -0.6149
   57MOL   C14712579   2.903   1.684   2.894 -0.3967  0.4313  0.7500
   57MOL   O14812580   2.904   1.645   3.010 -0.1653 -0.1715  0.7528
   57MOL   C14912581   2.813   1.802   2.857 -0.1632  0.8498  0.4247
   57MOL   H15012582   2.982   1.423   2.837  3.2103  4.4316  2.1972
   57MOL   H15112583   2.837   1.487   2.776  0.1312  1.8196  1.8808
   57MOL   H15212584   2.954   1.683   2.694  2.3497  0.3638 -0.9292
   57MOL   H15312585   2.784   1.853   2.949  3.7427  2.9116  0.6311
   57MOL   H15412586   2.849   1.875   2.785 -0.8910  0.2634 -0.5542
   57MOL   H15512587   2.719   1.765   2.816 -2.1271  2.5352  3.2237
   57MOL   C15612588   3.134   1.648   2.809 -0.3391 -0.1801 -0.0445
   57MOL   C15712589   3.196   1.790   2.837 -0.0324  1.2643  0.3208
   57MOL   C15812590   3.142   1.907   2.759  1.3935 -0.4316 -0.5306
   57MOL   O15912591   3.086   1.897   2.648 -0.2486 -0.5416  0.3328
   57MOL   C16012592   3.167   2.045   2.815 -0.4172 -0.5206  0.2861
   57MOL   H16112593   3.174   1.580   2.884  1.9975 -0.6925 -1.6792
   57MOL   H16212594   3.185   1.625   2.715 -2.6257 -1.6573 -0.9608
   57MOL   H16312595   3.170   1.822   2.938  1.0296  0.4960  0.8535
   57MOL   H16412596   3.194   2.031   2.919  2.2983  0.0317 -0.3196
   57MOL   H16512597   3.068   2.092   2.813  0.6543  1.8049 -0.4566
   57MOL   H16612598   3.240   2.104   2.760  0.4947 -1.1959  0.7694
   57MOL   C16712599   3.353   1.792   2.839 -0.6360 -0.0742  0.5220
   57MOL   C16812600   3.408   1.724   2.968 -0.6225  0.4684  0.4231
   57MOL   C16912601   3.376   1.802   3.099  0.0398 -0.2704  0.6300
   57MOL   O17012602   3.334   1.915   3.089 -0.2713 -0.3754  0.5182
   57MOL   C17112603   3.377   1.735   3.236 -0.7183 -0.0589 -0.4496
   57MOL   H17212604   3.389   1.750   2.745  0.1256  0.7230  0.4571
   57MOL   H17312605   3.401   1.890   2.837 -1.5260  0.3551 -0.4574
   57MOL   H17412606   3.339   1.642   2.985 -0.1136 -0.2812 -0.9943
   57MOL   H17512607   3.280   1.684   3.235 -0.7194 -0.0454 -2.0776
   57MOL   H17612608   3.373   1.802   3.322 -2.2614  0.2926 -0.7772
   57MOL   H17712609   3.461   1.670   3.261 -0.0492  0.3662 -1.5928
   57MOL   C17812610   3.548   1.652   2.958  0.2152 -0.0321  0.1840
   57MOL   C17912611   3.560   1.513   2.894  0.7700 -0.1490  0.5459
   57MOL   C18012612   3.508   1.507   2.743 -0.2622 -0.3527 -0.4211
   57MOL   O18112613   3.407   1.446   2.711 -0.2068 -0.3986 -0.4113
   57MOL   C18212614   3.586   1.578   2.639 -0.1057 -0.4145  0.1100
   57MOL   H18312615   3.593   1.724   2.890  0.7879 -1.0767 -0.5484
   57MOL   H18412616   3.595   1.647   3.057  1.4080 -1.1972 -0.4214
   57MOL   H18512617   3.667   1.497   2.896  0.8508  0.0879 -1.1589
   57MOL   H18612618   3.528   1.594   2.549 -1.5864  0.4530  1.1988
   57MOL   H18712619   3.675   1.517   2.620  0.0763 -0.0556 -0.1952
   57MOL   H18812620   3.615   1.676   2.677 -1.3778  0.1511 -0.3588
   57MOL   C18912621   3.498   1.412   2.987 -0.3427 -0.6995 -0.4408
   57MOL   C19012622   3.511   1.258   2.962 -0.4631 -0.7235  0.2922
   57MOL   C19112623   3.662   1.208   2.949 -0.8088  0.1874 -0.0291
   57MOL   O19212624   3.759   1.293   2.947  1.3110 -0.5171 -0.3585
   57MOL   C19312625   3.694   1.063   2.953 -0.0423  0.3864  0.0109
   57MOL   H19412626   3.543   1.430   3.085  1.2320  0.8439 -1.4325
   57MOL   H19512627   3.392   1.436   2.997  0.1634  2.0267 -1.3577
   57MOL   H19612628   3.456   1.236   2.870  0.5600 -0.5449 -0.3742
   57MOL   H19712629   3.680   1.011   2.859  0.7477  1.0275 -0.4667
   57MOL   H19812630   3.801   1.062   2.974  0.2570  2.2302 -1.3619
   57MOL   H19912631   3.645   1.015   3.038  2.3159 -2.0654  0.0545
   57MOL   C20012632   3.432   1.176   3.073  0.5403  0.3714  0.6564
   57MOL   C20112633   3.356   1.056   3.021  0.7734  0.6410 -1.2793
   57MOL   C20212634   3.242   1.088   2.919  0.4370  0.1588 -0.6879
   57MOL   O20312635   3.138   1.147   2.955 -0.1616 -0.7732  0.0945
   57MOL   C20412636   3.257   1.047   2.773 -0.8006 -0.0923 -0.6509
   57MOL   H20512637   3.506   1.146   3.148  0.5251 -0.0862  0.4919
   57MOL   H20612638   3.363   1.241   3.126  1.1639  0.8452  0.9079
   57MOL   H20712639   3.416   0.982   2.968 -0.1371 -0.0591 -1.3525
   57MOL   H20812640   3.352   1.087   2.736  0.6517 -3.7537 -1.1064
   57MOL   H20912641   3.271   0.940   2.758 -1.9872 -0.0559 -2.0474
   57MOL   H21012642   3.168   1.076   2.719 -1.3193 -0.6249 -0.0964
   57MOL   C21112643   3.292   0.973   3.138  0.0270  0.5797 -0.5759
   57MOL   C21212644   3.404   0.914   3.229 -0.0700 -0.1834  0.1063
   57MOL   C21312645   3.491   0.805   3.173  0.1001  0.4443  0.3550
   57MOL   O21412646   3.477   0.753   3.065 -0.3359  0.1442  0.2487
   57MOL   C21512647   3.607   0.764   3.260  0.4494  0.1701 -0.2356
   57MOL   H21612648   3.223   1.033   3.198 -1.7312 -1.6374 -0.3031
   57MOL   H21712649   3.229   0.898   3.091  0.2444 -0.5501  0.9296
   57MOL   H21812650   3.361   0.862   3.315 -1.2604 -1.6813 -1.3352
   57MOL   H21912651   3.692   0.772   3.193  0.5357 -0.6196 -0.2155
   57MOL   H22012652   3.616   0.823   3.351 -0.0080  0.8944 -0.6498
   57MOL   H22112653   3.616   0.661   3.292  0.2559 -0.3027 -1.6513
   57MOL   H22212654   3.463   0.990   3.279  0.4783 -0.5831  0.0667
   58MOL     C112655   1.797   2.818   7.493 -0.9220 -0.9079  0.1546
   58MOL     C212656   1.772   2.966   7.540 -0.6851 -0.8276  0.5028
   58MOL     C312657   1.641   3.030   7.477  0.5605 -0.4336  1.5204
   58MOL     O412658   1.539   2.962   7.477  0.3972  0.6389  1.0105
   58MOL     C512659   1.642   3.178   7.430 -0.7728 -0.3340  0.0708
   58MOL     H612660   1.842   2.829   7.394 -1.4589 -0.5330 -0.0487
   58MOL     H712661   1.706   2.759   7.504  0.1653 -2.9359 -1.3765
   58MOL     H812662   1.854   3.022   7.495 -0.9431 -1.3670 -0.6505
   58MOL     H912663   1.546   3.225   7.446 -0.6136  0.4564 -1.2581
   58MOL    H1012664   1.726   3.239   7.466 -1.6215 -0.4177  2.2853
   58MOL    H1112665   1.654   3.182   7.322 -2.7648  0.4255 -0.1369
   58MOL    H1212666   1.866   2.763   7.557 -2.4288 -1.0631  1.6912
   58MOL    C1312667   1.764   2.980   7.694 -0.6316  0.0930  0.2867
   58MOL    C1412668   1.799   3.126   7.743 -0.4300  0.6437  0.0593
   58MOL    C1512669   1.946   3.157   7.730 -1.1873 -0.0211 -0.5214
   58MOL    O1612670   2.026   3.064   7.715  0.0553 -0.0168  0.3769
   58MOL    C1712671   1.987   3.308   7.733  0.4636 -0.3160  0.3156
   58MOL    H1812672   1.666   2.943   7.726 -1.2973  1.0320 -0.6027
   58MOL    H1912673   1.828   2.900   7.732  0.2963  0.9409  0.5133
   58MOL    H2012674   1.751   3.193   7.672  2.0849  1.5313 -0.8517
   58MOL    H2112675   1.912   3.387   7.738  1.4353  0.6572 -0.2861
   58MOL    H2212676   2.031   3.317   7.832  0.4741 -2.8269  0.5769
   58MOL    H2312677   2.054   3.333   7.650 -2.0101 -1.2199 -2.0492
   58MOL    C2412678   1.745   3.159   0.032 -0.0918  0.0089 -0.9303
   58MOL    C2512679   1.808   3.060   0.138  0.7623  0.1127  0.1012
   58MOL    C2612680   1.949   3.092   0.188  0.4877 -0.1272  0.4291
   58MOL    O2712681   1.987   3.214   0.184 -0.3668 -0.5581 -0.1316
   58MOL    C2812682   2.039   2.981   0.246  0.5290  0.1921  0.0478
   58MOL    H2912683   1.775   3.259   0.063 -1.3000 -0.0205  0.3833
   58MOL    H3012684   1.637   3.173   0.035  0.1729  1.9872  0.8029
   58MOL    H3112685   1.813   2.972   0.075  1.8160 -1.9836  3.0066
   58MOL    H3212686   2.039   2.893   0.182  2.5098  0.3307 -0.1792
   58MOL    H3312687   2.143   3.008   0.263  0.3580  2.0705 -1.7420
   58MOL    H3412688   1.989   2.940   0.333  0.1737 -0.6290 -0.5345
   58MOL    C3512689   1.712   3.043   0.261 -0.2419 -0.1534  0.2694
   58MOL    C3612690   1.636   2.911   0.265 -0.5363  0.1761 -0.2625
   58MOL    C3712691   1.734   2.791   0.293 -0.1483  0.6551 -0.3258
   58MOL    O3812692   1.777   2.765   0.404 -0.1075  0.0890 -0.2132
   58MOL    C3912693   1.772   2.700   0.184 -0.2756  0.2447  0.0601
   58MOL    H4012694   1.639   3.124   0.255  0.2172  0.1758 -0.8404
   58MOL    H4112695   1.754   3.052   0.362 -1.5660  1.0947  0.7358
   58MOL    H4212696   1.593   2.893   0.167 -2.6860  3.3895 -0.0056
   58MOL    H4312697   1.703   2.702   0.100 -1.3538 -0.0700  0.9214
   58MOL    H4412698   1.772   2.603   0.233  1.1676 -0.6075 -1.6139
   58MOL    H4512699   1.873   2.722   0.148 -0.2472  2.3830  1.3325
   58MOL    C4612700   1.521   2.928   0.370 -0.7255  0.0006 -0.1644
   58MOL    C4712701   1.387   2.850   0.356  0.4206  0.6653 -0.5570
   58MOL    C4812702   1.279   2.903   0.262 -0.6486  0.0947  0.6298
   58MOL    O4912703   1.222   2.836   0.174 -0.0410  0.5624 -0.0772
   58MOL    C5012704   1.237   3.049   0.288 -0.5470  0.2913 -0.1762
   58MOL    H5112705   1.487   3.030   0.389  0.7037  0.2190  1.3792
   58MOL    H5212706   1.570   2.908   0.466  0.2211  2.7892  0.0072
   58MOL    H5312707   1.336   2.868   0.451 -0.0622  1.5115 -0.9737
   58MOL    H5412708   1.203   3.073   0.388  0.9142 -0.7368  0.5839
   58MOL    H5512709   1.310   3.123   0.257 -1.9330  0.5832 -2.9667
   58MOL    H5612710   1.148   3.070   0.229 -0.4377  1.2326  0.0025
   58MOL    C5712711   1.407   2.706   0.343  0.1779  0.6299  0.1771
   58MOL    C5812712   1.297   2.621   0.404 -0.9631  0.1488  0.3034
   58MOL    C5912713   1.298   2.481   0.343 -0.6425  0.2027  0.3666
   58MOL    O6012714   1.323   2.380   0.412 -0.5707 -0.4254  0.0463
   58MOL    C6112715   1.267   2.469   0.198  0.2495 -0.1720 -0.4504
   58MOL    H6212716   1.502   2.683   0.393  0.5640 -0.1706 -0.9130
   58MOL    H6312717   1.419   2.681   0.238 -1.3355 -0.0779  0.1565
   58MOL    H6412718   1.200   2.657   0.371  0.9766  2.8120 -2.7766
   58MOL    H6512719   1.199   2.545   0.161  2.3878  1.5471 -0.9473
   58MOL    H6612720   1.359   2.469   0.139 -0.4346  0.8013 -1.5254
   58MOL    H6712721   1.213   2.374   0.192 -1.5470  0.6836  1.7440
   58MOL    C6812722   1.312   2.623   0.560 -0.2305  0.8775 -0.3056
   58MOL    C6912723   1.184   2.574   0.638  0.1744 -0.8207 -0.1912
   58MOL    C7012724   1.051   2.645   0.595 -0.0252  0.0361  0.4958
   58MOL    O7112725   1.052   2.748   0.528  0.0720 -0.1958 -0.0159
   58MOL    C7212726   0.927   2.578   0.621 -0.0938  0.0730 -0.6923
   58MOL    H7312727   1.401   2.573   0.598 -0.9251  0.4738  0.7941
   58MOL    H7412728   1.317   2.726   0.594  0.0864  0.4494  0.9526
   58MOL    H7512729   1.163   2.473   0.603  1.5488  0.4952 -5.1486
   58MOL    H7612730   0.954   2.472   0.622  1.5379  0.4748  1.2469
   58MOL    H7712731   0.882   2.596   0.719  1.8605  2.6002 -0.2052
   58MOL    H7812732   0.862   2.596   0.536 -0.8335  4.1523  0.6490
   58MOL    C7912733   1.212   2.575   0.790  0.2385  0.2220  0.0223
   58MOL    C8012734   1.322   2.479   0.855  0.0217 -0.1683  0.2796
   58MOL    C8112735   1.278   2.327   0.841  0.1905 -0.4801 -0.0677
   58MOL    O8212736   1.201   2.269   0.922 -0.2550 -0.1544  0.5465
   58MOL    C8312737   1.353   2.246   0.738 -0.2155  0.0969  0.3527
   58MOL    H8412738   1.118   2.548   0.839  0.1339  0.0819 -0.2490
   58MOL    H8512739   1.214   2.678   0.825 -1.1100 -0.7559  3.2449
   58MOL    H8612740   1.416   2.492   0.801  0.8555  0.4897  1.8498
   58MOL    H8712741   1.350   2.296   0.642 -1.5155 -2.0107 -0.7548
   58MOL    H8812742   1.301   2.152   0.719 -1.7045  0.6308  1.6244
   58MOL    H8912743   1.457   2.225   0.762 -0.0971 -1.9125 -1.7291
   58MOL    C9012744   1.337   2.508   1.009  0.2176 -0.3713  0.3989
   58MOL    C9112745   1.461   2.589   1.046 -0.3304  0.3627  0.0562
   58MOL    C9212746   1.461   2.734   0.994  1.4649 -0.3982 -0.2195
   58MOL    O9312747   1.398   2.820   1.051  0.3775  0.0915 -0.3050
   58MOL    C9412748   1.532   2.765   0.867 -0.6273  1.0161 -0.0623
   58MOL    H9512749   1.245   2.562   1.034 -1.8057 -3.7548  0.5611
   58MOL    H9612750   1.338   2.425   1.079 -0.1700  1.6686  2.9173
   58MOL    H9712751   1.548   2.536   1.006  0.5555  1.7975  0.0231
   58MOL    H9812752   1.509   2.868   0.840  4.4687  2.0294 -1.1282
   58MOL    H9912753   1.639   2.745   0.869 -0.8165 -0.2754 -1.6129
   58MOL   H10012754   1.496   2.704   0.783  2.0823  0.8158 -1.1439
   58MOL   C10112755   1.474   2.589   1.203 -0.3605 -0.0423 -0.5039
   58MOL   C10212756   1.597   2.655   1.274  0.6277  0.0801  0.6222
   58MOL   C10312757   1.734   2.603   1.222  0.9226  0.2644 -0.0489
   58MOL   O10412758   1.796   2.510   1.271  1.0165  0.4609 -0.1759
   58MOL   C10512759   1.780   2.683   1.101 -0.3016  0.0206 -0.5132
   58MOL   H10612760   1.380   2.625   1.246 -1.3078 -1.3752 -1.4454
   58MOL   H10712761   1.486   2.483   1.228 -0.8555  0.0127 -0.0311
   58MOL   H10812762   1.605   2.761   1.249  0.3784  0.8375  3.5351
   58MOL   H10912763   1.889   2.677   1.097 -0.0612  3.3114 -0.3361
   58MOL   H11012764   1.739   2.645   1.007 -1.7323  1.1224 -0.3498
   58MOL   H11112765   1.761   2.790   1.098  1.1327  0.2963 -0.4423
   58MOL   C11212766   1.582   2.657   1.426 -0.0569  0.5501 -0.5779
   58MOL   C11312767   1.701   2.728   1.488  0.3669 -0.0002 -0.1399
   58MOL   C11412768   1.746   2.636   1.601 -0.2033  0.2333 -0.1529
   58MOL   O11512769   1.717   2.682   1.714  0.2296 -0.0052  0.0566
   58MOL   C11612770   1.811   2.507   1.567  0.5405 -0.2926  0.4293
   58MOL   H11712771   1.572   2.550   1.446  0.9383  0.6591  0.6268
   58MOL   H11812772   1.486   2.697   1.460  0.4792  1.0040  0.4463
   58MOL   H11912773   1.780   2.744   1.415  0.5964  3.8681  0.8481
   58MOL   H12012774   1.748   2.458   1.493  0.8666 -0.0866  0.0189
   58MOL   H12112775   1.906   2.530   1.519  0.3869  2.1491  1.2118
   58MOL   H12212776   1.816   2.449   1.659 -2.1030 -0.7705  0.3127
   58MOL   C12312777   1.658   2.872   1.534  0.1278  0.6623  0.2497
   58MOL   C12412778   1.759   2.989   1.529  1.0724 -0.3997 -0.0877
   58MOL   C12512779   1.788   3.026   1.383  0.0431  0.3044 -0.6561
   58MOL   O12612780   1.774   2.959   1.286 -0.3592  0.2142  0.8163
   58MOL   C12712781   1.841   3.175   1.355  0.2706 -0.7516 -0.1001
   58MOL   H12812782   1.605   2.882   1.628  2.3507  2.8919  1.3414
   58MOL   H12912783   1.588   2.909   1.460 -1.9874  0.0799  1.9112
   58MOL   H13012784   1.708   3.072   1.579  0.4925 -0.2364 -0.9386
   58MOL   H13112785   1.785   3.228   1.278  0.9071  1.0056  0.6123
   58MOL   H13212786   1.949   3.183   1.342  0.8316 -0.8965  3.8768
   58MOL   H13312787   1.825   3.224   1.451  2.6458  0.2294 -0.1562
   58MOL   C13412788   1.890   2.945   1.596  0.1102  0.4292  0.8065
   58MOL   C13512789   2.003   3.044   1.624  0.1278  0.5599 -0.3642
   58MOL   C13612790   1.971   3.136   1.738  0.1034 -0.1051  0.2422
   58MOL   O13712791   1.907   3.097   1.837  0.1758 -0.5967 -0.8849
   58MOL   C13812792   2.048   3.260   1.748 -0.4545  0.5859 -0.6985
   58MOL   H13912793   1.935   2.865   1.537 -1.2535  1.2631 -1.4445
   58MOL   H14012794   1.861   2.888   1.684  0.9048  0.7427  1.2747
   58MOL   H14112795   2.034   3.109   1.543 -0.8160  2.1993  0.5766
   58MOL   H14212796   1.973   3.338   1.761  0.5469  1.4089  0.1015
   58MOL   H14312797   2.101   3.270   1.654  1.8618  0.8697  0.6240
   58MOL   H14412798   2.122   3.260   1.827 -1.9696 -2.5032  0.8235
   58MOL   C14512799   2.140   2.963   1.650 -0.1677 -0.5246 -0.1918
   58MOL   C14612800   2.242   2.956   1.533  0.5712 -0.0925  0.0585
   58MOL   C14712801   2.173   2.898   1.407 -0.5721  0.2814 -0.1658
   58MOL   O14812802   2.120   2.974   1.326 -0.1047 -0.0043  0.1256
   58MOL   C14912803   2.182   2.752   1.385 -0.1591 -0.7042  0.2553
   58MOL   H15012804   2.118   2.861   1.684 -0.7499 -0.6405 -0.9042
   58MOL   H15112805   2.211   3.008   1.720 -0.2397  0.5799 -0.8239
   58MOL   H15212806   2.328   2.895   1.561  0.4979 -0.9678 -1.5334
   58MOL   H15312807   2.279   2.718   1.422 -0.6274 -0.9795  1.2575
   58MOL   H15412808   2.105   2.709   1.448  0.4576 -0.0495  1.4662
   58MOL   H15512809   2.169   2.729   1.279  0.0600 -0.9864  0.2881
   58MOL   C15612810   2.298   3.101   1.516  0.5643 -0.6839 -0.3514
   58MOL   C15712811   2.411   3.138   1.408  1.0173 -0.0763  0.1244
   58MOL   C15812812   2.550   3.070   1.432  0.9516 -0.8332  0.0543
   58MOL   O15912813   2.641   3.127   1.490  0.1182  0.1812  0.4836
   58MOL   C16012814   2.560   2.926   1.388  0.5798 -0.4591 -0.2968
   58MOL   H16112815   2.215   3.160   1.477 -0.1487 -2.6514 -1.9443
   58MOL   H16212816   2.344   3.142   1.605 -1.6586 -2.0489  1.4880
   58MOL   H16312817   2.385   3.092   1.313  1.9369  2.3400 -1.3522
   58MOL   H16412818   2.462   2.893   1.352 -0.3470  0.5948  1.2330
   58MOL   H16512819   2.583   2.876   1.482  1.6343  2.4406  1.0422
   58MOL   H16612820   2.639   2.916   1.312  2.2277  3.3960  0.7840
   58MOL   C16712821   2.434   3.291   1.379  0.2304 -0.2800 -0.1567
   58MOL   C16812822   2.316   3.355   1.299  0.4590  0.2103 -0.0278
   58MOL   C16912823   2.296   3.288   1.166 -0.0431 -0.1170  0.2130
   58MOL   O17012824   2.391   3.251   1.095  0.4919 -0.5663  0.2191
   58MOL   C17112825   2.155   3.270   1.115  0.1380  0.2294  0.0441
   58MOL   H17212826   2.456   3.342   1.473  2.0100 -0.9912 -0.1657
   58MOL   H17312827   2.529   3.293   1.325 -0.1572 -0.1551 -0.8277
   58MOL   H17412828   2.221   3.334   1.347  0.9015  0.0243  0.7708
   58MOL   H17512829   2.101   3.365   1.115 -1.2114 -0.4776  2.4657
   58MOL   H17612830   2.097   3.199   1.175 -0.6904  1.5063  0.7742
   58MOL   H17712831   2.154   3.237   1.012  0.4271  2.3456 -0.6595
   58MOL   C17812832   2.327   3.509   1.285 -1.0356 -0.2883  0.2851
   58MOL   C17912833   2.333   3.600   1.411 -0.0041  0.3899 -0.3897
   58MOL   C18012834   2.242   3.555   1.528 -0.6124 -0.7683 -0.9122
   58MOL   O18112835   2.135   3.497   1.507 -0.5460  0.1051 -0.3212
   58MOL   C18212836   2.289   3.585   1.667 -0.0533 -0.6245  0.7188
   58MOL   H18312837   2.400   3.542   1.211 -0.0631  1.2901  1.9121
   58MOL   H18412838   2.240   3.541   1.228 -0.0604 -1.0143 -1.6957
   58MOL   H18512839   2.437   3.585   1.439 -0.2836  0.2553  0.5765
   58MOL   H18612840   2.276   3.688   1.699  1.1764 -0.7919  1.7826
   58MOL   H18712841   2.396   3.565   1.667 -0.0313 -0.5449 -0.7337
   58MOL   H18812842   2.234   3.517   1.733 -5.5068  1.2142 -1.6121
   58MOL   C18912843   2.309   3.749   1.373 -0.8113 -0.3462  0.0684
   58MOL   C19012844   2.180   3.800   1.308 -0.0869  0.0721 -0.0452
   58MOL   C19112845   2.075   3.836   1.418  0.0155 -0.0850  0.0120
   58MOL   O19212846   2.102   3.897   1.521 -0.3836 -0.1665 -0.3164
   58MOL   C19312847   1.939   3.773   1.403 -0.7588 -0.8003 -0.0961
   58MOL   H19412848   2.320   3.812   1.462 -4.4055  1.6087 -0.7778
   58MOL   H19512849   2.396   3.783   1.317 -0.4495  0.0115  0.8299
   58MOL   H19612850   2.135   3.727   1.240  0.4674 -0.2330 -0.0900
   58MOL   H19712851   1.912   3.774   1.297 -2.5964  0.3500  0.3515
   58MOL   H19812852   1.939   3.673   1.446 -1.2795 -1.6431 -2.0270
   58MOL   H19912853   1.869   3.835   1.459 -0.2541  1.2156 -1.6388
   58MOL   C20012854   2.213   3.928   1.232  0.3527 -0.8731 -0.3298
   58MOL   C20112855   2.268   3.893   1.089  0.2900  0.3701  0.8502
   58MOL   C20212856   2.373   3.990   1.039 -0.0298  0.3091 -0.4092
   58MOL   O20312857   2.353   4.111   1.051  0.0784  0.2499 -0.7230
   58MOL   C20412858   2.504   3.941   0.981  0.2439 -0.4611 -0.1331
   58MOL   H20512859   2.133   4.002   1.224  0.1475 -1.1336 -0.6899
   58MOL   H20612860   2.287   3.985   1.288  1.1670 -1.1735 -1.0807
   58MOL   H20712861   2.307   3.792   1.096 -0.8765 -0.4435 -2.9085
   58MOL   H20812862   2.559   4.031   0.954  0.4992 -1.0858 -1.7775
   58MOL   H20912863   2.560   3.861   1.028  0.6251  0.2638  0.6500
   58MOL   H21012864   2.483   3.897   0.884 -1.8883 -0.5005  0.3097
   58MOL   C21112865   2.151   3.892   0.990 -0.1151  0.4694  0.2052
   58MOL   C21212866   2.180   3.832   0.852 -0.6848  0.6065  0.0708
   58MOL   C21312867   2.231   3.688   0.853  0.1174 -0.0245 -0.5027
   58MOL   O21412868   2.345   3.662   0.824 -0.4990 -0.1249 -0.3680
   58MOL   C21512869   2.143   3.581   0.907  0.6354  0.3053  0.8448
   58MOL   H21612870   2.072   3.831   1.032 -0.8617  1.6899  0.5955
   58MOL   H21712871   2.117   3.994   0.974  2.0539  0.9380 -1.6851
   58MOL   H21812872   2.242   3.901   0.794 -1.7102 -0.1817 -2.0074
   58MOL   H21912873   2.194   3.486   0.920 -1.5748 -1.6838 -3.7764
   58MOL   H22012874   2.102   3.620   1.000 -2.9310 -0.2137 -0.4126
   58MOL   H22112875   2.060   3.554   0.842 -1.2291  0.5583  3.0507
   58MOL   H22212876   2.081   3.836   0.808 -0.6825 -1.1121 -0.1225
   59MOL     C112877   1.628   1.104   3.186 -0.1403  0.0264 -0.8857
   59MOL     C212878   1.649   1.097   3.036 -0.0669  0.4432  0.6847
   59MOL     C312879   1.784   1.029   3.015  0.0421  0.3375 -0.0902
   59MOL     O412880   1.889   1.095   3.039 -0.0077  0.1918  0.5879
   59MOL     C512881   1.789   0.871   3.007  0.2092 -0.0256  0.3491
   59MOL     H612882   1.715   1.150   3.233 -0.1334 -1.2913  0.4286
   59MOL     H712883   1.608   1.007   3.230  0.7546  0.8298  1.3864
   59MOL     H812884   1.662   1.194   2.989  3.0165  0.7348  2.0366
   59MOL     H912885   1.893   0.847   2.986  0.5391  0.1345  1.7939
   59MOL    H1012886   1.769   0.815   3.098  1.7234 -1.3877 -0.1208
   59MOL    H1112887   1.731   0.842   2.920  0.6475  1.5300 -0.4906
   59MOL    H1212888   1.552   1.172   3.225  0.9627  0.8340 -0.1080
   59MOL    C1312889   1.535   1.022   2.959  0.3221  0.3787  0.0638
   59MOL    C1412890   1.538   1.016   2.807  0.2947 -0.4470 -0.4033
   59MOL    C1512891   1.502   1.154   2.742 -0.0121  0.1072  0.4207
   59MOL    O1612892   1.397   1.163   2.674  0.0347  0.5494 -0.0784
   59MOL    C1712893   1.601   1.268   2.754  0.3014 -0.1471  0.2577
   59MOL    H1812894   1.532   0.915   2.981 -0.5161  0.2833 -0.5020
   59MOL    H1912895   1.440   1.061   2.994  1.1616  1.4445  1.1947
   59MOL    H2012896   1.636   0.996   2.764 -0.8644 -0.0015 -3.3561
   59MOL    H2112897   1.577   1.308   2.852  0.3831 -1.7554  0.9378
   59MOL    H2212898   1.706   1.241   2.766  0.8802  1.6461 -0.5898
   59MOL    H2312899   1.591   1.338   2.671 -0.1810  0.4949  0.8540
   59MOL    C2412900   1.442   0.899   2.756  0.7848 -0.4231 -1.5342
   59MOL    C2512901   1.479   0.846   2.615 -0.0303 -0.6187  0.7261
   59MOL    C2612902   1.572   0.726   2.622  0.2029 -0.3038 -0.2000
   59MOL    O2712903   1.540   0.620   2.675  0.1135 -0.0241 -0.3192
   59MOL    C2812904   1.711   0.740   2.554  0.7300 -0.4185  0.3778
   59MOL    H2912905   1.453   0.817   2.827 -2.5013  0.8542  0.5765
   59MOL    H3012906   1.336   0.922   2.768  1.2346  0.7741  0.2772
   59MOL    H3112907   1.528   0.924   2.556  1.2174 -1.9897 -0.0855
   59MOL    H3212908   1.777   0.785   2.627  0.7997  2.2384 -1.2674
   59MOL    H3312909   1.751   0.643   2.526  0.1142 -0.0147 -2.0169
   59MOL    H3412910   1.714   0.810   2.471 -0.7091 -1.0733 -0.2517
   59MOL    C3512911   1.352   0.794   2.545 -0.1579  0.3345  0.5365
   59MOL    C3612912   1.274   0.899   2.473 -0.1062  0.6096  0.5087
   59MOL    C3712913   1.297   0.887   2.321 -0.1297 -0.3411 -0.4969
   59MOL    O3812914   1.261   0.787   2.259 -0.2428 -0.2332 -0.1360
   59MOL    C3912915   1.363   1.003   2.240  0.4343 -0.2130  0.1763
   59MOL    H4012916   1.289   0.741   2.615  0.9949 -3.1184 -0.9332
   59MOL    H4112917   1.378   0.717   2.472 -0.3781 -0.2546  1.0743
   59MOL    H4212918   1.298   1.001   2.504 -1.3101  1.4572 -1.2386
   59MOL    H4312919   1.366   0.978   2.134 -0.6322  2.7269 -0.5873
   59MOL    H4412920   1.455   1.033   2.291  0.0815  0.4032  0.4500
   59MOL    H4512921   1.295   1.086   2.257  1.2152  0.8881 -1.9540
   59MOL    C4612922   1.122   0.887   2.498  0.3749 -0.7163  0.4299
   59MOL    C4712923   1.015   0.978   2.442  0.2398  0.2044  0.1555
   59MOL    C4812924   1.048   1.127   2.450  0.4083 -0.0267  0.4302
   59MOL    O4912925   1.050   1.204   2.353  0.2285 -0.1315  0.5616
   59MOL    C5012926   1.074   1.190   2.593  0.7533 -0.4062  0.4223
   59MOL    H5112927   1.118   0.902   2.606 -0.4156  2.2526  0.0470
   59MOL    H5212928   1.097   0.782   2.485 -1.1580 -0.3993  0.7006
   59MOL    H5312929   0.932   0.954   2.508  1.7691 -1.4981  1.4988
   59MOL    H5412930   1.054   1.112   2.667  0.0836 -1.6408 -1.0242
   59MOL    H5512931   1.175   1.227   2.612  0.0058  2.8643 -1.6002
   59MOL    H5612932   1.012   1.277   2.611 -3.8500 -2.8227 -2.7413
   59MOL    C5712933   0.975   0.943   2.287  0.0952 -0.1757 -0.2658
   59MOL    C5812934   0.850   1.013   2.233  0.4034  0.4889  0.1943
   59MOL    C5912935   0.849   1.011   2.082 -0.2248 -0.2445 -0.0677
   59MOL    O6012936   0.840   0.917   2.008  0.3656  0.4967 -0.1230
   59MOL    C6112937   0.861   1.149   2.023  0.2034  0.0738  0.1161
   59MOL    H6212938   0.962   0.835   2.281  0.5250 -0.3234  1.3348
   59MOL    H6312939   1.061   0.969   2.224 -1.2770  2.4394 -1.1318
   59MOL    H6412940   0.859   1.116   2.269 -1.2213  0.0713  1.8865
   59MOL    H6512941   0.947   1.197   2.069 -0.8115  1.3278  0.7725
   59MOL    H6612942   0.871   1.134   1.916  0.6891 -0.9088  0.3015
   59MOL    H6712943   0.777   1.218   2.036 -0.7511 -1.1369  0.4465
   59MOL    C6812944   0.724   0.968   2.303  1.0758  0.3429  0.4937
   59MOL    C6912945   0.617   1.072   2.276  0.4291 -0.1819 -0.3505
   59MOL    C7012946   0.628   1.193   2.365 -0.5080  0.6844 -0.0001
   59MOL    O7112947   0.688   1.198   2.469  0.3741  0.4273 -0.6078
   59MOL    C7212948   0.565   1.321   2.322  0.5338  0.3198  0.0570
   59MOL    H7312949   0.685   0.879   2.254  0.3974 -0.0917  1.8107
   59MOL    H7412950   0.741   0.955   2.410 -0.8991  0.3756  0.8240
   59MOL    H7512951   0.618   1.097   2.170  0.5263 -0.5447 -0.4382
   59MOL    H7612952   0.646   1.393   2.316  0.2571  0.6951  0.7287
   59MOL    H7712953   0.524   1.304   2.223  0.4066 -1.2273  0.3693
   59MOL    H7812954   0.493   1.355   2.397  0.6534 -1.5821  1.0473
   59MOL    C7912955   0.476   1.007   2.291  0.6831 -0.4400  0.0010
   59MOL    C8012956   0.431   0.915   2.172 -0.2495 -0.2128  0.3797
   59MOL    C8112957   0.410   1.007   2.047 -0.0879  0.1534 -0.1447
   59MOL    O8212958   0.438   1.123   2.051 -0.1499 -0.2662 -0.1755
   59MOL    C8312959   0.365   0.948   1.914 -0.2430 -0.1909  0.3967
   59MOL    H8412960   0.397   1.082   2.293  0.6937 -0.3655 -1.3951
   59MOL    H8512961   0.455   0.958   2.386 -1.5504 -0.3091 -0.4015
   59MOL    H8612962   0.510   0.841   2.157 -0.8724 -1.0526  1.2582
   59MOL    H8712963   0.380   0.998   1.819 -1.4443  1.1409  0.8945
   59MOL    H8812964   0.259   0.927   1.930 -0.3626 -1.4300 -1.8478
   59MOL    H8912965   0.418   0.853   1.905  0.4839  0.2407  0.0572
   59MOL    C9012966   0.301   0.834   2.201 -0.2539 -0.3516 -0.0012
   59MOL    C9112967   0.302   0.695   2.141 -0.0904  0.1553  0.6194
   59MOL    C9212968   0.379   0.589   2.217 -0.4369  0.2407 -0.3108
   59MOL    O9312969   0.320   0.517   2.296  0.0337 -0.1710 -0.3021
   59MOL    C9412970   0.528   0.586   2.196 -0.6227  0.1797  0.0921
   59MOL    H9512971   0.292   0.835   2.310  0.9077  1.7185  0.0987
   59MOL    H9612972   0.222   0.896   2.159  0.2373  0.2393 -0.0523
   59MOL    H9712973   0.348   0.706   2.043 -0.5369  1.8862  0.5744
   59MOL    H9812974   0.566   0.653   2.119  0.5931  0.9605  1.3557
   59MOL    H9912975   0.559   0.619   2.295 -2.8182 -0.7251  1.1328
   59MOL   H10012976   0.563   0.487   2.166 -2.6434 -0.1402 -1.3065
   59MOL   C10112977   0.155   0.648   2.104  0.1627  0.1006  0.0026
   59MOL   C10212978   0.151   0.531   1.998 -0.1441  0.1519 -0.7587
   59MOL   C10312979   0.185   0.586   1.856  1.2947  0.3165  0.3043
   59MOL   O10412980   0.172   0.701   1.826  0.1673  0.1902 -0.1592
   59MOL   C10512981   0.210   0.488   1.740  0.2907 -0.4918 -0.7315
   59MOL   H10612982   0.108   0.624   2.199 -0.0060  1.9897  0.4146
   59MOL   H10712983   0.090   0.731   2.077  1.1327  1.3524  1.4016
   59MOL   H10812984   0.227   0.457   2.023 -1.3687 -0.9913 -0.3565
   59MOL   H10912985   0.294   0.505   1.673  0.4510 -1.4683 -0.7833
   59MOL   H11012986   0.208   0.389   1.786 -1.0106 -0.1961 -0.1142
   59MOL   H11112987   0.114   0.486   1.688  0.5699  1.0369 -1.3468
   59MOL   C11212988   0.012   0.456   1.984 -0.3556 -0.5244  0.1761
   59MOL   C11312989   7.807   0.406   2.113  0.6485  0.2880 -0.0353
   59MOL   C11412990   0.013   0.277   2.168  0.0763  0.3049 -0.1078
   59MOL   O11512991   0.056   0.190   2.088  0.3474  0.0082 -0.1213
   59MOL   C11612992   0.037   0.270   2.322  0.3276 -0.7131  0.5567
   59MOL   H11712993   0.013   0.373   1.913  1.9680 -0.3350 -0.0543
   59MOL   H11812994   7.800   0.531   1.946  0.4889 -0.2342 -0.8255
   59MOL   H11912995   7.800   0.475   2.197 -0.9967 -0.7887  0.7308
   59MOL   H12012996   0.093   0.357   2.357 -2.3046  0.9761  0.7280
   59MOL   H12112997   7.801   0.273   2.378 -0.8018  1.2800 -1.3223
   59MOL   H12212998   0.084   0.176   2.352 -0.8463 -0.7725  2.2841
   59MOL   C12312999   7.653   0.383   2.074 -0.3412 -0.3863 -0.3073
   59MOL   C12413000   7.557   0.338   2.183 -0.5865 -0.2520  0.4180
   59MOL   C12513001   7.433   0.271   2.119 -0.7317  0.1865  1.0031
   59MOL   O12613002   7.322   0.322   2.112 -0.7398  0.3266 -0.1996
   59MOL   C12713003   7.472   0.138   2.048 -0.4030 -0.0122  0.6517
   59MOL   H12813004   7.654   0.310   1.993  0.4565 -0.9246  0.1834
   59MOL   H12913005   7.606   0.474   2.037 -1.1880 -0.4336  0.6188
   59MOL   H13013006   7.609   0.259   2.237  3.8081  1.4935 -1.0883
   59MOL   H13113007   7.562   0.098   2.093 -0.7138 -3.3109 -1.5213
   59MOL   H13213008   7.491   0.157   1.943  1.0135  0.5614  1.0025
   59MOL   H13313009   7.388   0.069   2.040 -1.1078  1.0679 -1.7114
   59MOL   C13413010   7.523   0.447   2.294  0.1989 -0.5122  0.1022
   59MOL   C13513011   7.457   0.377   2.415 -0.0737  0.3439 -0.1795
   59MOL   C13613012   7.562   0.362   2.531 -0.2505  0.0315 -0.4735
   59MOL   O13713013   7.617   0.459   2.580 -0.3755 -0.7787  0.0175
   59MOL   C13813014   7.584   0.225   2.591  0.1179  0.4641 -0.2509
   59MOL   H13913015   7.447   0.512   2.251 -0.6464 -0.4348  1.6954
   59MOL   H14013016   7.618   0.494   2.316  0.5782 -0.9380 -0.5988
   59MOL   H14113017   7.422   0.274   2.406 -0.0232  0.2841  0.3091
   59MOL   H14213018   7.645   0.231   2.682  0.8687 -0.4398 -0.6785
   59MOL   H14313019   7.631   0.155   2.522 -2.0435 -0.6801 -0.5792
   59MOL   H14413020   7.497   0.172   2.628 -0.6615  0.6517 -1.7800
   59MOL   C14513021   7.330   0.460   2.445 -0.3891 -0.1428 -0.3031
   59MOL   C14613022   7.248   0.407   2.562 -0.3311 -0.2195  0.2505
   59MOL   C14713023   7.155   0.510   2.623 -0.0482 -0.1278  0.1313
   59MOL   O14813024   7.071   0.568   2.554 -0.0164 -0.1317  0.3210
   59MOL   C14913025   7.174   0.559   2.766 -0.2569  0.3085  0.6353
   59MOL   H15013026   7.266   0.469   2.358 -0.5092  3.0161  0.0423
   59MOL   H15113027   7.364   0.558   2.480  2.6868 -1.8268  1.7440
   59MOL   H15213028   7.315   0.385   2.645 -0.0855  0.1579  0.1540
   59MOL   H15313029   7.281   0.566   2.785  0.3368 -2.5037 -1.2800
   59MOL   H15413030   7.114   0.647   2.789 -2.6289 -1.4552  1.4255
   59MOL   H15513031   7.132   0.482   2.831 -2.2709  0.7780 -0.0821
   59MOL   C15613032   7.173   0.274   2.523 -0.7362 -1.0099 -0.4049
   59MOL   C15713033   7.094   0.205   2.637 -0.2203  0.1578 -0.4421
   59MOL   C15813034   7.195   0.143   2.728  0.4451 -0.5140  0.0480
   59MOL   O15913035   7.284   0.077   2.688  0.2359  0.1123  0.6295
   59MOL   C16013036   7.175   0.164   2.878  0.0150  0.1101  0.7666
   59MOL   H16113037   7.105   0.306   2.444 -0.7468 -3.3329 -1.3503
   59MOL   H16213038   7.241   0.204   2.473  0.2420 -0.5799  0.2957
   59MOL   H16313039   7.047   0.291   2.685  2.3174  0.0451  2.4106
   59MOL   H16413040   7.271   0.190   2.923  0.8636  1.2764 -1.6421
   59MOL   H16513041   7.142   0.069   2.921  2.9846 -1.5294 -0.3744
   59MOL   H16613042   7.103   0.243   2.896 -0.9688 -0.5614 -0.1858
   59MOL   C16713043   6.987   0.106   2.578 -0.0915  0.3419 -0.4795
   59MOL   C16813044   6.879   0.073   2.685 -0.2203 -0.5638 -0.3718
   59MOL   C16913045   6.874   7.790   2.740 -0.1649 -0.7602  0.0959
   59MOL   O17013046   6.863   7.689   2.664  0.1533  0.0232 -0.1353
   59MOL   C17113047   6.879   7.775   2.893  0.0795 -0.4742  0.4173
   59MOL   H17213048   6.945   0.136   2.483  0.0577 -2.9694 -1.6616
   59MOL   H17313049   7.025   0.006   2.556 -2.3748 -0.9773  1.2652
   59MOL   H17413050   6.897   0.121   2.781  0.0181  0.4525 -0.9086
   59MOL   H17513051   6.907   0.006   2.950  1.0324 -0.7416  0.3822
   59MOL   H17613052   6.964   7.707   2.902 -1.3000 -2.2196  0.4657
   59MOL   H17713053   6.786   7.732   2.930 -1.3248  0.6200 -1.7263
   59MOL   C17813054   6.738   0.123   2.652  0.0317  0.4011 -0.2363
   59MOL   C17913055   6.726   0.268   2.624 -0.0839 -0.0331  0.0003
   59MOL   C18013056   6.756   0.332   2.761  0.0835  0.2224  0.3255
   59MOL   O18113057   6.862   0.388   2.788 -0.9071 -0.2103  0.3909
   59MOL   C18213058   6.644   0.337   2.866 -0.0978 -0.4607 -0.4821
   59MOL   H18313059   6.712   0.063   2.566 -0.3936  0.2314  0.0067
   59MOL   H18413060   6.664   0.099   2.729 -0.3822  1.3411 -0.3308
   59MOL   H18513061   6.801   0.285   2.547  0.5625 -1.2034  0.3528
   59MOL   H18613062   6.580   0.248   2.863  0.1316 -0.5988 -1.2351
   59MOL   H18713063   6.581   0.424   2.849  2.4477  1.5110  0.0323
   59MOL   H18813064   6.676   0.352   2.969 -1.6892 -1.7799  0.2337
   59MOL   C18913065   6.595   0.304   2.563 -0.3877 -0.1361  0.6963
   59MOL   C19013066   6.596   0.332   2.412  0.3627 -0.5510  0.0641
   59MOL   C19113067   6.653   0.211   2.341  0.2306 -0.2426 -0.0383
   59MOL   O19213068   6.591   0.106   2.349 -0.5977  0.1908 -0.1142
   59MOL   C19313069   6.779   0.232   2.244  0.4458 -0.3079  0.0770
   59MOL   H19413070   6.523   0.225   2.587 -1.9306  0.8982 -0.4658
   59MOL   H19513071   6.551   0.386   2.621  0.2571  1.3125 -0.8385
   59MOL   H19613072   6.651   0.422   2.383 -0.7966 -0.7303 -2.7680
   59MOL   H19713073   6.874   0.241   2.297  0.7483  5.0294 -1.0458
   59MOL   H19813074   6.775   0.157   2.164  0.0036  0.1006 -0.2862
   59MOL   H19913075   6.762   0.328   2.196 -1.4630 -1.1951 -1.0752
   59MOL   C20013076   6.452   0.360   2.359 -0.0407  0.6072 -0.2642
   59MOL   C20113077   6.423   0.364   2.211  0.3263 -0.3835 -0.6299
   59MOL   C20213078   6.499   0.476   2.141 -0.8176 -0.1161  0.8177
   59MOL   O20313079   6.549   0.464   2.031 -0.4679 -1.0641  0.1649
   59MOL   C20413080   6.503   0.614   2.204 -0.2853  0.4042  0.8178
   59MOL   H20513081   6.390   0.281   2.401  0.1971  1.0464  0.9621
   59MOL   H20613082   6.413   0.450   2.409  0.3908  1.6903 -1.8515
   59MOL   H20713083   6.446   0.271   2.160 -0.0547 -1.4159  1.0588
   59MOL   H20813084   6.594   0.635   2.261 -1.0963  3.4728  1.0894
   59MOL   H20913085   6.493   0.682   2.119  0.4330 -0.2735  0.1888
   59MOL   H21013086   6.415   0.628   2.266 -1.9545 -0.4993 -1.3169
   59MOL   C21113087   6.268   0.378   2.180  0.3294 -0.3419 -0.2065
   59MOL   C21213088   6.222   0.432   2.038 -0.4416 -0.0059  1.1077
   59MOL   C21313089   6.233   0.336   1.917 -0.1573  0.8070  0.1046
   59MOL   O21413090   6.296   0.229   1.924 -0.3165  0.1978 -0.0210
   59MOL   C21513091   6.173   0.383   1.784 -0.0459 -0.0225 -0.0058
   59MOL   H21613092   6.224   0.280   2.196 -1.5112  0.0572 -2.5536
   59MOL   H21713093   6.220   0.443   2.254 -1.7565 -2.5708  0.4436
   59MOL   H21813094   6.269   0.526   2.010 -0.0195 -0.5736 -0.1071
   59MOL   H21913095   6.235   0.459   1.738  0.0422 -2.2586 -3.7585
   59MOL   H22013096   6.163   0.298   1.717  1.2109 -0.5805  0.4905
   59MOL   H22113097   6.080   0.428   1.816  0.4539  0.2440  1.1185
   59MOL   H22213098   6.113   0.436   2.044 -0.3924  2.0969  0.9083
   60MOL     C113099   4.356   1.427   4.347 -0.0473 -0.0120  0.6157
   60MOL     C213100   4.403   1.333   4.463 -0.2150  1.1724  0.1664
   60MOL     C313101   4.375   1.184   4.430  0.0549  0.0256  0.4071
   60MOL     O413102   4.423   1.132   4.333  0.1515 -0.3887  0.3210
   60MOL     C513103   4.319   1.099   4.537 -0.1830 -0.2208 -0.7508
   60MOL     H613104   4.424   1.425   4.261  0.8821  0.3058  1.3353
   60MOL     H713105   4.341   1.532   4.373 -0.1136 -0.0647  0.7909
   60MOL     H813106   4.339   1.353   4.549 -3.8257  0.7520 -2.3255
   60MOL     H913107   4.237   1.144   4.594  1.4449  2.9180 -0.7901
   60MOL    H1013108   4.286   1.004   4.495 -0.0773 -0.6983  0.2337
   60MOL    H1113109   4.406   1.082   4.601 -0.9188 -1.8757 -0.1580
   60MOL    H1213110   4.260   1.391   4.309 -0.0831 -0.2384  0.9181
   60MOL    C1313111   4.538   1.386   4.519  0.1746  0.4436 -0.0728
   60MOL    C1413112   4.666   1.370   4.430 -0.5169 -0.8211  0.0414
   60MOL    C1513113   4.720   1.225   4.426 -0.0742 -0.3442  0.3017
   60MOL    O1613114   4.716   1.149   4.519 -0.1797 -0.1380  0.3458
   60MOL    C1713115   4.769   1.174   4.289 -0.4616  0.1721 -0.3738
   60MOL    H1813116   4.526   1.492   4.538  0.5145  0.5779 -0.5880
   60MOL    H1913117   4.560   1.347   4.618  1.9433  1.4980 -0.0291
   60MOL    H2013118   4.641   1.384   4.324  3.2692  2.0530 -0.5900
   60MOL    H2113119   4.865   1.216   4.258 -0.4875  0.2932 -0.2872
   60MOL    H2213120   4.782   1.066   4.302 -1.5927  0.0101 -0.5064
   60MOL    H2313121   4.695   1.194   4.212 -0.2408  1.1666 -0.3388
   60MOL    C2413122   4.781   1.467   4.470  0.2713  0.8496 -0.4891
   60MOL    C2513123   4.821   1.468   4.622  0.3212  0.8094 -0.3480
   60MOL    C2613124   4.904   1.346   4.669 -0.5388  0.1542 -0.1084
   60MOL    O2713125   5.018   1.326   4.628 -0.4178  0.1016 -0.2922
   60MOL    C2813126   4.844   1.257   4.780 -0.1469 -0.1245  1.1666
   60MOL    H2913127   4.876   1.444   4.423 -0.0058 -1.7716  0.1709
   60MOL    H3013128   4.754   1.568   4.437 -2.9707  0.4670  0.7524
   60MOL    H3113129   4.725   1.462   4.674  0.8273 -0.8576  0.4336
   60MOL    H3213130   4.888   1.291   4.874 -0.6662  1.4881  0.8493
   60MOL    H3313131   4.736   1.267   4.787 -0.5217 -2.1858 -0.8898
   60MOL    H3413132   4.868   1.151   4.778 -0.8127 -0.2655  0.3421
   60MOL    C3513133   4.894   1.594   4.654  0.0689  0.2240  0.6830
   60MOL    C3613134   4.849   1.660   4.788  0.0023  0.1858 -0.2289
   60MOL    C3713135   4.929   1.792   4.816  0.1132 -0.7941 -0.6156
   60MOL    O3813136   4.886   1.876   4.893  0.8768 -0.4956  0.1835
   60MOL    C3913137   5.072   1.791   4.769  0.5113 -0.5589  0.0570
   60MOL    H4013138   4.889   1.666   4.573  1.6875 -0.1701  0.2033
   60MOL    H4113139   5.000   1.570   4.665 -0.0619 -1.3385 -1.1984
   60MOL    H4213140   4.887   1.592   4.864  2.3256 -1.1205 -2.4574
   60MOL    H4313141   5.073   1.777   4.661  1.0556 -1.3067  0.1524
   60MOL    H4413142   5.124   1.708   4.817  3.6368  0.3270 -1.6723
   60MOL    H4513143   5.118   1.884   4.803  0.4163 -0.3592 -0.3536
   60MOL    C4613144   4.701   1.668   4.810 -0.0099  0.2924  1.0926
   60MOL    C4713145   4.659   1.653   4.964  0.6914 -0.1284 -0.3789
   60MOL    C4813146   4.519   1.707   4.986  0.0742 -0.5381  1.0823
   60MOL    O4913147   4.425   1.650   4.924 -0.1812 -0.0748  0.3391
   60MOL    C5013148   4.500   1.853   5.042 -0.0086  0.0096 -0.3758
   60MOL    H5113149   4.637   1.608   4.745 -0.0871  2.3108 -0.7589
   60MOL    H5213150   4.672   1.770   4.785  1.4276  0.0988 -1.6387
   60MOL    H5313151   4.719   1.721   5.026  0.1353 -0.4667  0.5379
   60MOL    H5413152   4.434   1.855   5.129  0.8303  2.8577  0.2480
   60MOL    H5513153   4.590   1.898   5.083 -1.0189  0.2634  1.6217
   60MOL    H5613154   4.452   1.921   4.972 -2.2947  0.4518  1.5600
   60MOL    C5713155   4.689   1.516   5.029 -0.3492 -0.1648  0.2233
   60MOL    C5813156   4.669   1.497   5.184  0.5294  0.4575 -0.4687
   60MOL    C5913157   4.744   1.596   5.279  0.2828  0.7065 -0.0028
   60MOL    O6013158   4.708   1.714   5.283 -0.0832 -0.2251 -0.6349
   60MOL    C6113159   4.839   1.530   5.379 -0.0405  0.2842 -0.5636
   60MOL    H6213160   4.798   1.508   5.024 -0.5457 -2.0399 -1.6446
   60MOL    H6313161   4.654   1.430   4.973  1.3957 -0.3397 -0.6244
   60MOL    H6413162   4.719   1.404   5.209  0.2759  0.2910 -0.5738
   60MOL    H6513163   4.797   1.432   5.405  3.6051 -0.8506  1.2801
   60MOL    H6613164   4.939   1.518   5.338 -1.1252  0.7102 -3.4610
   60MOL    H6713165   4.850   1.592   5.467 -1.5079 -1.6866  1.0452
   60MOL    C6813166   4.527   1.476   5.237  0.6273 -0.0313  0.1479
   60MOL    C6913167   4.482   1.329   5.232  0.3636  0.9505 -0.1531
   60MOL    C7013168   4.562   1.229   5.317  0.1681 -0.5411 -0.0677
   60MOL    O7113169   4.634   1.148   5.262 -0.1687  0.3002  0.4123
   60MOL    C7213170   4.565   1.245   5.474 -0.1509  0.1913  0.2506
   60MOL    H7313171   4.519   1.512   5.340 -0.9595 -0.1695  0.0996
   60MOL    H7413172   4.463   1.547   5.184 -2.6365 -2.3837  0.7716
   60MOL    H7513173   4.398   1.330   5.301  0.9260  0.9983  0.5368
   60MOL    H7613174   4.570   1.156   5.537 -1.6113  0.3184  0.5641
   60MOL    H7713175   4.641   1.316   5.507 -0.9238  1.5891 -0.9080
   60MOL    H7813176   4.476   1.302   5.498  0.0345  1.3927 -1.8135
   60MOL    C7913177   4.456   1.280   5.088  0.8544 -0.5324 -0.2018
   60MOL    C8013178   4.350   1.164   5.083  0.1579 -0.5862 -0.5182
   60MOL    C8113179   4.362   1.069   4.963  0.0632 -1.0994 -0.2250
   60MOL    O8213180   4.430   1.101   4.867  0.6210 -0.3351 -0.5792
   60MOL    C8313181   4.293   0.931   4.965  0.3188 -0.0848  0.1774
   60MOL    H8413182   4.549   1.238   5.051  1.0496 -0.8826  0.6583
   60MOL    H8513183   4.423   1.367   5.031  1.8717  0.5187  0.7661
   60MOL    H8613184   4.387   1.096   5.159 -0.4470  0.4795  0.7512
   60MOL    H8713185   4.247   0.915   5.062  3.1832 -0.0733  1.6011
   60MOL    H8813186   4.366   0.857   4.933  1.9297  1.2570  0.6419
   60MOL    H8913187   4.214   0.945   4.891  0.6854  0.0114 -0.2005
   60MOL    C9013188   4.201   1.203   5.111  0.1446 -0.8724 -0.6459
   60MOL    C9113189   4.153   1.337   5.054 -0.4603  0.2225 -0.6177
   60MOL    C9213190   4.116   1.335   4.903 -0.4124  0.0331 -0.3745
   60MOL    O9313191   4.076   1.231   4.844  0.5949 -0.2496 -0.4701
   60MOL    C9413192   4.146   1.463   4.823  0.3650 -0.2529 -0.3753
   60MOL    H9513193   4.138   1.121   5.079 -1.2208  0.3554 -1.1847
   60MOL    H9613194   4.201   1.207   5.220  0.2069 -1.2818 -0.6326
   60MOL    H9713195   4.230   1.409   5.082 -0.6664 -0.7171  2.4647
   60MOL    H9813196   4.255   1.464   4.815  0.6821 -1.3952  2.8618
   60MOL    H9913197   4.120   1.471   4.718 -1.6884 -1.3166  0.0333
   60MOL   H10013198   4.122   1.560   4.865  1.1040 -0.3030  0.1667
   60MOL   C10113199   4.034   1.401   5.135 -0.5160  0.8560  0.3503
   60MOL   C10213200   4.034   1.557   5.175  0.3280  0.1023 -0.1198
   60MOL   C10313201   4.133   1.592   5.295  0.4587 -0.6075  0.0279
   60MOL   O10413202   4.172   1.502   5.374  0.4068 -0.3876  0.0184
   60MOL   C10513203   4.185   1.735   5.298  0.4455  0.4342 -0.7970
   60MOL   H10613204   3.943   1.377   5.080  0.2034  2.1509 -1.4320
   60MOL   H10713205   4.023   1.346   5.229  3.0786 -1.2170 -0.3891
   60MOL   H10813206   4.083   1.604   5.090 -0.1512 -1.5179 -1.3177
   60MOL   H10913207   4.281   1.739   5.246 -0.1312  1.6799 -1.7835
   60MOL   H11013208   4.130   1.814   5.247 -0.6295  1.2048  1.5238
   60MOL   H11113209   4.207   1.773   5.398  0.6252  1.5443 -1.2477
   60MOL   C11213210   3.889   1.609   5.200  0.3750 -0.3930 -0.7404
   60MOL   C11313211   3.817   1.571   5.329 -0.2115  0.1262 -0.3557
   60MOL   C11413212   3.755   1.428   5.331 -0.2885 -0.5645  0.3472
   60MOL   O11513213   3.707   1.382   5.228 -0.3666  0.3737 -0.5349
   60MOL   C11613214   3.752   1.367   5.473 -0.3422 -0.2152 -0.1872
   60MOL   H11713215   3.833   1.587   5.109 -1.7445 -0.2281  0.4885
   60MOL   H11813216   3.891   1.718   5.204  0.5643 -0.4523  1.2003
   60MOL   H11913217   3.899   1.573   5.401  0.5548 -1.5074 -1.1625
   60MOL   H12013218   3.674   1.419   5.529  0.8855  1.0204  0.4027
   60MOL   H12113219   3.724   1.262   5.464 -0.6183  0.0739 -3.4279
   60MOL   H12213220   3.845   1.385   5.525 -0.7414  1.6966 -0.0979
   60MOL   C12313221   3.710   1.674   5.381  0.2249  0.3801 -0.3266
   60MOL   C12413222   3.748   1.817   5.438 -1.3526  0.1219  0.7499
   60MOL   C12513223   3.847   1.806   5.557  0.4275 -0.6512  0.6608
   60MOL   O12613224   3.843   1.718   5.642  0.0853 -0.0564 -0.4155
   60MOL   C12713225   3.956   1.923   5.548  0.1658  0.3377 -0.4117
   60MOL   H12813226   3.650   1.630   5.460 -1.6645  0.3558 -1.7193
   60MOL   H12913227   3.644   1.695   5.296 -1.1546  1.4831  0.9881
   60MOL   H13013228   3.803   1.874   5.363  1.0023 -1.9901  0.8163
   60MOL   H13113229   3.941   1.995   5.467 -1.4817 -1.9704 -2.2446
   60MOL   H13213230   4.047   1.876   5.510  0.4188  0.9068 -0.5212
   60MOL   H13313231   3.968   1.977   5.642  0.2792  0.9434 -0.7691
   60MOL   C13413232   3.632   1.907   5.496  0.0841  0.0478  0.4102
   60MOL   C13513233   3.524   1.938   5.383  0.0900 -0.4576 -0.9191
   60MOL   C13613234   3.395   1.982   5.451 -0.4449  0.2672 -0.1743
   60MOL   O13713235   3.390   2.096   5.500  0.8362  0.3402  0.6680
   60MOL   C13813236   3.279   1.876   5.458 -0.5870 -0.0449  0.0882
   60MOL   H13913237   3.679   1.997   5.535 -0.9818  1.0721 -0.6197
   60MOL   H14013238   3.586   1.850   5.576  1.5858 -0.5667  0.8610
   60MOL   H14113239   3.501   1.849   5.324 -1.6908 -1.1294  0.7581
   60MOL   H14213240   3.210   1.871   5.375 -2.6699 -3.4814  1.9429
   60MOL   H14313241   3.227   1.900   5.551 -1.7500 -1.3018 -0.2277
   60MOL   H14413242   3.329   1.781   5.478 -0.1373  0.1043 -0.3195
   60MOL   C14513243   3.577   2.038   5.286  0.2178  0.1971  0.4466
   60MOL   C14613244   3.492   2.047   5.161  0.4049 -0.1589  0.2554
   60MOL   C14713245   3.518   2.182   5.094  0.2718 -0.3061 -0.1316
   60MOL   O14813246   3.631   2.226   5.064 -0.2127  0.1557  0.2532
   60MOL   C14913247   3.391   2.258   5.053  0.0534 -0.6350 -0.7887
   60MOL   H15013248   3.675   2.003   5.253 -0.5642 -1.2549 -0.3478
   60MOL   H15113249   3.594   2.132   5.339  0.2144  0.7157 -0.4477
   60MOL   H15213250   3.388   2.055   5.190  0.2892  0.1013 -0.2281
   60MOL   H15313251   3.409   2.365   5.044 -2.6257 -0.3520 -3.3143
   60MOL   H15413252   3.368   2.231   4.950 -1.5761 -0.0344 -0.5881
   60MOL   H15513253   3.312   2.249   5.127  1.9241 -0.4899  1.2731
   60MOL   C15613254   3.497   1.935   5.050 -0.3042 -0.4768  0.8666
   60MOL   C15713255   3.412   1.938   4.922 -0.0792  0.2582  0.2992
   60MOL   C15813256   3.271   1.890   4.942  0.2517 -0.5850 -0.3006
   60MOL   O15913257   3.232   1.851   5.055 -0.5164  0.0690  0.0594
   60MOL   C16013258   3.183   1.892   4.820  0.0351 -0.4034 -0.2515
   60MOL   H16113259   3.603   1.935   5.023  0.1260 -1.0892  2.5176
   60MOL   H16213260   3.478   1.839   5.098 -1.2912 -0.7890 -0.1141
   60MOL   H16313261   3.413   2.040   4.884  0.1045  0.9215  2.0482
   60MOL   H16413262   3.204   1.813   4.748  0.2454 -0.7219  0.1519
   60MOL   H16513263   3.180   1.991   4.774  0.8833 -0.3229 -0.1288
   60MOL   H16613264   3.084   1.864   4.857  0.8294 -1.5141  1.0807
   60MOL   C16713265   3.473   1.853   4.805 -0.1966 -0.1204  0.9778
   60MOL   C16813266   3.470   1.694   4.817 -0.0416 -0.3467  0.2361
   60MOL   C16913267   3.569   1.653   4.925 -0.0996 -0.8339 -0.9720
   60MOL   O17013268   3.690   1.676   4.913 -0.2688 -0.9726  0.0004
   60MOL   C17113269   3.521   1.561   5.035  0.2065  0.1982 -0.2603
   60MOL   H17213270   3.422   1.885   4.715  2.4945 -1.5608 -1.1429
   60MOL   H17313271   3.572   1.897   4.791 -0.9637  1.4273  0.2587
   60MOL   H17413272   3.378   1.656   4.862  0.9569  1.3255  3.9375
   60MOL   H17513273   3.413   1.574   5.042  0.2922  1.0313 -0.3859
   60MOL   H17613274   3.564   1.590   5.131 -1.3813 -1.5154  1.0000
   60MOL   H17713275   3.544   1.455   5.023 -2.9901 -0.4743 -0.9359
   60MOL   C17813276   3.475   1.610   4.686 -0.5659  0.0099 -0.1770
   60MOL   C17913277   3.465   1.455   4.682 -0.6696 -0.1516 -0.2884
   60MOL   C18013278   3.331   1.409   4.733  0.0599 -0.5045  0.4023
   60MOL   O18113279   3.319   1.322   4.817 -0.2368  0.4843  0.2925
   60MOL   C18213280   3.213   1.455   4.663 -0.1214 -0.0204 -0.1434
   60MOL   H18313281   3.402   1.651   4.616  0.5340 -0.0624 -1.3887
   60MOL   H18413282   3.569   1.623   4.632  0.1943 -3.2018  0.2595
   60MOL   H18513283   3.469   1.434   4.575  1.1953 -0.3014 -0.2156
   60MOL   H18613284   3.223   1.512   4.571  2.3826 -0.5646 -0.2472
   60MOL   H18713285   3.141   1.514   4.719  0.1775  1.6564 -1.5112
   60MOL   H18813286   3.163   1.363   4.632  0.4528 -0.0439 -1.0122
   60MOL   C18913287   3.594   1.374   4.733 -0.0855  0.4386 -0.0224
   60MOL   C19013288   3.620   1.233   4.677  0.1650 -0.1217  0.0149
   60MOL   C19113289   3.647   1.243   4.522 -0.5972 -0.0369  0.0462
   60MOL   O19213290   3.565   1.193   4.445 -0.0775  0.5528  0.1290
   60MOL   C19313291   3.769   1.325   4.475  0.6712  0.1157 -0.0698
   60MOL   H19413292   3.678   1.435   4.701 -0.2327  1.9890  2.4842
   60MOL   H19513293   3.601   1.354   4.840  2.7168  0.9395 -0.0961
   60MOL   H19613294   3.533   1.170   4.691 -1.9417  2.6782  0.0920
   60MOL   H19713295   3.745   1.431   4.466 -2.3281 -0.1143  3.7317
   60MOL   H19813296   3.855   1.310   4.540  0.6464 -0.9663 -0.2662
   60MOL   H19913297   3.791   1.283   4.377 -1.7978 -2.4821  0.4204
   60MOL   C20013298   3.730   1.168   4.754 -0.4275  0.4819  0.0942
   60MOL   C20113299   3.758   1.016   4.739 -0.1210  0.0476 -0.4417
   60MOL   C20213300   3.653   0.937   4.815 -0.3234  0.7931 -0.2012
   60MOL   O20313301   3.652   0.932   4.939 -0.3764 -0.0336 -0.1885
   60MOL   C20413302   3.530   0.880   4.745  0.4660 -0.9091  0.7139
   60MOL   H20513303   3.827   1.216   4.738  0.7715 -1.7812  0.2948
   60MOL   H20613304   3.711   1.189   4.860 -1.0495 -3.4154  0.8400
   60MOL   H20713305   3.743   0.991   4.634  4.4893  1.7479 -1.6358
   60MOL   H20813306   3.529   0.918   4.644 -0.5062  0.6676  1.3004
   60MOL   H20913307   3.534   0.771   4.743  1.4348 -0.8532 -2.5797
   60MOL   H21013308   3.448   0.914   4.808  0.1447 -1.2239  0.4644
   60MOL   C21113309   3.898   0.985   4.786  0.1552  0.1214 -0.0751
   60MOL   C21213310   3.943   0.837   4.779  0.3503 -0.8511 -0.2740
   60MOL   C21313311   3.983   0.796   4.644  0.1101  0.0367  0.1046
   60MOL   O21413312   3.980   0.859   4.542 -0.2475  0.2603  0.2595
   60MOL   C21513313   4.043   0.657   4.631  0.4894 -1.2440 -0.2249
   60MOL   H21613314   3.963   1.049   4.725 -2.3206 -0.6999 -3.7511
   60MOL   H21713315   3.914   1.026   4.886 -0.9361 -0.1913  0.2277
   60MOL   H21813316   3.865   0.767   4.809 -1.3748  1.7486  1.4471
   60MOL   H21913317   4.119   0.641   4.708 -0.8204  0.6879  1.5268
   60MOL   H22013318   3.974   0.581   4.668  1.0504 -1.1343  1.0680
   60MOL   H22113319   4.091   0.639   4.535 -1.5812  0.0808 -1.5435
   60MOL   H22213320   4.021   0.825   4.854  0.9578  0.3813 -0.6933
   61MOL     C113321   1.724   1.059   5.987 -0.0394 -0.1210 -0.1892
   61MOL     C213322   1.784   1.163   5.876  0.3781  0.1695 -0.4194
   61MOL     C313323   1.667   1.210   5.792  0.3542 -0.3926 -0.0311
   61MOL     O413324   1.627   1.325   5.811  0.3480 -0.4990  0.6278
   61MOL     C513325   1.591   1.110   5.714 -1.2737  0.3925  0.2045
   61MOL     H613326   1.806   1.026   6.050  0.4943  3.1964  0.9141
   61MOL     H713327   1.686   0.971   5.934 -2.2663  1.3430 -1.1333
   61MOL     H813328   1.855   1.117   5.808 -0.3534 -1.6285 -0.0133
   61MOL     H913329   1.635   1.012   5.733 -1.4914  0.2417 -0.0840
   61MOL    H1013330   1.485   1.098   5.737 -0.6537 -1.5372  2.2688
   61MOL    H1113331   1.602   1.126   5.607  2.0948  0.7323  0.5230
   61MOL    H1213332   1.632   1.099   6.029 -0.1805  0.8831 -1.4285
   61MOL    C1313333   1.859   1.277   5.951 -0.3553  0.1456 -0.7282
   61MOL    C1413334   1.915   1.386   5.858 -0.8523  0.8189  0.0547
   61MOL    C1513335   2.005   1.330   5.740  0.1373  0.0309 -0.2299
   61MOL    O1613336   2.121   1.297   5.760  0.0979  0.9365  0.2283
   61MOL    C1713337   1.944   1.332   5.604  0.6961  0.2187 -0.6029
   61MOL    H1813338   1.806   1.334   6.027  0.6088  1.8721 -1.3030
   61MOL    H1913339   1.943   1.241   6.011  0.6586 -0.9587 -2.7523
   61MOL    H2013340   1.831   1.421   5.798 -0.8931  0.2737 -0.2048
   61MOL    H2113341   1.965   1.244   5.543 -0.9660 -1.1279  0.7227
   61MOL    H2213342   1.838   1.357   5.594  0.9103  1.1375 -0.5792
   61MOL    H2313343   1.996   1.416   5.559 -0.4086  1.4054  0.2879
   61MOL    C2413344   1.978   1.504   5.940 -0.1862 -0.0060  0.5844
   61MOL    C2513345   1.931   1.645   5.898  0.0002  0.1638 -0.2019
   61MOL    C2613346   1.988   1.699   5.766 -0.3049 -0.4997 -0.0631
   61MOL    O2713347   1.914   1.740   5.680 -0.7425  0.4035 -0.3075
   61MOL    C2813348   2.135   1.713   5.758  0.0180 -0.5222  0.1729
   61MOL    H2913349   1.938   1.488   6.040 -1.5668 -1.5508 -0.2008
   61MOL    H3013350   2.085   1.502   5.962 -0.5080  0.2783  2.2794
   61MOL    H3113351   1.979   1.699   5.980 -0.5094  0.7741 -0.3052
   61MOL    H3213352   2.161   1.740   5.655 -2.6562  0.3111 -0.3486
   61MOL    H3313353   2.156   1.803   5.816  0.0898 -0.6641  0.3650
   61MOL    H3413354   2.192   1.630   5.798 -0.7260 -2.0796 -1.8867
   61MOL    C3513355   1.772   1.654   5.915 -0.4348  0.1295 -0.2852
   61MOL    C3613356   1.718   1.790   5.958  0.5153 -0.5008 -0.4793
   61MOL    C3713357   1.573   1.769   6.003 -0.6338  0.0645  0.6392
   61MOL    O3813358   1.537   1.685   6.095  0.2676 -0.3301  0.4463
   61MOL    C3913359   1.456   1.842   5.935  0.1981  0.0696  0.1875
   61MOL    H4013360   1.740   1.581   5.989 -1.7638 -0.3431 -1.3225
   61MOL    H4113361   1.721   1.610   5.829 -0.1243 -1.0326  0.1118
   61MOL    H4213362   1.726   1.863   5.878 -2.5812  0.4719  0.0171
   61MOL    H4313363   1.445   1.800   5.835  0.0169  0.9714 -0.1686
   61MOL    H4413364   1.478   1.948   5.932 -1.6257  0.4246 -0.8101
   61MOL    H4513365   1.363   1.822   5.989  0.7888  0.2451  1.2795
   61MOL    C4613366   1.792   1.838   6.083 -1.0514  0.0557 -0.5869
   61MOL    C4713367   1.900   1.948   6.066 -0.2359  0.4085  0.2507
   61MOL    C4813368   1.837   2.077   6.002 -0.2831 -0.1205 -0.6398
   61MOL    O4913369   1.731   2.131   6.043  0.8550  0.0087 -0.1690
   61MOL    C5013370   1.906   2.142   5.875 -0.1193  0.0725  0.1425
   61MOL    H5113371   1.846   1.760   6.137  0.9945  1.1555 -0.9875
   61MOL    H5213372   1.718   1.883   6.149 -1.2682  1.5471 -1.8099
   61MOL    H5313373   1.978   1.913   6.000 -3.0902 -1.4811 -2.2459
   61MOL    H5413374   1.834   2.185   5.804  1.7509  1.4385 -0.9627
   61MOL    H5513375   1.974   2.218   5.913  1.8587 -1.2341 -0.7003
   61MOL    H5613376   1.971   2.072   5.824  0.0611 -0.6500  1.3464
   61MOL    C5713377   1.971   1.987   6.192  0.0987 -0.6076 -0.3101
   61MOL    C5813378   2.102   2.080   6.181  0.2529  0.2254 -0.8875
   61MOL    C5913379   2.100   2.182   6.296 -0.5661 -0.3577  0.2407
   61MOL    O6013380   2.020   2.177   6.393 -0.1808 -0.2449  0.7512
   61MOL    C6113381   2.194   2.305   6.280 -0.2637 -0.6280 -0.2348
   61MOL    H6213382   1.990   1.899   6.254  0.4032  0.4732  1.1386
   61MOL    H6313383   1.897   2.042   6.250  0.4469  1.6768 -1.9463
   61MOL    H6413384   2.088   2.144   6.094 -0.0811  1.4508  0.0522
   61MOL    H6513385   2.157   2.384   6.346  1.4493  0.6389 -0.7632
   61MOL    H6613386   2.289   2.274   6.323 -0.1089  1.8886  1.3460
   61MOL    H6713387   2.202   2.341   6.177  3.2676 -0.5877  0.0099
   61MOL    C6813388   2.228   1.993   6.166 -0.2830 -0.4148  0.7140
   61MOL    C6913389   2.351   2.069   6.109 -0.2703  0.4187 -0.1041
   61MOL    C7013390   2.330   2.102   5.965  0.0143  0.2748  0.2284
   61MOL    O7113391   2.264   2.026   5.891 -0.0063  0.2237  0.0959
   61MOL    C7213392   2.400   2.225   5.896 -0.9043  0.4205  0.2166
   61MOL    H7313393   2.254   1.955   6.265 -1.0175 -1.5993  0.4564
   61MOL    H7413394   2.219   1.901   6.109  0.6647  1.1980 -2.1193
   61MOL    H7513395   2.352   2.167   6.155  4.2470 -0.1604  1.2482
   61MOL    H7613396   2.412   2.312   5.960 -0.3889  0.2763  0.3189
   61MOL    H7713397   2.499   2.183   5.877 -0.0911  1.5150  1.8931
   61MOL    H7813398   2.341   2.260   5.811 -1.1925  0.8812  0.6034
   61MOL    C7913399   2.492   2.004   6.139  0.1223  0.5290  0.4063
   61MOL    C8013400   2.571   2.052   6.270  0.3534  0.4593  0.5307
   61MOL    C8113401   2.482   2.017   6.397  0.4073  0.0120  0.4363
   61MOL    O8213402   2.412   2.104   6.451 -0.1035  0.6507 -0.4878
   61MOL    C8313403   2.478   1.871   6.447  0.0464 -0.2368  0.1004
   61MOL    H8413404   2.562   2.016   6.056 -3.2377  1.3278 -2.4550
   61MOL    H8513405   2.464   1.899   6.142  2.0293  0.0591  2.7269
   61MOL    H8613406   2.663   1.996   6.284 -0.0710  0.1659  2.2250
   61MOL    H8713407   2.566   1.832   6.397  1.6559  5.4655 -1.8735
   61MOL    H8813408   2.386   1.821   6.418 -0.1847  1.1281 -1.5627
   61MOL    H8913409   2.509   1.879   6.551 -1.0708  0.3933  0.3985
   61MOL    C9013410   2.596   2.202   6.253 -0.2039  0.8223 -0.5559
   61MOL    C9113411   2.731   2.250   6.326 -0.4208  0.5615 -0.4169
   61MOL    C9213412   2.730   2.237   6.477  0.2005 -0.0379  0.3081
   61MOL    O9313413   2.774   2.137   6.534 -0.3771 -0.0388  0.0630
   61MOL    C9413414   2.671   2.352   6.558  0.0691  0.1819 -0.3444
   61MOL    H9513415   2.612   2.214   6.146 -0.3838  0.7699 -0.5896
   61MOL    H9613416   2.512   2.261   6.290 -0.4466  1.1920 -1.6699
   61MOL    H9713417   2.720   2.358   6.322 -1.8041  0.4542 -0.0975
   61MOL    H9813418   2.697   2.444   6.506  0.1386 -0.3926 -1.3210
   61MOL    H9913419   2.562   2.353   6.546 -0.2047 -0.7193  1.7375
   61MOL   H10013420   2.704   2.347   6.662  0.2934 -0.2617 -0.4347
   61MOL   C10113421   2.867   2.210   6.257 -0.2039 -0.5404  0.0768
   61MOL   C10213422   2.971   2.334   6.263 -0.8185  0.9028  0.3425
   61MOL   C10313423   2.935   2.441   6.157 -0.3929 -0.5225 -0.3664
   61MOL   O10413424   2.962   2.429   6.038  0.4354  0.3747 -0.3922
   61MOL   C10513425   2.849   2.561   6.208 -0.1205  0.3502 -0.8065
   61MOL   H10613426   2.902   2.115   6.296  0.9066  0.0876  0.6402
   61MOL   H10713427   2.850   2.179   6.154  1.7926 -1.3077 -0.0461
   61MOL   H10813428   2.963   2.379   6.362  1.1351 -0.5779  1.1910
   61MOL   H10913429   2.869   2.584   6.313  2.6611  0.3716 -1.3309
   61MOL   H11013430   2.859   2.651   6.147  1.3456 -2.4209 -4.7906
   61MOL   H11113431   2.741   2.546   6.218 -0.2957  0.9486 -1.7718
   61MOL   C11213432   3.116   2.281   6.244 -0.5139 -0.6094 -0.4560
   61MOL   C11313433   3.163   2.189   6.353  0.2035 -0.9621 -0.3820
   61MOL   C11413434   3.201   2.276   6.477  0.5820 -0.3510  0.4760
   61MOL   O11513435   3.309   2.321   6.491  0.4130  0.0152 -0.0056
   61MOL   C11613436   3.085   2.295   6.575  0.2008  0.1527  0.5980
   61MOL   H11713437   3.193   2.356   6.225 -0.6536 -0.6326 -1.1183
   61MOL   H11813438   3.112   2.230   6.148  0.8679  0.7320 -1.2417
   61MOL   H11913439   3.074   2.135   6.384  1.2128 -1.2557  2.1581
   61MOL   H12013440   3.015   2.367   6.533 -0.1412 -0.4310  0.1622
   61MOL   H12113441   3.039   2.198   6.594 -0.1235  0.0311 -0.7881
   61MOL   H12213442   3.136   2.334   6.663 -0.0588  0.9159  0.4098
   61MOL   C12313443   3.278   2.095   6.315  0.4932  0.3971  0.5964
   61MOL   C12413444   3.304   1.987   6.421  1.1471 -0.5938  0.0175
   61MOL   C12513445   3.452   1.942   6.411  0.4200  0.9306  0.3392
   61MOL   O12613446   3.488   1.849   6.332 -0.3870  0.5223 -0.4536
   61MOL   C12713447   3.547   2.018   6.503  0.2452 -0.0311  0.2499
   61MOL   H12813448   3.370   2.150   6.297 -0.4784  1.9024  0.0566
   61MOL   H12913449   3.237   2.047   6.226 -1.7236 -3.5592  3.5703
   61MOL   H13013450   3.284   2.028   6.520 -0.8204 -0.5264 -0.3859
   61MOL   H13113451   3.608   2.097   6.458 -0.0329  0.1085  0.1167
   61MOL   H13213452   3.606   1.946   6.560 -3.0060 -1.1616  2.3136
   61MOL   H13313453   3.489   2.063   6.583  2.3556  0.3199  1.6327
   61MOL   C13413454   3.213   1.866   6.410  0.4291  0.0796 -0.5846
   61MOL   C13513455   3.230   1.757   6.524  0.1092 -0.5980 -0.2036
   61MOL   C13613456   3.172   1.815   6.655 -0.1580  0.0199 -0.1306
   61MOL   O13713457   3.239   1.888   6.731 -0.2683 -0.4759 -0.3851
   61MOL   C13813458   3.018   1.799   6.685 -0.4179 -0.2361  0.4858
   61MOL   H13913459   3.249   1.820   6.317 -0.5373 -1.0272 -0.4226
   61MOL   H14013460   3.110   1.901   6.409 -0.0392 -1.2421  0.3509
   61MOL   H14113461   3.337   1.763   6.543 -0.1728  0.9173  0.9347
   61MOL   H14213462   3.008   1.691   6.697 -0.8616 -0.1393  0.9819
   61MOL   H14313463   2.970   1.846   6.599 -0.5704  1.7125  1.5951
   61MOL   H14413464   2.988   1.858   6.771 -0.3344  1.2229 -0.4599
   61MOL   C14513465   3.176   1.615   6.491  0.4038 -0.1750  1.2504
   61MOL   C14613466   3.244   1.513   6.577  0.2664  0.6639  0.3207
   61MOL   C14713467   3.157   1.390   6.603 -0.3426 -0.2551  0.2829
   61MOL   O14813468   3.128   1.307   6.517  0.3776  0.0795  0.0202
   61MOL   C14913469   3.118   1.373   6.753 -0.5085 -1.0385 -0.1933
   61MOL   H15013470   3.182   1.591   6.385 -2.7332  1.5367  0.6021
   61MOL   H15113471   3.067   1.615   6.496  0.3290 -0.4350 -0.0858
   61MOL   H15213472   3.267   1.544   6.679 -0.6108 -0.7423  0.9649
   61MOL   H15313473   3.104   1.469   6.803 -0.6576 -0.3461 -1.5581
   61MOL   H15413474   3.022   1.321   6.761 -0.8977 -0.3556 -0.4349
   61MOL   H15513475   3.196   1.318   6.805 -1.2616  1.2493  3.5191
   61MOL   C15613476   3.375   1.466   6.507 -0.1545  0.3573 -0.0763
   61MOL   C15713477   3.469   1.375   6.596 -0.4291 -0.3219  0.4733
   61MOL   C15813478   3.531   1.448   6.709 -0.2080 -0.1294  0.0566
   61MOL   O15913479   3.578   1.563   6.706 -0.6784 -0.2466  0.5223
   61MOL   C16013480   3.534   1.372   6.845 -0.1503  0.2133  0.2299
   61MOL   H16113481   3.350   1.414   6.414  1.5924 -0.5272 -0.0823
   61MOL   H16213482   3.437   1.551   6.479  0.2075  0.2754  0.4721
   61MOL   H16313483   3.414   1.301   6.654 -1.5357  1.4454  1.7351
   61MOL   H16413484   3.436   1.384   6.893  0.1791  0.4258  0.8475
   61MOL   H16513485   3.602   1.431   6.906 -0.3994  1.8877 -1.0730
   61MOL   H16613486   3.572   1.270   6.844  1.9174  0.9713  0.2021
   61MOL   C16713487   3.569   1.298   6.503 -0.7677 -0.9252 -0.9212
   61MOL   C16813488   3.664   1.397   6.435 -0.6942 -0.1321  0.7656
   61MOL   C16913489   3.624   1.427   6.289 -0.3158 -0.1585  0.6882
   61MOL   O17013490   3.562   1.345   6.221 -0.1519  0.3873  0.2233
   61MOL   C17113491   3.679   1.556   6.228  0.2057  0.0113 -0.6304
   61MOL   H17213492   3.616   1.233   6.576 -0.2918 -0.2239 -0.5974
   61MOL   H17313493   3.508   1.239   6.435 -2.2088 -0.3992 -0.0917
   61MOL   H17413494   3.666   1.497   6.479  1.0478  0.0378  0.3367
   61MOL   H17513495   3.783   1.580   6.250  0.0163 -0.0068  0.3220
   61MOL   H17613496   3.611   1.634   6.263 -0.1076 -1.3205  1.8877
   61MOL   H17713497   3.687   1.545   6.120  0.2317  0.1250 -0.6403
   61MOL   C17813498   3.816   1.353   6.432 -0.2193 -0.5140 -0.4777
   61MOL   C17913499   3.910   1.417   6.541 -0.1445 -0.1191 -0.7293
   61MOL   C18013500   3.935   1.568   6.505  0.1645  0.1991 -0.1020
   61MOL   O18113501   3.999   1.602   6.406 -0.3105  0.2800 -0.4424
   61MOL   C18213502   3.882   1.671   6.600  0.1052 -0.3380  0.5650
   61MOL   H18313503   3.816   1.247   6.456  0.0055  0.1371  2.7001
   61MOL   H18413504   3.854   1.367   6.331  0.6546  1.1426  0.0640
   61MOL   H18513505   3.862   1.409   6.638 -1.0259 -0.0965 -1.1595
   61MOL   H18613506   3.867   1.638   6.703  0.8190 -2.7100 -0.0721
   61MOL   H18713507   3.799   1.718   6.548  1.2995  0.9324 -0.2344
   61MOL   H18813508   3.964   1.740   6.620  0.5540 -0.5176 -0.6116
   61MOL   C18913509   4.045   1.345   6.545 -0.1641 -0.5491 -0.0886
   61MOL   C19013510   4.154   1.380   6.651  0.4720 -0.4402 -0.0325
   61MOL   C19113511   4.107   1.385   6.800 -0.3571  0.7311  0.5636
   61MOL   O19213512   4.016   1.312   6.839 -0.1877 -0.1009  0.2022
   61MOL   C19313513   4.173   1.472   6.893  0.3225 -0.2887 -0.0902
   61MOL   H19413514   4.017   1.243   6.572  0.2667 -1.4130 -2.7428
   61MOL   H19513515   4.091   1.343   6.446  2.0252  2.8537  0.7733
   61MOL   H19613516   4.198   1.474   6.617 -1.6168  0.2459 -0.9014
   61MOL   H19713517   4.247   1.538   6.848  0.9460 -0.8203  0.1423
   61MOL   H19813518   4.107   1.535   6.952  1.2522 -1.5160  2.3302
   61MOL   H19913519   4.221   1.399   6.958 -1.3879 -1.3420  0.0213
   61MOL   C20013520   4.279   1.292   6.631  0.0835  0.4570  0.4442
   61MOL   C20113521   4.409   1.367   6.654 -0.3143  0.2924  0.6716
   61MOL   C20213522   4.444   1.488   6.564 -0.7450  0.0136  0.1604
   61MOL   O20313523   4.438   1.599   6.609  0.3791  0.3766 -0.1061
   61MOL   C20413524   4.499   1.462   6.424  0.1916 -0.5093 -0.4212
   61MOL   H20513525   4.282   1.210   6.703  1.7496  0.1867  0.0676
   61MOL   H20613526   4.276   1.256   6.529  0.9430  1.7356 -0.0410
   61MOL   H20713527   4.391   1.423   6.746 -0.0947 -0.1086  0.9639
   61MOL   H20813528   4.603   1.489   6.401  1.0850 -2.2244  1.4654
   61MOL   H20913529   4.481   1.361   6.388 -1.0644 -0.6029  0.4288
   61MOL   H21013530   4.444   1.520   6.351  1.0899  0.8934 -0.0200
   61MOL   C21113531   4.527   1.272   6.675 -0.0702  0.2508 -0.1826
   61MOL   C21213532   4.542   1.201   6.810  0.1653  0.5070 -0.1344
   61MOL   C21313533   4.588   1.296   6.926  0.0013  0.4233  0.0052
   61MOL   O21413534   4.622   1.412   6.900 -0.6516 -0.1098 -0.1526
   61MOL   C21513535   4.586   1.237   7.063  0.1558  0.2071 -0.0313
   61MOL   H21613536   4.518   1.193   6.600 -2.9981  1.6141 -1.3236
   61MOL   H21713537   4.622   1.321   6.655  0.5191 -1.1022 -0.8258
   61MOL   H21813538   4.613   1.119   6.800 -1.0289 -0.5749  0.2163
   61MOL   H21913539   4.562   1.303   7.147  0.8206 -0.0747  0.3798
   61MOL   H22013540   4.509   1.160   7.067  0.7002 -0.5405 -2.9460
   61MOL   H22113541   4.682   1.193   7.087  0.1700 -0.4886 -1.3605
   61MOL   H22213542   4.446   1.161   6.840 -0.1340 -0.4939 -2.3013
   62MOL     C113543   2.543   4.516   0.110 -0.5764 -0.6266  0.5181
   62MOL     C213544   2.472   4.505   0.249 -1.1264  0.2939  0.0475
   62MOL     C313545   2.460   4.653   0.298  0.0891  0.5415 -0.3718
   62MOL     O413546   2.551   4.704   0.361 -0.3058 -0.1692  0.2692
   62MOL     C513547   2.344   4.740   0.247 -0.0276  0.9879 -0.7420
   62MOL     H613548   2.474   4.565   0.042  1.3469  1.9859  0.3607
   62MOL     H713549   2.588   4.433   0.056  0.0907  0.6889 -0.9940
   62MOL     H813550   2.533   4.444   0.316 -2.9330  0.1885  1.6486
   62MOL     H913551   2.396   4.811   0.183  1.5111 -0.5976 -1.2938
   62MOL    H1013552   2.270   4.689   0.185 -0.7491  1.5564 -0.3620
   62MOL    H1113553   2.293   4.791   0.330  0.7367  0.0210  0.3387
   62MOL    H1213554   2.632   4.578   0.124 -0.1872 -1.4824  2.0035
   62MOL    C1313555   2.333   4.429   0.244 -0.0229 -0.2738  0.4229
   62MOL    C1413556   2.245   4.421   0.371  0.7861  0.5716  0.1455
   62MOL    C1513557   2.323   4.378   0.491 -0.0378 -0.0720  0.4501
   62MOL    O1613558   2.374   4.268   0.491 -0.8249 -0.6402 -1.2545
   62MOL    C1713559   2.336   4.471   0.612  0.3725  0.6516  0.6773
   62MOL    H1813560   2.275   4.467   0.161  2.1651 -0.3431 -1.1878
   62MOL    H1913561   2.360   4.327   0.218  1.9768  0.6018 -1.1029
   62MOL    H2013562   2.200   4.520   0.380  1.4829  0.7860  1.5086
   62MOL    H2113563   2.431   4.456   0.664  0.6995 -2.1953 -0.6197
   62MOL    H2213564   2.320   4.574   0.581 -0.5539  0.3767  0.2153
   62MOL    H2313565   2.250   4.451   0.675  1.8534 -1.6050  2.0731
   62MOL    C2413566   2.123   4.317   0.355 -0.2865 -0.0964 -0.0054
   62MOL    C2513567   2.006   4.327   0.455  0.0739  0.2257  0.0121
   62MOL    C2613568   2.030   4.248   0.577  0.2926 -0.1585 -0.1130
   62MOL    O2713569   2.026   4.304   0.691  0.3446  0.0455  0.1557
   62MOL    C2813570   2.057   4.096   0.563 -0.1863  0.1818 -0.0768
   62MOL    H2913571   2.084   4.336   0.255  2.7948 -3.9800 -2.0823
   62MOL    H3013572   2.163   4.217   0.343  3.4721  1.1361  1.6818
   62MOL    H3113573   1.930   4.270   0.402  1.1688 -0.5638 -0.7311
   62MOL    H3213574   2.153   4.063   0.603 -0.1182  0.0922 -0.3160
   62MOL    H3313575   1.989   4.041   0.628 -0.3431 -0.7491 -1.0170
   62MOL    H3413576   2.033   4.057   0.464 -1.7293 -1.5420  0.9420
   62MOL    C3513577   1.951   4.473   0.474  0.2968  0.6562  0.1739
   62MOL    C3613578   1.806   4.476   0.538  0.4333  0.7886  0.0485
   62MOL    C3713579   1.791   4.581   0.637 -0.1944 -0.3842 -0.4359
   62MOL    O3813580   1.711   4.676   0.630 -0.2958  0.1163 -0.2349
   62MOL    C3913581   1.875   4.582   0.765  0.5905 -0.2380  0.4086
   62MOL    H4013582   1.941   4.517   0.375 -0.0952 -0.6889 -0.4066
   62MOL    H4113583   2.026   4.528   0.530 -0.5309 -1.0801  3.1676
   62MOL    H4213584   1.794   4.380   0.588  1.3528  0.0777 -1.0728
   62MOL    H4313585   1.839   4.516   0.844  0.4345 -1.6697 -0.8395
   62MOL    H4413586   1.878   4.680   0.814 -2.1178 -0.1366  0.4371
   62MOL    H4513587   1.974   4.550   0.732  1.5970  0.3162  2.7583
   62MOL    C4613588   1.695   4.461   0.429 -0.2764 -0.2766 -0.0857
   62MOL    C4713589   1.553   4.411   0.473 -0.7627 -0.0754  0.9770
   62MOL    C4813590   1.568   4.267   0.528  0.0991  0.7960 -0.4156
   62MOL    O4913591   1.595   4.245   0.646  0.5584 -0.1079 -0.0340
   62MOL    C5013592   1.517   4.151   0.447  0.9847 -0.3988 -0.8418
   62MOL    H5113593   1.725   4.393   0.350  1.8318  1.4487 -0.8358
   62MOL    H5213594   1.680   4.557   0.379  0.0849 -0.1569  0.0324
   62MOL    H5313595   1.493   4.394   0.384  1.0213  1.0457 -0.4958
   62MOL    H5413596   1.600   4.081   0.438  0.4681 -0.9921 -0.9633
   62MOL    H5513597   1.444   4.101   0.511  0.8121  1.2591  0.2946
   62MOL    H5613598   1.488   4.174   0.345 -2.4015 -1.0371 -0.0682
   62MOL    C5713599   1.462   4.500   0.554 -0.2991  0.1682 -0.0099
   62MOL    C5813600   1.306   4.469   0.541  0.2595  0.3395  0.1405
   62MOL    C5913601   1.234   4.536   0.660 -0.0561  0.6826 -0.5171
   62MOL    O6013602   1.148   4.627   0.652 -0.1894 -0.7362  0.2806
   62MOL    C6113603   1.258   4.460   0.793 -0.7822  0.6357 -0.5023
   62MOL    H6213604   1.471   4.601   0.514  0.9332  0.2262  0.3710
   62MOL    H6313605   1.486   4.508   0.660 -0.7943  0.6285  0.0687
   62MOL    H6413606   1.295   4.361   0.544 -1.8661  0.5079 -0.5938
   62MOL    H6513607   1.312   4.369   0.768 -1.2565 -0.5274  2.5788
   62MOL    H6613608   1.329   4.520   0.851  0.6296  0.1192 -1.6512
   62MOL    H6713609   1.165   4.437   0.845 -0.2456  1.7935  1.0050
   62MOL    C6813610   1.242   4.509   0.404  0.5318 -0.0142  0.1841
   62MOL    C6913611   1.109   4.428   0.368  0.1658  0.1571  0.1283
   62MOL    C7013612   1.136   4.278   0.336  0.2431 -0.2476 -0.3626
   62MOL    O7113613   1.238   4.235   0.281 -0.0820  0.3249  0.1136
   62MOL    C7213614   1.029   4.179   0.375  0.4608 -0.2691 -0.2789
   62MOL    H7313615   1.215   4.615   0.395 -2.3209 -0.6334  0.9577
   62MOL    H7413616   1.309   4.496   0.319  1.6598  1.1861  0.8685
   62MOL    H7513617   1.035   4.439   0.447  0.0108 -0.5707  0.0913
   62MOL    H7613618   1.066   4.077   0.373  0.8765 -0.1070 -1.5873
   62MOL    H7713619   0.998   4.196   0.478  1.4718  0.5233 -0.0942
   62MOL    H7813620   0.947   4.182   0.304  0.5660 -2.1395 -0.4977
   62MOL    C7913621   1.041   4.495   0.244  0.3185 -0.6214 -0.0408
   62MOL    C8013622   0.959   4.617   0.278  1.0229  0.0823 -0.4839
   62MOL    C8113623   0.817   4.580   0.300 -0.6028  0.5119 -0.1922
   62MOL    O8213624   0.734   4.605   0.216 -0.1384 -0.1170 -0.3930
   62MOL    C8313625   0.788   4.505   0.425  0.5837  0.2349 -0.3521
   62MOL    H8413626   0.984   4.415   0.196  0.1156  0.1803 -1.1576
   62MOL    H8513627   1.127   4.516   0.180  1.2666 -2.2835  0.6460
   62MOL    H8613628   0.998   4.644   0.376  1.4395 -4.0116  0.5680
   62MOL    H8713629   0.685   4.531   0.448 -0.3245 -2.7870 -0.8149
   62MOL    H8813630   0.840   4.551   0.509  1.5706 -1.6541  0.0861
   62MOL    H8913631   0.797   4.397   0.417  1.3621  0.2337  0.4788
   62MOL    C9013632   0.984   4.731   0.177 -1.2424  0.1915  0.1588
   62MOL    C9113633   0.957   4.872   0.231 -0.0541  0.1755 -0.4630
   62MOL    C9213634   1.036   4.902   0.365  0.3332 -0.5432  0.0161
   62MOL    O9313635   1.157   4.909   0.365  0.2742  0.6788 -0.8846
   62MOL    C9413636   0.970   4.913   0.497  0.0030  0.1306 -0.0919
   62MOL    H9513637   1.088   4.725   0.145 -0.8324  1.5800  1.2130
   62MOL    H9613638   0.928   4.716   0.084 -0.8040 -0.7201  0.0298
   62MOL    H9713639   0.852   4.875   0.259  0.2716  0.5098  0.7662
   62MOL    H9813640   0.927   4.816   0.523  0.0756  0.1583  0.1335
   62MOL    H9913641   1.046   4.937   0.571 -1.1960 -0.7050  1.4370
   62MOL   H10013642   0.888   4.984   0.492 -0.0141  0.0292 -1.3346
   62MOL   C10113643   0.991   4.983   0.129 -0.5417  0.3517  0.3240
   62MOL   C10213644   0.960   5.132   0.151 -0.5394  0.9100 -0.1501
   62MOL   C10313645   0.822   5.161   0.203 -0.7355 -0.2967  0.0953
   62MOL   O10413646   0.797   5.169   0.326  0.3253 -0.0637  0.5025
   62MOL   C10513647   0.706   5.172   0.102  0.0656  0.0112  0.0427
   62MOL   H10613648   1.095   4.980   0.097 -0.7592 -1.5280 -0.2707
   62MOL   H10713649   0.939   4.950   0.039  0.8185 -0.9154 -0.0017
   62MOL   H10813650   1.029   5.172   0.225 -2.6305 -0.0049  2.3940
   62MOL   H10913651   0.604   5.187   0.140  0.2677  2.9142 -0.4641
   62MOL   H11013652   0.728   5.266   0.053 -1.2968  0.7546  0.8186
   62MOL   H11113653   0.705   5.094   0.026 -2.0325  1.3159 -1.3449
   62MOL   C11213654   0.991   5.218   0.024 -0.1541 -0.2953  0.0767
   62MOL   C11313655   1.146   5.228   7.853 -0.5048 -0.2572  0.4159
   62MOL   C11413656   1.219   5.335   0.083  0.0517  0.2971 -0.2755
   62MOL   O11513657   1.286   5.297   0.183 -0.1250  0.2785  0.0976
   62MOL   C11613658   1.202   5.483   0.055 -0.5999 -0.4588  0.4014
   62MOL   H11713659   0.952   5.319   0.026 -1.1368 -0.6838  0.5389
   62MOL   H11813660   0.950   5.170   7.792  1.4881 -1.3682 -0.1275
   62MOL   H11913661   1.186   5.129   0.017 -1.6636 -1.3511 -2.1869
   62MOL   H12013662   1.251   5.516   7.821  0.1217  2.7351  1.8609
   62MOL   H12113663   1.109   5.530   0.087 -1.2993 -0.4593 -1.5830
   62MOL   H12213664   1.276   5.537   0.115  0.0864 -0.2070 -0.6700
   62MOL   C12313665   1.167   5.254   7.701 -0.0366 -0.3328  0.1462
   62MOL   C12413666   1.282   5.178   7.635 -0.0399 -0.1809 -0.2712
   62MOL   C12513667   1.263   5.031   7.665 -0.6027  0.5169 -0.3547
   62MOL   O12613668   1.346   4.973   7.734 -0.3446  0.5100  0.0723
   62MOL   C12713669   1.147   4.943   7.624  0.2661  0.4767  0.0169
   62MOL   H12813670   1.185   5.360   7.683 -1.1025 -0.0997  0.4437
   62MOL   H12913671   1.076   5.227   7.649 -0.1028  1.0351 -0.4855
   62MOL   H13013672   1.266   5.192   7.528 -1.2477 -1.0006 -0.2021
   62MOL   H13113673   1.056   5.003   7.630  0.9488  1.3253  2.2765
   62MOL   H13213674   1.148   4.851   7.682  0.7169 -0.1850 -1.0163
   62MOL   H13313675   1.152   4.921   7.517  0.2648  1.7502 -0.2518
   62MOL   C13413676   1.415   5.245   7.670 -0.5816 -0.1259 -0.1742
   62MOL   C13513677   1.540   5.193   7.600 -0.5931  0.1776  0.8171
   62MOL   C13613678   1.511   5.182   7.450  0.1583  0.8508  0.5143
   62MOL   O13713679   1.458   5.269   7.385 -0.0983  0.0286  0.7020
   62MOL   C13813680   1.541   5.046   7.393  0.4024 -0.0369  1.2299
   62MOL   H13913681   1.427   5.236   7.778  2.7626  0.5335 -0.4220
   62MOL   H14013682   1.398   5.351   7.650  1.7162  0.6746  1.8280
   62MOL   H14113683   1.549   5.095   7.647  1.6137  0.7414  1.6193
   62MOL   H14213684   1.638   5.033   7.344  0.4366  1.1630  0.9512
   62MOL   H14313685   1.478   5.026   7.307  0.7139  0.9853  0.7424
   62MOL   H14413686   1.552   4.961   7.459 -0.2640 -0.5717  0.6532
   62MOL   C14513687   1.671   5.266   7.631 -0.2523  0.0453  0.1334
   62MOL   C14613688   1.802   5.197   7.586  0.3898 -0.0808  0.8030
   62MOL   C14713689   1.918   5.299   7.594  0.5405 -0.8217 -0.0010
   62MOL   O14813690   1.968   5.343   7.698 -0.1865 -0.3153 -0.1961
   62MOL   C14913691   1.982   5.343   7.464 -0.0712  0.3916  0.2730
   62MOL   H15013692   1.662   5.274   7.739 -2.2324 -1.8611  0.1452
   62MOL   H15113693   1.664   5.360   7.577  0.1003 -0.4468 -0.7832
   62MOL   H15213694   1.795   5.164   7.483  1.2565 -0.7156  0.9375
   62MOL   H15313695   2.089   5.329   7.476 -0.2117  0.6834  1.9394
   62MOL   H15413696   1.956   5.265   7.392  2.5268 -0.4270  0.1629
   62MOL   H15513697   1.956   5.446   7.440  0.6252  0.8483  1.4297
   62MOL   C15613698   1.839   5.083   7.686 -0.5322  0.1432  0.7253
   62MOL   C15713699   1.958   4.999   7.634  0.1197  1.0077  0.5608
   62MOL   C15813700   1.931   4.896   7.522  0.2584  0.3602  0.2367
   62MOL   O15913701   1.816   4.855   7.492 -0.5215  0.2890  0.3266
   62MOL   C16013702   2.057   4.849   7.443 -0.2710 -0.2268  0.9406
   62MOL   H16113703   1.871   5.127   7.780  0.8006 -0.6013  0.6309
   62MOL   H16213704   1.753   5.017   7.699 -0.0611 -1.0329 -1.8180
   62MOL   H16313705   2.024   5.069   7.583  1.2690  1.5072  2.6983
   62MOL   H16413706   2.139   4.817   7.507 -0.3425  1.5209  1.9569
   62MOL   H16513707   2.097   4.925   7.375 -2.2792 -0.2539 -0.3166
   62MOL   H16613708   2.051   4.755   7.388  0.0622  0.8236 -0.9586
   62MOL   C16713709   2.044   4.946   7.759 -0.0887  0.2961  0.7896
   62MOL   C16813710   1.962   4.865   0.006 -0.3402  0.0679  0.8812
   62MOL   C16913711   2.017   4.872   0.149 -0.4664  0.5584  0.4815
   62MOL   O17013712   2.038   4.776   0.220  0.1587 -0.1916 -0.4901
   62MOL   C17113713   2.036   5.006   0.216 -0.2119 -0.1522  1.0008
   62MOL   H17213714   2.139   4.909   7.723  0.4680  0.6552  1.8693
   62MOL   H17313715   2.073   5.038   7.811  0.3270  1.2938 -1.1369
   62MOL   H17413716   1.860   4.899   0.022 -1.0588 -0.5767 -1.9803
   62MOL   H17513717   1.970   5.072   0.161  1.6440  0.9938  0.1171
   62MOL   H17613718   2.140   5.032   0.201 -0.8889  0.9273 -2.2102
   62MOL   H17713719   2.011   4.989   0.321  2.2812  0.6252  1.7480
   62MOL   C17813720   1.952   4.720   7.818 -0.1376 -0.3694  0.2335
   62MOL   C17913721   1.829   4.640   0.015  0.0593 -0.1136  0.0497
   62MOL   C18013722   1.860   4.488   0.017  0.2804 -0.3942  0.4498
   62MOL   O18113723   1.870   4.422   0.120 -0.7054 -0.4657  0.3209
   62MOL   C18213724   1.885   4.418   7.740 -0.5480 -0.0620  0.0503
   62MOL   H18313725   1.968   4.725   7.711  0.3241 -0.7587  0.2856
   62MOL   H18413726   2.042   4.666   7.846 -0.4305 -1.5683 -1.1121
   62MOL   H18513727   1.806   4.674   0.116  0.4608  0.7196 -0.1354
   62MOL   H18613728   1.820   4.330   7.741 -0.6535  0.0242  2.1872
   62MOL   H18713729   1.990   4.399   7.721 -0.3798  1.5029 -0.7160
   62MOL   H18813730   1.854   4.478   7.654  0.3049  0.9713  0.4627
   62MOL   C18913731   1.699   4.660   7.789  0.3829 -1.0595  0.0240
   62MOL   C19013732   1.573   4.569   7.809 -0.0776  0.2998 -0.0735
   62MOL   C19113733   1.500   4.593   0.086  1.0530 -0.2828  0.5958
   62MOL   O19213734   1.534   4.526   0.179 -0.2018 -0.0273  0.4621
   62MOL   C19313735   1.405   4.710   0.101  0.0546  0.9223  0.8202
   62MOL   H19413736   1.680   4.766   7.807  0.1301 -0.5596 -2.9328
   62MOL   H19513737   1.725   4.650   7.684 -1.3941 -2.2808 -0.3214
   62MOL   H19613738   1.613   4.468   7.813  0.1110  0.2457 -2.5840
   62MOL   H19713739   1.472   4.794   0.080  1.2829 -0.2937 -0.2903
   62MOL   H19813740   1.328   4.697   0.026 -2.3027 -0.8501  3.4662
   62MOL   H19913741   1.365   4.718   0.201 -0.3599  0.4255  0.6952
   62MOL   C20013742   1.478   4.583   7.689  0.2478  0.6979 -0.3850
   62MOL   C20113743   1.354   4.507   7.672 -0.2966  0.5610 -0.7470
   62MOL   C20213744   1.382   4.351   7.690  0.8358  0.0408 -0.0094
   62MOL   O20313745   1.478   4.304   7.622  0.0838  0.4255 -0.4472
   62MOL   C20413746   1.279   4.275   7.776  0.6887  0.0463  0.0526
   62MOL   H20513747   1.461   4.690   7.686  1.1203  0.8651  0.3173
   62MOL   H20613748   1.537   4.570   7.597  1.7678  0.8493  0.5456
   62MOL   H20713749   1.279   4.532   7.747 -1.7320 -0.6072 -1.7565
   62MOL   H20813750   1.329   4.219   7.855 -0.5643 -1.2019 -0.0126
   62MOL   H20913751   1.197   4.332   7.820  1.0528  0.3825  0.2896
   62MOL   H21013752   1.235   4.196   7.715 -1.2439  0.9128  0.2941
   62MOL   C21113753   1.297   4.546   7.537 -0.0919  0.6408  0.9878
   62MOL   C21213754   1.156   4.482   7.492  0.5326 -0.3162 -0.3210
   62MOL   C21313755   1.042   4.543   7.573  0.1065 -0.1554  0.5050
   62MOL   O21413756   1.018   4.506   7.687 -0.0160  0.2777  0.1865
   62MOL   C21513757   0.942   4.633   7.494  0.7074 -0.0376 -0.0902
   62MOL   H21613758   1.291   4.655   7.534  0.3352  0.7092  2.2319
   62MOL   H21713759   1.368   4.514   7.462 -1.2076  0.1337  0.1291
   62MOL   H21813760   1.149   4.373   7.487  1.5389 -0.4030  0.0944
   62MOL   H21913761   0.987   4.732   7.484  1.4405 -0.1317  2.0173
   62MOL   H22013762   0.915   4.588   7.399 -1.5526  0.0290  0.5012
   62MOL   H22113763   0.853   4.660   7.550 -1.0695  1.6957 -3.5693
   62MOL   H22213764   1.133   4.514   7.390  0.1704 -4.4392 -1.6162
   63MOL     C113765   3.045   0.585   6.635 -0.4518 -0.2488  0.2274
   63MOL     C213766   3.184   0.607   6.704  0.4336 -0.6051 -0.3782
   63MOL     C313767   3.267   0.479   6.733 -0.5093  0.0656  0.2421
   63MOL     O413768   3.260   0.375   6.667 -0.4305  0.5078  0.1650
   63MOL     C513769   3.352   0.483   6.853 -0.2912 -0.1662 -0.1677
   63MOL     H613770   3.000   0.499   6.684  0.0919 -0.0952  1.0157
   63MOL     H713771   3.056   0.551   6.532 -1.3034 -1.5681  0.5596
   63MOL     H813772   3.159   0.645   6.803  0.0397  1.7514 -1.3543
   63MOL     H913773   3.435   0.553   6.839 -2.8050  3.1427  0.7674
   63MOL    H1013774   3.291   0.524   6.934  0.4807  1.6725 -0.4781
   63MOL    H1113775   3.385   0.384   6.883  0.9737  0.5749  0.9694
   63MOL    H1213776   2.980   0.669   6.660  2.1310  1.8090  0.2258
   63MOL    C1313777   3.264   0.719   6.650 -0.2434  0.6263  0.3934
   63MOL    C1413778   3.253   0.855   6.726  0.1119 -0.8533  0.8574
   63MOL    C1513779   3.342   0.957   6.640 -0.0898 -0.3007  0.2986
   63MOL    O1613780   3.457   0.990   6.681  0.0759  0.0897  0.5838
   63MOL    C1713781   3.280   1.020   6.516 -0.1002 -0.7892  0.0732
   63MOL    H1813782   3.361   0.672   6.637  0.6476  2.5638 -0.1101
   63MOL    H1913783   3.239   0.731   6.544 -0.3486 -0.0637  0.3400
   63MOL    H2013784   3.147   0.880   6.721  0.4868  0.8332  1.1348
   63MOL    H2113785   3.187   1.073   6.535  1.2778  0.9939  2.1107
   63MOL    H2213786   3.346   1.101   6.483 -1.0273 -0.8539 -2.0620
   63MOL    H2313787   3.261   0.955   6.431 -0.8052  0.0622 -0.4327
   63MOL    C2413788   3.300   0.832   6.870 -0.8250 -0.6700 -0.3383
   63MOL    C2513789   3.309   0.951   6.973  0.2699 -0.5592 -0.1705
   63MOL    C2613790   3.170   1.018   6.970  0.0142 -0.3945 -0.4030
   63MOL    O2713791   3.153   1.117   6.900  0.0136 -0.3202  0.5171
   63MOL    C2813792   3.059   0.961   7.053 -0.0348  0.0489 -0.8881
   63MOL    H2913793   3.244   0.762   6.932 -0.1896 -0.1782  0.8106
   63MOL    H3013794   3.397   0.782   6.868  0.2197  1.2584  0.2834
   63MOL    H3113795   3.386   1.020   6.937  1.6229 -1.4410  1.0000
   63MOL    H3213796   2.981   1.036   7.065  1.6832  2.1871 -2.4721
   63MOL    H3313797   3.018   0.871   7.007 -0.1574  0.4337 -1.5439
   63MOL    H3413798   3.083   0.928   7.154  1.4031  0.2101 -1.1660
   63MOL    C3513799   3.363   0.908   7.108  0.2106 -0.0283  0.0788
   63MOL    C3613800   3.436   1.012   7.199 -0.3994  0.2430 -0.1783
   63MOL    C3713801   3.348   1.139   7.236 -0.1663 -0.1539  0.1845
   63MOL    O3813802   3.236   1.127   7.287 -0.7833  0.7622  0.1138
   63MOL    C3913803   3.403   1.274   7.203 -1.0287 -0.4925  0.7604
   63MOL    H4013804   3.446   0.841   7.084  0.3462  0.3016 -0.3820
   63MOL    H4113805   3.294   0.846   7.165  1.7555 -0.0502  1.9662
   63MOL    H4213806   3.528   1.050   7.157  1.2134  0.3681  3.2658
   63MOL    H4313807   3.339   1.315   7.125  2.2155  0.2450 -1.6179
   63MOL    H4413808   3.502   1.254   7.161  0.1853  1.1868  2.7465
   63MOL    H4513809   3.392   1.343   7.287  1.4621  0.9936 -0.0755
   63MOL    C4613810   3.476   0.945   7.331  0.2431 -0.4491  0.5525
   63MOL    C4713811   3.542   1.036   7.435 -0.6636  0.2950 -0.0800
   63MOL    C4813812   3.522   0.973   7.574  0.3736  0.8986 -0.0550
   63MOL    O4913813   3.589   0.873   7.602 -0.1484 -0.0283  0.0587
   63MOL    C5013814   3.427   1.051   7.666  0.4699  0.1260  0.2511
   63MOL    H5113815   3.549   0.868   7.306 -0.2569 -1.1735  1.2996
   63MOL    H5213816   3.385   0.906   7.376 -0.3999  0.0726 -0.2618
   63MOL    H5313817   3.487   1.130   7.432  1.0598  1.3922  1.5947
   63MOL    H5413818   3.361   1.119   7.613  0.2907  1.7656  2.5297
   63MOL    H5513819   3.374   0.977   7.725  1.2634 -0.6692 -0.0112
   63MOL    H5613820   3.485   1.112   7.736  1.8448  0.6755 -1.3149
   63MOL    C5713821   3.699   1.066   7.399  0.8169 -0.3731  0.6450
   63MOL    C5813822   3.761   1.187   7.470  0.5797  0.0591  0.4009
   63MOL    C5913823   3.903   1.159   7.533  0.3377 -0.2188  0.4738
   63MOL    O6013824   4.010   1.190   7.480 -0.2287 -0.2144  0.4254
   63MOL    C6113825   3.896   1.089   7.663  0.5952  1.0240  0.0317
   63MOL    H6213826   3.709   1.063   7.291 -0.1399  1.1615  0.5068
   63MOL    H6313827   3.758   0.977   7.424  0.6578 -1.1587 -1.6285
   63MOL    H6413828   3.697   1.211   7.555 -0.5882  0.8261 -0.6803
   63MOL    H6513829   3.970   1.010   7.664 -2.0324 -1.5928 -2.5010
   63MOL    H6613830   3.927   1.153   7.746  2.0806  0.0033  0.2685
   63MOL    H6713831   3.796   1.051   7.685  1.1011  0.5555  1.5711
   63MOL    C6813832   3.767   1.309   7.371 -0.0650  0.5397  0.4344
   63MOL    C6913833   3.783   1.447   7.427 -0.0370 -0.6162  0.4753
   63MOL    C7013834   3.678   1.489   7.521  0.3645 -0.3684  0.1987
   63MOL    O7113835   3.562   1.457   7.507  0.3950  0.2383  0.6516
   63MOL    C7213836   3.723   1.584   7.634 -0.1424 -0.1890 -0.5498
   63MOL    H7313837   3.837   1.285   7.290  1.1766 -0.1465  1.6804
   63MOL    H7413838   3.669   1.304   7.324 -0.0118  1.2096  0.2556
   63MOL    H7513839   3.870   1.448   7.493 -0.2552  0.5452  0.7739
   63MOL    H7613840   3.814   1.544   7.680 -2.0122 -2.4787  1.3165
   63MOL    H7713841   3.733   1.688   7.605  1.7751 -0.4971 -1.0486
   63MOL    H7813842   3.648   1.572   7.712  0.9869  0.4089  0.6418
   63MOL    C7913843   3.790   1.550   7.315 -0.2863  0.1896  0.8815
   63MOL    C8013844   3.914   1.650   7.326 -0.0537 -0.2070  0.2511
   63MOL    C8113845   3.906   1.774   7.243  0.0381 -0.3150  0.5605
   63MOL    O8213846   3.960   1.776   7.133 -0.7370  0.2828 -0.3359
   63MOL    C8313847   3.822   1.890   7.295 -0.1252  1.2753  0.1375
   63MOL    H8413848   3.700   1.610   7.298 -0.0573  0.3411  0.1638
   63MOL    H8513849   3.814   1.503   7.219 -2.7907  2.1113 -0.7573
   63MOL    H8613850   3.897   1.696   7.423  0.9341  2.9420 -0.9954
   63MOL    H8713851   3.721   1.881   7.256  1.3636 -3.2983 -3.0687
   63MOL    H8813852   3.847   1.994   7.273 -0.0418  1.1891 -0.1692
   63MOL    H8913853   3.813   1.871   7.402 -0.1352 -1.2814 -0.2952
   63MOL    C9013854   4.051   1.582   7.323  0.2836 -0.2377  0.0148
   63MOL    C9113855   4.175   1.666   7.363 -0.3491  0.1352  0.1894
   63MOL    C9213856   4.162   1.742   7.498 -0.4359  0.2309 -0.1784
   63MOL    O9313857   4.101   1.696   7.600 -0.3340 -0.4811 -0.4641
   63MOL    C9413858   4.213   1.884   7.503  0.6386  0.1344 -0.2060
   63MOL    H9513859   4.049   1.498   7.393  0.8110  0.4281  0.8309
   63MOL    H9613860   4.048   1.540   7.223  0.3071 -0.4486  0.1019
   63MOL    H9713861   4.182   1.737   7.281 -0.3081 -1.3305 -1.0928
   63MOL    H9813862   4.285   1.907   7.425 -0.4869  1.0996 -0.9780
   63MOL    H9913863   4.126   1.947   7.486  0.1699 -0.1117  1.2210
   63MOL   H10013864   4.256   1.900   7.602  0.2015  4.3667 -0.5931
   63MOL   C10113865   4.299   1.582   7.349 -0.4856  0.3490 -0.2126
   63MOL   C10213866   4.425   1.667   7.331  1.1874 -0.4390 -0.3078
   63MOL   C10313867   4.425   1.727   7.194 -0.6297 -0.1905 -0.4179
   63MOL   O10413868   4.405   1.844   7.170  0.1743  1.0386 -0.0399
   63MOL   C10513869   4.453   1.629   7.079  0.2182  0.6283 -0.0783
   63MOL   H10613870   4.304   1.528   7.444 -0.7628 -0.2245 -0.5208
   63MOL   H10713871   4.291   1.494   7.286 -2.0687 -1.8218  2.8959
   63MOL   H10813872   4.433   1.759   7.389  0.9339 -0.2206 -0.6156
   63MOL   H10913873   4.391   1.540   7.089 -0.6493  1.1515 -0.6429
   63MOL   H11013874   4.430   1.675   6.983 -0.0367  0.9325  0.1286
   63MOL   H11113875   4.554   1.589   7.081 -0.1839 -0.4147 -0.4858
   63MOL   C11213876   4.567   1.601   7.359 -0.0220  0.1796  0.0958
   63MOL   C11313877   4.597   1.581   7.511 -0.2360  0.1362 -0.2586
   63MOL   C11413878   4.599   1.710   7.591 -0.2655  0.3769 -0.0905
   63MOL   O11513879   4.500   1.747   7.652 -0.2110 -0.0298 -0.8866
   63MOL   C11613880   4.728   1.797   7.583 -0.4122 -0.2286 -0.2551
   63MOL   H11713881   4.648   1.644   7.300  0.7625 -1.0609  0.2480
   63MOL   H11813882   4.553   1.505   7.310  0.0019  0.4063 -0.3543
   63MOL   H11913883   4.519   1.514   7.547  2.0689 -2.5506 -0.0442
   63MOL   H12013884   4.698   1.887   7.636  0.5351 -0.1102  0.1057
   63MOL   H12113885   4.806   1.742   7.636  0.7203  1.1392 -0.4754
   63MOL   H12213886   4.772   1.824   7.487  0.6356  1.3755  0.6567
   63MOL   C12313887   4.731   1.503   7.518  0.3457 -0.0980  0.1293
   63MOL   C12413888   4.783   1.454   7.650 -0.2324  0.2631  0.6565
   63MOL   C12513889   4.929   1.410   7.653  0.1374 -0.7309 -0.6848
   63MOL   O12613890   5.004   1.458   7.736  0.9392 -0.4994  0.3077
   63MOL   C12713891   4.969   1.299   7.562 -0.5298 -0.4338  0.7789
   63MOL   H12813892   4.813   1.569   7.487 -0.9527  1.4550 -0.0690
   63MOL   H12913893   4.729   1.418   7.450  2.4906  0.9423 -1.3011
   63MOL   H13013894   4.783   1.538   7.720 -0.8047 -0.7977  1.9526
   63MOL   H13113895   4.874   1.261   7.525  0.4986 -2.3471  0.0512
   63MOL   H13213896   5.026   1.216   7.605 -1.6689 -1.9145 -0.5495
   63MOL   H13313897   5.024   1.345   7.480 -1.3335 -0.1165  0.4186
   63MOL   C13413898   4.686   1.343   7.706  0.6539 -0.1688 -0.6756
   63MOL   C13513899   4.699   1.322   0.001  0.2588  0.1080 -0.0596
   63MOL   C13613900   4.626   1.423   0.098  0.2674  0.3701  0.4376
   63MOL   O13713901   4.545   1.498   0.051  0.5792  0.4525 -0.0535
   63MOL   C13813902   4.673   1.425   0.242 -0.2203  0.1996 -0.1998
   63MOL   H13913903   4.684   1.252   7.646  0.6366 -0.0391 -0.8697
   63MOL   H14013904   4.583   1.374   7.694  1.0272  1.4197  0.1208
   63MOL   H14113905   4.802   1.336   0.032 -0.0139  2.3043 -0.0953
   63MOL   H14213906   4.636   1.513   0.296  1.8896  0.1873  1.2987
   63MOL   H14313907   4.779   1.447   0.236 -0.3216  0.4643 -1.1091
   63MOL   H14413908   4.641   1.341   0.304  1.9084 -1.0395 -0.7542
   63MOL   C14513909   4.645   1.182   0.037 -0.3551  0.4874  0.0477
   63MOL   C14613910   4.762   1.082   0.066 -0.0519  0.0362  0.0665
   63MOL   C14713911   4.836   1.120   0.188  0.1330  0.1999 -0.6263
   63MOL   O14813912   4.780   1.135   0.299 -0.2484 -0.7935 -0.2531
   63MOL   C14913913   4.985   1.143   0.181 -0.3208 -0.1171 -0.4804
   63MOL   H15013914   4.586   1.155   7.807  0.8554 -0.9114 -0.3453
   63MOL   H15113915   4.580   1.186   0.124  0.6936 -2.0016  0.9800
   63MOL   H15213916   4.830   1.077   7.839  3.4267 -0.7819  2.7979
   63MOL   H15313917   5.027   1.217   0.250  2.5977 -1.9616 -0.1752
   63MOL   H15413918   5.042   1.050   0.180 -0.1537 -0.0251  0.6061
   63MOL   H15513919   5.014   1.186   0.084  2.3901  0.6903  0.6438
   63MOL   C15613920   4.704   0.937   0.076  0.7801  0.4576 -0.6924
   63MOL   C15713921   4.802   0.828   0.034 -0.0782  0.0036  1.0528
   63MOL   C15813922   4.816   0.820   7.737  0.2599 -0.1980  0.0158
   63MOL   O15913923   4.730   0.844   7.649  0.3245  1.0071  0.5021
   63MOL   C16013924   4.949   0.754   7.692  0.3695 -0.0262  0.1253
   63MOL   H16113925   4.684   0.912   0.180 -1.6200 -3.2269 -1.9305
   63MOL   H16213926   4.607   0.932   0.027  1.2981  0.7260 -1.7524
   63MOL   H16313927   4.903   0.853   0.068  0.2550  1.9001 -1.1204
   63MOL   H16413928   5.026   0.757   7.769  0.1203  2.4067  0.3113
   63MOL   H16513929   4.991   0.794   7.601 -0.2709 -2.5748 -1.3556
   63MOL   H16613930   4.937   0.646   7.677  2.0405 -0.3325  0.8901
   63MOL   C16713931   4.775   0.696   0.095 -0.1847 -0.2321 -0.3419
   63MOL   C16813932   4.848   0.667   0.229 -0.0867  0.0247 -0.0280
   63MOL   C16913933   4.989   0.606   0.210 -0.2575  0.7329  0.1196
   63MOL   O17013934   5.000   0.496   0.158 -0.5336 -0.1478 -0.1860
   63MOL   C17113935   5.116   0.686   0.219  0.3321 -0.2659 -0.5282
   63MOL   H17213936   4.670   0.697   0.121  0.2191 -0.7321  1.4114
   63MOL   H17313937   4.787   0.624   0.014 -1.8499 -0.8653 -0.0372
   63MOL   H17413938   4.869   0.765   0.272  4.2828 -0.1857 -1.4184
   63MOL   H17513939   5.187   0.659   0.141 -0.8989 -0.6016 -1.5468
   63MOL   H17613940   5.175   0.664   0.308 -3.5941 -1.5145  1.8564
   63MOL   H17713941   5.097   0.793   0.225 -0.1822 -0.2936 -1.6704
   63MOL   C17813942   4.762   0.568   0.311 -0.1928 -0.3240 -0.7080
   63MOL   C17913943   4.654   0.641   0.384 -0.4539 -0.7369  0.3553
   63MOL   C18013944   4.675   0.623   0.534  0.3183  0.5741 -0.8387
   63MOL   O18113945   4.742   0.706   0.597  0.2112 -0.1088 -0.3376
   63MOL   C18213946   4.598   0.508   0.605  0.0457 -0.0034  0.8451
   63MOL   H18313947   4.716   0.489   0.251  1.3937 -2.2935  0.5908
   63MOL   H18413948   4.830   0.512   0.375 -0.4178 -1.1270 -1.1549
   63MOL   H18513949   4.671   0.748   0.370 -0.0655 -0.7533  0.6907
   63MOL   H18613950   4.604   0.415   0.548  0.9577 -0.5706  1.8422
   63MOL   H18713951   4.494   0.526   0.631 -0.5594 -2.8630  0.5930
   63MOL   H18813952   4.638   0.484   0.704  1.8399  1.8817  0.6094
   63MOL   C18913953   4.507   0.609   0.347  0.1288 -0.6028  0.3508
   63MOL   C19013954   4.408   0.716   0.389 -0.0675 -0.1641 -0.3128
   63MOL   C19113955   4.433   0.852   0.329 -0.0288 -0.5604  0.3885
   63MOL   O19213956   4.434   0.872   0.210 -1.1010  0.3212 -0.1664
   63MOL   C19313957   4.460   0.971   0.418  0.1733  0.2430  0.0021
   63MOL   H19413958   4.500   0.594   0.240  0.2148 -1.4116  0.4577
   63MOL   H19513959   4.475   0.512   0.386 -4.4184  0.1056 -1.3635
   63MOL   H19613960   4.439   0.730   0.493  1.9699 -1.4695 -0.7189
   63MOL   H19713961   4.560   0.970   0.461 -1.1788  0.0950  3.2559
   63MOL   H19813962   4.466   1.061   0.357 -0.8948 -0.6920 -1.5097
   63MOL   H19913963   4.397   0.995   0.503 -0.2271 -0.5864 -0.0584
   63MOL   C20013964   4.263   0.671   0.385  0.7017  0.2251 -0.2924
   63MOL   C20113965   4.165   0.772   0.459 -0.0105 -0.3190 -0.0779
   63MOL   C20213966   4.185   0.793   0.608 -0.0765 -0.9034  0.3244
   63MOL   O20313967   4.237   0.707   0.680  0.3418  0.1854 -0.2233
   63MOL   C20413968   4.132   0.925   0.659  0.5730  0.5689 -0.2402
   63MOL   H20513969   4.238   0.646   0.282 -1.9237  0.2564  0.3073
   63MOL   H20613970   4.268   0.577   0.440  0.2021  0.4270  0.0988
   63MOL   H20713971   4.168   0.872   0.416  0.8668 -1.0948 -1.8744
   63MOL   H20813972   4.126   1.003   0.582  1.2248  0.5552 -0.3076
   63MOL   H20913973   4.031   0.915   0.700  1.3048 -1.2317  1.1501
   63MOL   H21013974   4.191   0.968   0.739  2.2980  0.5110 -1.4566
   63MOL   C21113975   4.021   0.719   0.442  0.4734 -0.5547 -0.6113
   63MOL   C21213976   3.959   0.745   0.301  0.0137  0.3318 -0.0220
   63MOL   C21313977   3.956   0.892   0.246 -0.1701  0.1833 -1.0059
   63MOL   O21413978   3.939   0.991   0.320 -0.3621 -0.4261  0.1310
   63MOL   C21513979   4.009   0.911   0.109  0.0624  1.0062 -0.3010
   63MOL   H21613980   4.021   0.616   0.478  1.0860 -0.4281 -0.2403
   63MOL   H21713981   3.954   0.767   0.513  0.9302 -2.0143  0.8310
   63MOL   H21813982   3.854   0.716   0.308  0.4238 -0.7893  1.6419
   63MOL   H21913983   4.114   0.883   0.098 -0.8739 -3.6892  1.6207
   63MOL   H22013984   3.964   0.853   0.029 -1.4489  2.7123 -0.7268
   63MOL   H22113985   3.998   1.017   0.083 -1.2052  0.6116 -1.4268
   63MOL   H22213986   4.009   0.686   0.224  0.1556  1.0495 -0.4839
   64MOL     C113987   4.738   3.669   6.943  0.0663  0.2136  0.1898
   64MOL     C213988   4.885   3.628   6.910 -0.2122  0.2271 -0.3004
   64MOL     C313989   4.884   3.532   6.785  0.0235  0.2117 -0.1556
   64MOL     O413990   4.916   3.563   6.670 -0.0156 -0.6152  0.5317
   64MOL     C513991   4.833   3.385   6.801 -0.6011 -0.5205 -0.3127
   64MOL     H613992   4.744   3.762   7.000 -0.4357  1.6000 -1.9603
   64MOL     H713993   4.688   3.593   7.003  2.2938  2.5878  5.3617
   64MOL     H813994   4.937   3.564   6.981 -1.5180 -0.7206 -0.1760
   64MOL     H913995   4.745   3.361   6.741 -1.6032  0.5157  0.7001
   64MOL    H1013996   4.907   3.307   6.789  1.9240  1.8177 -0.3374
   64MOL    H1113997   4.797   3.361   6.901 -1.7258  0.6348 -0.4246
   64MOL    H1213998   4.680   3.703   6.857 -0.2246  2.9859  1.4130
   64MOL    C1313999   4.975   3.751   6.886 -0.0548  0.1312  0.2009
   64MOL    C1414000   5.127   3.708   6.879 -0.5020 -0.8771  0.0857
   64MOL    C1514001   5.184   3.698   7.026 -0.6123  0.0600  0.4569
   64MOL    O1614002   5.193   3.796   7.101  0.1311 -0.5037 -0.0320
   64MOL    C1714003   5.241   3.569   7.075 -0.3581 -0.1486  0.0472
   64MOL    H1814004   4.933   3.793   6.795  1.8013  0.7195 -0.4119
   64MOL    H1914005   4.964   3.824   6.966  0.9348  0.2850  0.2035
   64MOL    H2014006   5.146   3.611   6.833  0.6177  0.6678 -2.8100
   64MOL    H2114007   5.151   3.523   7.116 -2.5712  2.3810 -1.7378
   64MOL    H2214008   5.280   3.493   7.008  2.7287 -0.0895  1.6904
   64MOL    H2314009   5.323   3.596   7.142  0.6690 -1.2775 -0.7359
   64MOL    C2414010   5.207   3.803   6.790 -0.0071 -0.3358 -0.2271
   64MOL    C2514011   5.359   3.769   6.780  0.0258 -0.4658  0.0526
   64MOL    C2614012   5.390   3.623   6.732 -0.3134  0.2391  0.0545
   64MOL    O2714013   5.449   3.552   6.811 -0.8118 -0.2140 -0.3608
   64MOL    C2814014   5.361   3.573   6.595  0.1882 -0.4923 -0.1947
   64MOL    H2914015   5.156   3.811   6.693  0.7825 -0.7105 -0.6790
   64MOL    H3014016   5.203   3.899   6.841 -1.3379  0.0043 -0.9306
   64MOL    H3114017   5.403   3.780   6.879 -0.1307  4.4179 -0.3065
   64MOL    H3214018   5.259   3.535   6.590 -0.1446  0.4158 -0.4827
   64MOL    H3314019   5.364   3.657   6.525 -1.2714  0.3653  0.7427
   64MOL    H3414020   5.433   3.495   6.570  0.4715 -0.4347  0.4316
   64MOL    C3514021   5.430   3.868   6.685 -0.4416  0.0767  0.6591
   64MOL    C3614022   5.582   3.862   6.694  0.2891 -0.1028  0.3757
   64MOL    C3714023   5.648   3.929   6.567  0.0991 -0.5055 -1.1345
   64MOL    O3814024   5.681   4.047   6.563 -0.6433  0.4057 -0.1626
   64MOL    C3914025   5.651   3.852   6.439  0.0013  0.4095 -0.0920
   64MOL    H4014026   5.414   3.966   6.730  2.0065  0.9297 -0.2795
   64MOL    H4114027   5.391   3.853   6.585 -1.5033  0.7398  0.9709
   64MOL    H4214028   5.609   3.757   6.681 -0.0354 -0.4533  2.4571
   64MOL    H4314029   5.634   3.926   6.361  1.9256  0.2814 -0.6667
   64MOL    H4414030   5.564   3.786   6.436 -0.0349  0.4271  0.4523
   64MOL    H4514031   5.745   3.799   6.427  0.3626  1.1187 -0.4352
   64MOL    C4614032   5.638   3.931   6.826  0.1351  0.3213 -0.6423
   64MOL    C4714033   5.789   3.907   6.847 -0.6623 -0.2014 -0.6548
   64MOL    C4814034   5.859   4.017   6.926  0.3257  0.3436 -0.5199
   64MOL    O4914035   5.869   4.008   7.049  0.2140 -0.2213 -0.4464
   64MOL    C5014036   5.912   4.133   6.843 -0.0646 -0.1951 -0.0595
   64MOL    H5114037   5.582   3.894   6.912 -0.8391  1.5030 -0.7539
   64MOL    H5214038   5.615   4.038   6.828  0.9210  0.4694  0.6629
   64MOL    H5314039   5.846   3.916   6.754 -1.2582  2.5965 -0.7809
   64MOL    H5414040   6.021   4.139   6.838 -0.1008 -0.1483 -0.8822
   64MOL    H5514041   5.881   4.132   6.738  0.5172  0.8882 -0.2535
   64MOL    H5614042   5.876   4.222   6.895  2.6140 -0.8433  3.0840
   64MOL    C5714043   5.811   3.763   6.903 -0.0045  0.6408  0.8174
   64MOL    C5814044   5.947   3.694   6.887  0.6756 -0.4951  0.1178
   64MOL    C5914045   6.013   3.673   6.751  0.9122  0.3860  0.1191
   64MOL    O6014046   6.121   3.719   6.725 -0.3477  0.2022  0.0109
   64MOL    C6114047   5.938   3.582   6.655  0.3634 -0.4605 -0.0320
   64MOL    H6214048   5.752   3.694   6.844 -0.0648  0.0338  1.5805
   64MOL    H6314049   5.762   3.758   7.000 -2.1935  1.0059 -0.2341
   64MOL    H6414050   5.937   3.589   6.912  1.7674 -0.3063  1.4022
   64MOL    H6514051   5.833   3.561   6.677  0.5857 -1.0485  0.5094
   64MOL    H6614052   5.967   3.586   6.550 -0.6301 -0.2162 -0.3024
   64MOL    H6714053   5.985   3.488   6.684 -1.7651 -1.4579  0.2610
   64MOL    C6814054   6.051   3.763   6.983  0.1891  0.5348 -0.0621
   64MOL    C6914055   6.166   3.666   7.034 -0.2433  0.2452  0.5379
   64MOL    C7014056   6.107   3.564   7.138  0.2292  0.6832 -0.2610
   64MOL    O7114057   6.100   3.586   7.263  0.0189 -0.2560 -0.5777
   64MOL    C7214058   6.061   3.419   7.087 -0.1871  0.0461 -1.4976
   64MOL    H7314059   6.098   3.847   6.933 -0.0070  0.2103 -0.8049
   64MOL    H7414060   6.004   3.789   7.078  1.2320 -3.1456  1.5565
   64MOL    H7514061   6.209   3.617   6.947  2.7614 -0.6983  2.4664
   64MOL    H7614062   6.119   3.400   6.996 -0.3006  1.6520 -1.9255
   64MOL    H7714063   6.109   3.349   7.155 -0.2538  0.3488 -1.1391
   64MOL    H7814064   5.953   3.402   7.085 -0.0451 -0.9087 -1.3881
   64MOL    C7914065   6.283   3.743   7.097 -0.5364 -0.6034 -0.2884
   64MOL    C8014066   6.421   3.663   7.108  0.3719 -0.0944 -0.0333
   64MOL    C8114067   6.459   3.591   6.974 -0.3076 -0.9480  0.4482
   64MOL    O8214068   6.461   3.467   6.963  0.1544  0.2727 -0.2095
   64MOL    C8314069   6.485   3.677   6.852 -0.3741 -0.0876  0.0179
   64MOL    H8414070   6.274   3.789   7.195  0.6762 -1.8093  0.4143
   64MOL    H8514071   6.295   3.825   7.026 -1.3308  0.2457  0.5462
   64MOL    H8614072   6.503   3.732   7.129 -0.1708  0.1162  1.5123
   64MOL    H8714073   6.453   3.625   6.762 -0.8198 -0.4497  0.3868
   64MOL    H8814074   6.594   3.680   6.847 -0.2992 -3.0781 -1.0709
   64MOL    H8914075   6.429   3.771   6.855  0.6271  0.5133  0.0773
   64MOL    C9014076   6.435   3.557   7.223  0.2440  0.1656  0.0362
   64MOL    C9114077   6.431   3.621   7.366 -0.3563  0.0730 -0.2418
   64MOL    C9214078   6.413   3.517   7.483 -0.2404  0.3821 -0.0068
   64MOL    O9314079   6.505   3.479   7.547 -0.5075  0.2415 -0.1435
   64MOL    C9414080   6.275   3.464   7.518  0.2100 -0.4379 -0.0418
   64MOL    H9514081   6.368   3.473   7.206  2.1657 -1.6551  1.2075
   64MOL    H9614082   6.536   3.517   7.218 -0.0666 -0.8989  1.9162
   64MOL    H9714083   6.341   3.684   7.370 -0.5156 -0.1547 -0.2517
   64MOL    H9814084   6.257   3.468   7.626  1.5804 -3.5163  0.3477
   64MOL    H9914085   6.198   3.524   7.469  0.2555  1.3203  1.9506
   64MOL   H10014086   6.256   3.362   7.486 -3.7982  0.1628  0.1606
   64MOL   C10114087   6.549   3.719   7.390  0.7006  0.7149  0.4745
   64MOL   C10214088   6.522   3.842   7.482 -0.1092  0.3085 -0.4197
   64MOL   C10314089   6.434   3.945   7.414  0.7439  0.2858  0.9842
   64MOL   O10414090   6.460   3.984   7.302  0.1689  0.0493  0.1257
   64MOL   C10514091   6.320   3.996   7.500 -0.2240  0.6784  0.3535
   64MOL   H10614092   6.637   3.662   7.421  0.7042 -0.4845 -1.6349
   64MOL   H10714093   6.581   3.764   7.297  1.9721  1.3453  1.2143
   64MOL   H10814094   6.479   3.817   7.579  1.8231 -0.7547  0.1852
   64MOL   H10914095   6.231   4.012   7.440  2.0453  0.4992 -3.2328
   64MOL   H11014096   6.304   3.913   7.568  2.2897  0.2529  0.4639
   64MOL   H11114097   6.352   4.084   7.556 -1.8143  0.1748  2.0806
   64MOL   C11214098   6.654   3.911   7.522  0.3632 -0.0297 -0.2176
   64MOL   C11314099   6.717   3.873   7.660 -0.1052 -0.1005  0.2425
   64MOL   C11414100   6.836   3.964   7.684  0.6608  0.5373 -0.4344
   64MOL   O11514101   6.931   3.964   7.605 -0.0483 -0.0104 -0.3669
   64MOL   C11614102   6.832   4.069   7.795  0.2866  0.2030  0.4660
   64MOL   H11714103   6.630   4.016   7.536  0.7101 -0.1250  1.1474
   64MOL   H11814104   6.722   3.904   7.437 -0.1764 -1.9602 -0.5181
   64MOL   H11914105   6.642   3.896   7.736 -0.3921 -0.3912  0.0499
   64MOL   H12014106   6.737   4.119   7.807  1.1859  1.9658  0.3844
   64MOL   H12114107   6.852   4.014   0.029 -2.2062 -1.3350  0.1164
   64MOL   H12214108   6.902   4.151   7.778 -1.6447  1.8969  0.5562
   64MOL   C12314109   6.750   3.724   7.683 -0.0567  0.0036  0.2857
   64MOL   C12414110   6.800   3.692   7.825  0.0301  0.3977 -0.4231
   64MOL   C12514111   6.871   3.559   7.823  0.1094 -0.0981  0.0401
   64MOL   O12614112   6.992   3.554   7.826  0.3197  0.4422 -0.5083
   64MOL   C12714113   6.793   3.432   7.795 -0.3340  0.4293 -0.4050
   64MOL   H12814114   6.812   3.688   7.601 -0.8727  0.5328 -0.5741
   64MOL   H12914115   6.659   3.665   7.669  0.4015  0.0111 -3.3228
   64MOL   H13014116   6.875   3.763   0.001 -0.0202  0.2990 -0.1036
   64MOL   H13114117   6.701   3.457   7.741 -0.1788  1.5431 -0.1657
   64MOL   H13214118   6.769   3.379   0.030 -0.8151  2.2102  0.5252
   64MOL   H13314119   6.834   3.358   7.726 -4.2720 -1.2355 -1.1173
   64MOL   C13414120   6.687   3.679   0.079 -0.3176 -0.1726 -0.8804
   64MOL   C13514121   6.730   3.647   0.228  0.3809 -0.5089 -0.0069
   64MOL   C13614122   6.733   3.787   0.302 -0.4966  0.2492  0.3619
   64MOL   O13714123   6.646   3.819   0.380  0.1847  0.1094 -0.6384
   64MOL   C13814124   6.853   3.873   0.275  0.6319  0.9751 -0.2635
   64MOL   H13914125   6.623   3.597   0.046 -0.4799 -0.4835  0.1885
   64MOL   H14014126   6.611   3.756   0.077 -1.1940 -0.7432  3.6407
   64MOL   H14114127   6.837   3.630   0.240  0.1841  0.3631  3.4371
   64MOL   H14214128   6.881   3.861   0.171  1.6028  0.9526 -0.0006
   64MOL   H14314129   6.928   3.837   0.345  0.2439 -0.0281 -0.3517
   64MOL   H14414130   6.825   3.977   0.294 -0.1104  1.3188 -2.9676
   64MOL   C14514131   6.655   3.541   0.296  0.3719 -0.6611 -0.1236
   64MOL   C14614132   6.713   3.500   0.437 -0.1662 -0.3392  0.1108
   64MOL   C14714133   6.620   3.390   0.499  0.0962 -0.6244 -0.5727
   64MOL   O14814134   6.653   3.271   0.510 -0.1292 -0.2324  0.4227
   64MOL   C14914135   6.477   3.447   0.542 -0.3646 -0.1639  0.1095
   64MOL   H15014136   6.662   3.456   0.229 -2.5639 -0.9330 -0.1562
   64MOL   H15114137   6.548   3.561   0.296  0.9887  2.9793 -0.2978
   64MOL   H15214138   6.702   3.589   0.499 -1.8404 -0.3959 -0.0990
   64MOL   H15314139   6.484   3.527   0.615  0.7925  0.1313 -0.3126
   64MOL   H15414140   6.427   3.482   0.451 -0.1995  0.8501  0.4087
   64MOL   H15514141   6.421   3.365   0.586  0.4192 -1.3968 -1.1461
   64MOL   C15614142   6.864   3.457   0.442  0.0526  0.6833  0.2046
   64MOL   C15714143   6.931   3.456   0.583 -0.2476 -0.5282  0.2377
   64MOL   C15814144   6.952   3.594   0.632  0.0768  0.2442 -0.3997
   64MOL   O15914145   7.005   3.686   0.565 -0.1683  0.3850 -0.0005
   64MOL   C16014146   6.924   3.617   0.779 -0.2054 -0.2188 -0.2089
   64MOL   H16114147   6.876   3.361   0.392  0.8635  1.6613 -1.5302
   64MOL   H16214148   6.928   3.525   0.385 -0.3689  0.8455 -0.0706
   64MOL   H16314149   6.861   3.413   0.655 -1.0583 -0.2753 -0.3908
   64MOL   H16414150   7.003   3.673   0.829  2.0245 -1.9269 -1.6964
   64MOL   H16514151   6.908   3.529   0.842  0.4716  0.9234  1.6041
   64MOL   H16614152   6.839   3.685   0.791  0.5598  0.4472  1.6545
   64MOL   C16714153   7.066   3.384   0.588  0.5713  0.0489  0.0957
   64MOL   C16814154   7.184   3.432   0.506  0.9859  0.2043  0.2213
   64MOL   C16914155   7.188   3.365   0.366 -0.2304 -0.2793  0.4438
   64MOL   O17014156   7.220   3.249   0.351  0.3823 -0.8712 -0.2361
   64MOL   C17114157   7.169   3.451   0.240  0.0138 -0.1522  0.1008
   64MOL   H17214158   7.098   3.398   0.691 -0.3788 -1.7453  0.6423
   64MOL   H17314159   7.070   3.277   0.568  1.3025  0.5420 -2.7022
   64MOL   H17414160   7.173   3.537   0.480 -1.0481  0.0695  0.4256
   64MOL   H17514161   7.147   3.384   0.158  0.6918  0.8659 -0.9275
   64MOL   H17614162   7.256   3.514   0.221 -0.2576 -0.0350 -0.7494
   64MOL   H17714163   7.090   3.525   0.248 -0.9808 -1.3028  1.1367
   64MOL   C17814164   7.314   3.390   0.572 -0.4324 -0.2326  0.1178
   64MOL   C17914165   7.445   3.426   0.501  0.1750 -0.3385  0.1976
   64MOL   C18014166   7.561   3.344   0.569 -0.8143  1.0394  0.2777
   64MOL   O18114167   7.648   3.397   0.641  0.5592  0.3395  0.0817
   64MOL   C18214168   7.576   3.209   0.509 -0.2680 -0.7020 -0.0153
   64MOL   H18314169   7.319   3.427   0.675  1.3188  3.2040 -1.1010
   64MOL   H18414170   7.300   3.282   0.573  1.4079 -0.4840  0.5583
   64MOL   H18514171   7.449   3.378   0.403 -1.5797 -2.6556  1.2039
   64MOL   H18614172   7.630   3.216   0.415  1.3015  0.3097  0.9457
   64MOL   H18714173   7.478   3.170   0.483 -0.4224 -2.2260  2.6731
   64MOL   H18814174   7.626   3.139   0.576  1.6569  1.5662  0.9986
   64MOL   C18914175   7.465   3.582   0.504 -0.1104 -0.4193  0.3634
   64MOL   C19014176   7.585   3.631   0.425  0.1343 -0.3833 -0.4954
   64MOL   C19114177   7.555   3.635   0.272  0.1316 -0.2606 -0.2099
   64MOL   O19214178   7.477   3.713   0.223  0.7012 -0.1123 -0.5227
   64MOL   C19314179   7.618   3.523   0.194  0.0334 -0.2068  0.8982
   64MOL   H19414180   7.369   3.622   0.470 -0.7279 -1.7923  0.4386
   64MOL   H19514181   7.466   3.606   0.610 -1.3492 -0.2124  0.3348
   64MOL   H19614182   7.660   3.551   0.426  1.1123  0.5057 -0.9108
   64MOL   H19714183   7.643   3.563   0.095 -0.7082 -0.4165  0.6169
   64MOL   H19814184   7.712   3.491   0.238  0.2679 -1.5471 -0.5346
   64MOL   H19914185   7.547   3.451   0.152  0.4198 -0.2685  0.3409
   64MOL   C20014186   7.630   3.769   0.484  0.0047 -0.6523  0.2923
   64MOL   C20114187   7.733   3.847   0.403 -0.1671 -0.7900  0.0397
   64MOL   C20214188   0.015   3.794   0.435  0.0107 -0.1921  0.2139
   64MOL   O20314189   0.095   3.848   0.510 -0.2615 -0.5661 -0.1071
   64MOL   C20414190   0.055   3.665   0.360  0.4724 -0.2131 -0.9557
   64MOL   H20514191   7.539   3.823   0.509  0.2261 -0.4058  0.5605
   64MOL   H20614192   7.675   3.753   0.582  1.9505  1.8729 -0.1412
   64MOL   H20714193   7.719   3.824   0.298 -0.2058 -0.3200 -0.0590
   64MOL   H20814194   0.020   3.572   0.404 -0.1099  0.1920 -0.5568
   64MOL   H20914195   0.014   3.670   0.259  3.1542 -1.5303 -2.1465
   64MOL   H21014196   0.164   3.666   0.363  0.4314  1.8931  2.6288
   64MOL   C21114197   7.710   4.000   0.412 -0.7354 -0.3332  0.1227
   64MOL   C21214198   7.808   4.095   0.339  0.1685  0.4635  0.0134
   64MOL   C21314199   7.780   4.090   0.193 -0.0245 -0.0975 -0.3022
   64MOL   O21414200   7.719   3.998   0.136  0.0927  0.1392 -0.1446
   64MOL   C21514201   7.845   4.205   0.115  0.3045  0.7602 -0.3093
   64MOL   H21614202   7.608   4.015   0.377 -1.1129  1.7311  2.0415
   64MOL   H21714203   7.714   4.028   0.518  1.7712 -0.3141  0.0617
   64MOL   H21814204   0.052   4.062   0.361 -0.4443 -0.3727  1.6723
   64MOL   H21914205   7.834   4.187   0.008 -2.3510 -1.3713  0.2700
   64MOL   H22014206   7.803   4.303   0.139  0.2821  0.5670  0.4431
   64MOL   H22114207   0.092   4.202   0.147 -0.0944  0.2717  0.9677
   64MOL   H22214208   7.816   4.199   0.373  0.8314  0.8794 -1.3825
   65MOL     C114209   1.319   4.933   5.642 -0.1296  0.7599  0.7357
   65MOL     C214210   1.357   4.998   5.506  0.0582 -0.1945  0.2757
   65MOL     C314211   1.309   5.146   5.502 -0.8636  0.0056  0.4151
   65MOL     O414212   1.382   5.241   5.521  0.6519 -0.1778  0.3836
   65MOL     C514213   1.163   5.168   5.478  0.5913  0.2366 -0.4620
   65MOL     H614214   1.386   4.964   5.723  2.2099 -0.8851 -0.5080
   65MOL     H714215   1.319   4.824   5.646  3.3015  0.7132  1.2663
   65MOL     H814216   1.293   4.950   5.433  3.4824 -1.1235 -2.2292
   65MOL     H914217   1.117   5.197   5.572  2.6951  0.6321  0.4767
   65MOL    H1014218   1.160   5.247   5.403 -0.6625  0.9200  0.3034
   65MOL    H1114219   1.127   5.075   5.433  0.1710  1.1138 -1.9665
   65MOL    H1214220   1.217   4.954   5.676 -0.0468 -0.1221  1.5667
   65MOL    C1314221   1.510   4.988   5.486  0.1867  0.3568 -0.2700
   65MOL    C1414222   1.543   4.963   5.339 -0.0734  0.1438  0.3579
   65MOL    C1514223   1.545   4.814   5.306  0.1943 -0.2922  0.3038
   65MOL    O1614224   1.651   4.747   5.329 -0.4343  0.1276  0.5474
   65MOL    C1714225   1.429   4.746   5.232 -0.0075 -0.4859  0.3616
   65MOL    H1814226   1.567   5.071   5.529  2.2885 -1.0996 -0.1872
   65MOL    H1914227   1.550   4.902   5.539  1.1890  0.3220 -1.0658
   65MOL    H2014228   1.471   5.010   5.272  0.8162  0.9057 -0.0651
   65MOL    H2114229   1.337   4.804   5.228 -0.1800 -0.7828 -0.0085
   65MOL    H2214230   1.482   4.755   5.137  1.9804  0.4188  1.5296
   65MOL    H2314231   1.414   4.640   5.255  0.6010 -0.5212  0.6115
   65MOL    C2414232   1.676   5.034   5.308 -0.3268  0.0689  0.3199
   65MOL    C2514233   1.729   5.016   5.166  0.2144  0.3855  0.1239
   65MOL    C2614234   1.647   5.088   5.059 -0.1623 -0.0111 -0.2991
   65MOL    O2714235   1.603   5.197   5.075  0.7395  0.6327 -0.3632
   65MOL    C2814236   1.625   5.024   4.928  0.6693  0.6424 -0.3239
   65MOL    H2914237   1.664   5.141   5.325 -0.4922 -0.2639  2.4189
   65MOL    H3014238   1.751   5.017   5.385  0.3971  1.2919 -0.1077
   65MOL    H3114239   1.720   4.910   5.142  0.2497  0.7141 -1.3834
   65MOL    H3214240   1.535   4.962   4.929  0.3283  1.1336 -0.2320
   65MOL    H3314241   1.607   5.102   4.854 -0.3088  0.4869 -0.2604
   65MOL    H3414242   1.714   4.968   4.898  1.1314  1.0200  0.3335
   65MOL    C3514243   1.881   5.038   5.155 -0.2726  0.2631 -0.6385
   65MOL    C3614244   1.947   4.937   5.054  0.4378 -0.0513  0.1301
   65MOL    C3714245   2.057   4.998   4.964  0.3800 -0.6249 -0.5231
   65MOL    O3814246   2.154   4.931   4.940  0.0721 -0.2734 -0.5253
   65MOL    C3914247   2.039   5.135   4.890 -0.2551  0.2562  0.1052
   65MOL    H4014248   1.927   5.032   5.254 -0.2056  0.3481 -0.6630
   65MOL    H4114249   1.900   5.139   5.119 -2.7512  1.8453  2.3084
   65MOL    H4214250   1.881   4.913   4.971  0.1472 -0.6883  0.5368
   65MOL    H4314251   2.100   5.148   4.800 -0.4765 -0.1522 -0.1064
   65MOL    H4414252   2.075   5.218   4.952 -0.8394 -0.0592  0.8679
   65MOL    H4514253   1.932   5.153   4.877 -0.1026  0.8382 -0.3694
   65MOL    C4614254   1.977   4.797   5.117 -0.1845  0.3522 -0.0066
   65MOL    C4714255   1.909   4.678   5.049  0.2714  0.2324  0.2599
   65MOL    C4814256   1.996   4.640   4.935 -0.2987  0.1016 -0.4061
   65MOL    O4914257   2.085   4.553   4.945  0.6091 -0.3208  0.2620
   65MOL    C5014258   1.961   4.690   4.796 -0.3640 -0.5655 -0.0300
   65MOL    H5114259   1.934   4.799   5.217 -0.4795 -0.2653 -0.1221
   65MOL    H5214260   2.085   4.800   5.132  0.0104  3.2109 -1.5692
   65MOL    H5314261   1.812   4.707   5.008 -1.3511  0.0407  3.8361
   65MOL    H5414262   2.034   4.663   4.719  0.4827  0.2799  0.4575
   65MOL    H5514263   1.861   4.653   4.775 -0.9291  1.0860 -0.2720
   65MOL    H5614264   1.956   4.798   4.809  0.9398 -0.4589 -0.2847
   65MOL    C5714265   1.877   4.552   5.132  0.4733  0.4672  0.2558
   65MOL    C5814266   1.775   4.453   5.066 -0.0968  0.4351  0.0252
   65MOL    C5914267   1.789   4.305   5.116 -0.4778 -0.6683  0.2370
   65MOL    O6014268   1.703   4.254   5.183 -0.1370  0.1650 -0.1552
   65MOL    C6114269   1.905   4.227   5.067  0.2068 -0.6415 -0.1306
   65MOL    H6214270   1.832   4.578   5.228  0.5162 -0.4483  0.5299
   65MOL    H6314271   1.967   4.496   5.158  0.9107  0.2791 -1.6273
   65MOL    H6414272   1.800   4.430   4.963  1.5319 -0.4703  0.5930
   65MOL    H6514273   1.907   4.121   5.092  0.3631 -0.5118  0.4024
   65MOL    H6614274   1.935   4.239   4.962 -1.3987 -0.4561 -0.5691
   65MOL    H6714275   1.987   4.269   5.125 -0.0166 -1.5788  0.8732
   65MOL    C6814276   1.635   4.515   5.079 -0.4223 -0.6324  0.9642
   65MOL    C6914277   1.561   4.485   4.953  0.2631  0.1908 -0.1121
   65MOL    C7014278   1.608   4.569   4.833 -0.0014 -0.6490  0.3160
   65MOL    O7114279   1.645   4.685   4.849 -0.2758 -0.0380 -0.3246
   65MOL    C7214280   1.600   4.503   4.695  0.1843  0.4369  0.6026
   65MOL    H7314281   1.593   4.476   5.172 -2.0911  2.5418  1.6227
   65MOL    H7414282   1.640   4.621   5.101 -2.9009  0.0212 -1.3287
   65MOL    H7514283   1.586   4.382   4.929  2.4885  0.4973  0.7851
   65MOL    H7614284   1.705   4.482   4.674 -0.5976 -1.1920 -1.9043
   65MOL    H7714285   1.533   4.418   4.692  0.7727 -0.0814  1.8461
   65MOL    H7814286   1.582   4.590   4.632  0.9726 -0.3288 -0.7112
   65MOL    C7914287   1.408   4.516   4.981 -0.0811  0.5648 -0.0897
   65MOL    C8014288   1.331   4.427   5.081  0.6790 -0.4643  0.4659
   65MOL    C8114289   1.328   4.284   5.043 -0.0396 -0.3775  0.0856
   65MOL    O8214290   1.364   4.206   5.128  0.4264 -0.0090 -0.0140
   65MOL    C8314291   1.287   4.244   4.905 -0.5910  0.3698  0.8832
   65MOL    H8414292   1.362   4.498   4.883  0.0353  1.8083 -0.3732
   65MOL    H8514293   1.392   4.622   4.995 -0.7184  0.6931 -1.6428
   65MOL    H8614294   1.390   4.440   5.172 -0.2374  1.9329  0.7615
   65MOL    H8714295   1.287   4.135   4.908 -0.7764  0.3768  1.1201
   65MOL    H8814296   1.357   4.275   4.827 -0.4855 -1.1674  0.3415
   65MOL    H8914297   1.189   4.289   4.888  0.1125  2.1876  1.5573
   65MOL    C9014298   1.190   4.481   5.096 -0.4232 -0.9041  0.0592
   65MOL    C9114299   1.120   4.418   5.223  0.1670 -0.3849  0.0790
   65MOL    C9214300   1.170   4.494   5.352 -0.9595  0.0242 -0.2418
   65MOL    O9314301   1.130   4.603   5.386 -0.0458 -0.0508 -0.1658
   65MOL    C9414302   1.278   4.417   5.428 -0.5844  0.0670 -0.1607
   65MOL    H9514303   1.191   4.587   5.121 -3.4373 -0.7560 -0.1739
   65MOL    H9614304   1.132   4.464   5.005  0.7655 -0.2500 -0.8273
   65MOL    H9714305   1.140   4.311   5.230 -0.1618 -0.4295  0.3188
   65MOL    H9814306   1.328   4.338   5.372 -2.1698 -2.0539  1.3268
   65MOL    H9914307   1.359   4.474   5.473  0.5620  0.4025 -2.6013
   65MOL   H10014308   1.234   4.348   5.500  1.4732 -0.0982  0.9471
   65MOL   C10114309   0.965   4.436   5.208 -0.2367  0.5009 -0.2072
   65MOL   C10214310   0.881   4.317   5.265 -0.2258  0.8200 -0.9266
   65MOL   C10314311   0.895   4.312   5.418  0.5310  0.0982 -0.6668
   65MOL   O10414312   0.993   4.257   5.469 -1.0620  0.6175  0.3516
   65MOL   C10514313   0.820   4.414   5.501 -0.4281  0.0617 -0.3724
   65MOL   H10614314   0.936   4.532   5.250 -1.0150 -0.1296  0.7459
   65MOL   H10714315   0.938   4.437   5.103 -1.0328  0.5253 -0.0025
   65MOL   H10814316   0.774   4.337   5.265 -0.4044 -0.0965  0.5303
   65MOL   H10914317   0.727   4.439   5.450 -1.2198  0.3955  1.2189
   65MOL   H11014318   0.801   4.391   5.606 -0.0310 -2.5032 -0.8301
   65MOL   H11114319   0.879   4.505   5.509 -0.1862 -0.1349  0.0754
   65MOL   C11214320   0.900   4.185   5.196 -0.3425  0.7121 -0.7385
   65MOL   C11314321   0.793   4.081   5.213 -0.2531  0.5633  0.1558
   65MOL   C11414322   0.824   3.966   5.314 -0.0819 -0.5599  0.0075
   65MOL   O11514323   0.936   3.922   5.327 -0.3037  0.0243 -0.0827
   65MOL   C11614324   0.717   3.929   5.423 -0.7312 -0.2088  0.3411
   65MOL   H11714325   0.995   4.137   5.224 -0.1829  2.0195  1.0558
   65MOL   H11814326   0.914   4.201   5.089  0.5981  1.9823 -0.4430
   65MOL   H11914327   0.715   4.142   5.258  0.9263  2.8934 -0.8713
   65MOL   H12014328   0.619   3.936   5.374 -0.4920  0.1508 -0.0861
   65MOL   H12114329   0.749   3.827   5.447 -0.7015 -0.4611 -0.7288
   65MOL   H12214330   0.721   3.998   5.507 -1.3102 -0.4446  0.5667
   65MOL   C12314331   0.725   4.024   5.081 -0.6155  0.0522  0.0029
   65MOL   C12414332   0.805   3.913   5.010 -0.6753 -0.1592 -0.3558
   65MOL   C12514333   0.920   3.967   4.930 -0.3024  1.0851 -0.0006
   65MOL   O12614334   0.914   4.009   4.820 -0.3616 -0.4048  0.3047
   65MOL   C12714335   1.055   3.960   4.997  0.1456 -0.0443  0.7783
   65MOL   H12814336   0.722   4.103   5.007 -2.4302 -0.0612 -0.0796
   65MOL   H12914337   0.623   3.990   5.100 -1.3663  1.9395 -0.5696
   65MOL   H13014338   0.846   3.835   5.074  0.5974 -2.1514 -3.4766
   65MOL   H13114339   1.127   3.913   4.931 -1.1171  0.1078 -0.7293
   65MOL   H13214340   1.066   3.898   5.086  2.7871 -2.2260 -0.9816
   65MOL   H13314341   1.079   4.064   5.019  3.5150 -0.5977 -0.0871
   65MOL   C13414342   0.706   3.822   4.930 -0.3628 -0.4962 -0.0674
   65MOL   C13514343   0.756   3.685   4.902  0.2565  0.2301  1.0815
   65MOL   C13614344   0.680   3.596   5.002 -0.0015  0.8202 -0.3586
   65MOL   O13714345   0.573   3.535   4.966 -0.4491 -0.3878 -0.3224
   65MOL   C13814346   0.747   3.579   5.136 -0.1650 -0.1169 -0.2118
   65MOL   H13914347   0.674   3.866   4.836 -0.7280  1.3022  0.8573
   65MOL   H14014348   0.616   3.813   4.992  0.4217 -0.7102  1.0686
   65MOL   H14114349   0.864   3.680   4.916  0.4843  1.1018 -0.2700
   65MOL   H14214350   0.698   3.652   5.201 -0.0148  1.2606 -1.6236
   65MOL   H14314351   0.850   3.607   5.118  0.1983 -1.6274 -0.5737
   65MOL   H14414352   0.744   3.480   5.182 -0.0491 -0.4625 -0.9359
   65MOL   C14514353   0.737   3.624   4.763  0.2134 -0.4505 -0.1148
   65MOL   C14614354   0.840   3.512   4.732  0.2804  0.2097  0.0281
   65MOL   C14714355   0.776   3.406   4.645 -0.1078  0.3402 -0.2478
   65MOL   O14814356   0.767   3.290   4.691 -0.0962 -0.6140 -0.1717
   65MOL   C14914357   0.721   3.448   4.510  0.3879 -0.1658  0.1141
   65MOL   H15014358   0.739   3.701   4.686 -0.7224 -0.6303 -0.3181
   65MOL   H15114359   0.633   3.592   4.753  0.3927 -0.9670 -0.3870
   65MOL   H15214360   0.871   3.459   4.823 -1.4992 -0.5284  0.2131
   65MOL   H15314361   0.791   3.420   4.432 -0.1091 -0.6829 -0.1501
   65MOL   H15414362   0.633   3.396   4.472  1.5149  0.2084 -3.1271
   65MOL   H15514363   0.711   3.557   4.508 -1.5673 -0.3421 -1.5974
   65MOL   C15614364   0.979   3.565   4.684 -0.4688  0.5613  0.2851
   65MOL   C15714365   1.101   3.475   4.718  0.1199  0.2930 -0.6364
   65MOL   C15814366   1.132   3.499   4.866  0.6783 -0.1027 -0.8578
   65MOL   O15914367   1.160   3.614   4.914 -0.1196  0.5059 -0.6559
   65MOL   C16014368   1.111   3.383   4.964  0.0817 -0.1429  0.1312
   65MOL   H16114369   0.981   3.566   4.575  0.0061 -3.9286  0.1699
   65MOL   H16214370   1.003   3.668   4.711  1.6697  0.1963 -0.1747
   65MOL   H16314371   1.069   3.371   4.724 -0.3303  0.5323  1.7972
   65MOL   H16414372   1.210   3.360   5.002 -0.0929 -1.7417 -0.3519
   65MOL   H16514373   1.055   3.309   4.907  1.9296 -0.2178 -1.6314
   65MOL   H16614374   1.055   3.425   5.048 -0.3741 -0.8427  0.1800
   65MOL   C16714375   1.231   3.495   4.633  0.3830 -0.5025 -0.8241
   65MOL   C16814376   1.334   3.383   4.638  0.0999 -0.1725  0.1363
   65MOL   C16914377   1.277   3.249   4.585 -0.0331  0.4320 -0.1651
   65MOL   O17014378   1.235   3.167   4.667  0.6412 -0.1107  0.3155
   65MOL   C17114379   1.278   3.221   4.438  0.1229 -0.6930  0.3628
   65MOL   H17214380   1.205   3.492   4.527 -1.4135  1.5335 -0.4732
   65MOL   H17314381   1.282   3.591   4.637 -0.3339  0.0682 -3.9380
   65MOL   H17414382   1.410   3.412   4.566  0.3895  0.7608  0.8117
   65MOL   H17514383   1.345   3.138   4.416  0.5768 -0.0594 -0.6770
   65MOL   H17614384   1.295   3.309   4.377 -4.0174 -1.0655 -1.4790
   65MOL   H17714385   1.180   3.192   4.400 -1.0550  2.6524  0.7382
   65MOL   C17814386   1.410   3.372   4.777 -0.3847 -0.5751 -0.2075
   65MOL   C17914387   1.543   3.292   4.761  0.0177  0.6564  0.1315
   65MOL   C18014388   1.596   3.252   4.901 -0.5029 -0.3930  0.3262
   65MOL   O18114389   1.618   3.338   4.986 -0.1479  0.1773  0.8855
   65MOL   C18214390   1.589   3.105   4.944 -0.5340  0.2965  0.2391
   65MOL   H18314391   1.420   3.470   4.824 -0.9759 -0.4742 -0.2912
   65MOL   H18414392   1.341   3.315   4.839 -2.9101 -1.2585 -3.4682
   65MOL   H18514393   1.520   3.201   4.707  1.7016  0.2015  0.1674
   65MOL   H18614394   1.483   3.080   4.953 -0.9423  1.9956  0.4373
   65MOL   H18714395   1.635   3.090   5.041  0.0041 -0.5697 -0.1429
   65MOL   H18814396   1.638   3.038   4.873  0.7759  0.3114  1.1200
   65MOL   C18914397   1.658   3.371   4.696  0.0604 -0.4662  0.0806
   65MOL   C19014398   1.778   3.281   4.650  0.6940  0.4599 -0.1779
   65MOL   C19114399   1.728   3.183   4.546 -0.3019 -0.8404 -0.4658
   65MOL   O19214400   1.659   3.220   4.448  0.0976  0.0627 -0.0543
   65MOL   C19314401   1.770   3.037   4.559  0.7431 -0.0990  0.5210
   65MOL   H19414402   1.613   3.430   4.615 -3.1056  0.1045  2.1671
   65MOL   H19514403   1.683   3.455   4.760 -2.8172  1.4289 -1.1321
   65MOL   H19614404   1.804   3.238   4.746 -1.5203  2.7104  1.4920
   65MOL   H19714405   1.768   2.998   4.660  2.0548  0.8896  0.9423
   65MOL   H19814406   1.710   2.975   4.493  1.7112  0.1247 -0.5996
   65MOL   H19914407   1.869   3.011   4.521  0.1173 -0.2109 -1.0817
   65MOL   C20014408   1.888   3.380   4.605  0.1564 -0.4114  0.1238
   65MOL   C20114409   2.018   3.309   4.553  0.5854  0.3180 -0.3120
   65MOL   C20214410   2.112   3.287   4.670 -0.0220  0.1596  0.2426
   65MOL   O20314411   2.171   3.382   4.716  0.0759 -0.3421  0.0608
   65MOL   C20414412   2.139   3.150   4.735 -0.7613 -0.1926 -0.3117
   65MOL   H20514413   1.843   3.445   4.529  0.3728 -0.0659  0.2904
   65MOL   H20614414   1.902   3.432   4.699  1.4029  1.1707 -0.9080
   65MOL   H20714415   2.005   3.203   4.528 -0.4518  0.4650 -0.3978
   65MOL   H20814416   2.212   3.166   4.814 -2.2301  2.5408  0.5352
   65MOL   H20914417   2.051   3.098   4.771  0.3260 -2.1039 -0.3191
   65MOL   H21014418   2.183   3.089   4.655 -0.7709  0.2336 -0.6443
   65MOL   C21114419   2.088   3.385   4.442  0.1475 -0.1124  0.4278
   65MOL   C21214420   2.022   3.383   4.304 -0.1335  0.7481  0.5029
   65MOL   C21314421   2.036   3.256   4.228  0.5263 -0.7187  0.4125
   65MOL   O21414422   2.034   3.146   4.281 -0.1787 -0.0525 -0.2504
   65MOL   C21514423   2.037   3.267   4.083 -0.5272  0.2014 -0.0839
   65MOL   H21614424   2.099   3.490   4.471  0.1214 -0.6322  2.3885
   65MOL   H21714425   2.189   3.345   4.438 -0.5575 -1.8236 -0.2913
   65MOL   H21814426   2.067   3.463   4.245  1.7462  0.8474  2.0088
   65MOL   H21914427   2.111   3.198   4.044 -2.3177 -0.9718 -1.4690
   65MOL   H22014428   1.940   3.243   4.039  0.4461  1.9015 -3.2931
   65MOL   H22114429   2.065   3.370   4.058 -0.8828  0.6659  1.3449
   65MOL   H22214430   1.913   3.389   4.309 -0.1949 -0.6448  0.9404
   66MOL     C114431   5.329   2.941   4.439 -0.0892  0.6030 -0.2264
   66MOL     C214432   5.200   2.909   4.361  0.4297  0.5323 -0.1036
   66MOL     C314433   5.110   2.808   4.440 -0.0169 -0.1648  1.0757
   66MOL     O414434   4.994   2.834   4.473 -0.2951 -0.1961  0.1037
   66MOL     C514435   5.162   2.663   4.461  0.4331  0.2003 -0.7054
   66MOL     H614436   5.365   2.852   4.490 -0.1564  0.3051 -0.6969
   66MOL     H714437   5.327   3.012   4.522 -2.1447  0.7779 -0.4158
   66MOL     H814438   5.229   2.844   4.279 -1.3427 -0.5657  0.1134
   66MOL     H914439   5.270   2.660   4.474  0.6042  2.1914 -1.5199
   66MOL    H1014440   5.113   2.618   4.548 -1.0979  1.4006 -0.9309
   66MOL    H1114441   5.128   2.607   4.374 -2.0932 -1.2300  1.1277
   66MOL    H1214442   5.400   2.982   4.367 -0.3432 -0.8347 -1.3114
   66MOL    C1314443   5.132   3.033   4.310  0.0036 -0.4018 -0.5575
   66MOL    C1414444   5.038   3.024   4.193  0.5553  0.7495 -0.2223
   66MOL    C1514445   5.113   2.953   4.075  0.4593 -0.3609  0.2701
   66MOL    O1614446   5.205   3.011   4.012  0.3566 -0.0919 -0.8434
   66MOL    C1714447   5.067   2.811   4.027  0.0961  0.1840 -0.9052
   66MOL    H1814448   5.082   3.087   4.390  0.6609  0.1755 -0.5267
   66MOL    H1914449   5.209   3.105   4.282 -0.0501 -0.8497 -1.9207
   66MOL    H2014450   4.955   2.960   4.223  0.6442  0.0128 -1.5270
   66MOL    H2114451   5.109   2.734   4.092  1.8646  1.3700 -0.6040
   66MOL    H2214452   4.959   2.801   4.023  0.0782 -0.7517  0.9879
   66MOL    H2314453   5.124   2.801   3.935  1.1756  2.9425 -0.5854
   66MOL    C2414454   4.988   3.165   4.152  0.9607 -0.1494 -0.2594
   66MOL    C2514455   4.918   3.159   4.017 -0.5402  0.5616  0.3630
   66MOL    C2614456   4.792   3.072   4.020  0.7197 -0.3199  0.2486
   66MOL    O2714457   4.712   3.061   4.113  0.8501 -0.6348  0.0800
   66MOL    C2814458   4.758   3.013   3.883  0.2261  0.7178  0.4320
   66MOL    H2914459   4.910   3.200   4.220 -0.4258 -1.2459 -1.2371
   66MOL    H3014460   5.070   3.236   4.141  1.0656 -0.4447 -1.5268
   66MOL    H3114461   4.981   3.125   3.935 -0.3430 -1.2881  1.2514
   66MOL    H3214462   4.753   2.904   3.892 -3.4333  0.7310 -0.5046
   66MOL    H3314463   4.658   3.047   3.854 -0.0873  0.4928  1.2486
   66MOL    H3414464   4.817   3.037   3.795 -1.4403 -2.9241 -1.8235
   66MOL    C3514465   4.875   3.308   3.981 -0.5525  1.1608  0.4200
   66MOL    C3614466   4.992   3.389   3.918 -0.4828  0.2099 -0.1990
   66MOL    C3714467   5.030   3.355   3.773 -0.0357  0.3598  0.3775
   66MOL    O3814468   4.946   3.352   3.682  0.0372  0.3847  0.2331
   66MOL    C3914469   5.174   3.325   3.741  0.5022 -0.3007  0.1168
   66MOL    H4014470   4.837   3.364   4.067  1.0226  2.8547  0.0459
   66MOL    H4114471   4.785   3.303   3.920 -1.7869  0.8198  2.2283
   66MOL    H4214472   5.082   3.373   3.977  0.1826  0.4007 -1.1365
   66MOL    H4314473   5.243   3.403   3.775  0.7246 -0.6111  0.3756
   66MOL    H4414474   5.189   3.311   3.634 -2.2063 -0.0812 -0.3118
   66MOL    H4514475   5.209   3.243   3.803 -0.6802 -1.2192 -0.4258
   66MOL    C4614476   4.952   3.541   3.922  0.4490 -0.0363 -0.7495
   66MOL    C4714477   4.823   3.586   3.854  0.9514  0.6950  0.5683
   66MOL    C4814478   4.720   3.634   3.956  0.0850  0.6203 -0.4776
   66MOL    O4914479   4.736   3.737   4.019  0.0450  0.2308 -0.0585
   66MOL    C5014480   4.598   3.545   3.981 -0.5229 -0.2985 -0.0979
   66MOL    H5114481   5.031   3.608   3.889 -1.1755  2.0472 -0.4887
   66MOL    H5214482   4.955   3.585   4.022  1.1600 -1.3965 -0.1444
   66MOL    H5314483   4.772   3.499   3.813  0.6142  0.8316  0.6996
   66MOL    H5414484   4.610   3.446   3.935  3.8808  0.5643 -1.0857
   66MOL    H5514485   4.592   3.529   4.088 -0.1325  1.8002  0.2536
   66MOL    H5614486   4.504   3.594   3.956  0.1050  0.0432 -1.8905
   66MOL    C5714487   4.843   3.701   3.753  0.0825  0.5861 -0.5825
   66MOL    C5814488   4.911   3.666   3.620 -0.5314  0.8445 -0.0322
   66MOL    C5914489   4.825   3.600   3.511  0.1445  0.9026 -0.2203
   66MOL    O6014490   4.710   3.639   3.487  0.2886  0.3928  0.1774
   66MOL    C6114491   4.890   3.507   3.420  0.1057  0.5638 -0.3362
   66MOL    H6214492   4.896   3.777   3.810 -0.2019  0.7963 -0.6001
   66MOL    H6314493   4.747   3.749   3.739 -0.2564  0.2332  0.4896
   66MOL    H6414494   4.989   3.591   3.635 -2.4320 -1.2443 -0.2247
   66MOL    H6514495   4.984   3.465   3.455 -0.1367 -0.1662 -0.5650
   66MOL    H6614496   4.818   3.427   3.405  0.7540 -0.0982  0.0403
   66MOL    H6714497   4.895   3.560   3.324  0.0165  2.6866  0.7860
   66MOL    C6814498   4.976   3.791   3.567  0.0154 -0.1233  0.4697
   66MOL    C6914499   5.077   3.778   3.452  0.4065 -0.8243 -0.1330
   66MOL    C7014500   5.204   3.701   3.488  0.2846 -0.2234 -0.0298
   66MOL    O7114501   5.227   3.599   3.425 -0.0827  0.6724  0.1879
   66MOL    C7214502   5.302   3.749   3.585  0.3559  0.2265 -0.0233
   66MOL    H7314503   4.891   3.846   3.526 -0.2453 -0.2946  0.7797
   66MOL    H7414504   5.019   3.856   3.643  1.4690 -3.6114  2.7599
   66MOL    H7514505   5.029   3.725   3.369 -0.5249 -0.7916  0.3730
   66MOL    H7614506   5.355   3.670   3.638  0.2425  0.0918 -0.1113
   66MOL    H7714507   5.378   3.809   3.535  1.8689 -0.0427  1.8666
   66MOL    H7814508   5.248   3.821   3.648  0.5474  0.9600 -0.6997
   66MOL    C7914509   5.110   3.927   3.411 -0.2020  0.0294  0.4291
   66MOL    C8014510   5.148   3.955   3.269 -0.5768  0.2296 -0.3180
   66MOL    C8114511   5.035   3.917   3.168 -0.0492 -0.0137 -1.5565
   66MOL    O8214512   5.037   3.818   3.095 -0.1753  0.0660  0.4618
   66MOL    C8314513   4.911   4.015   3.177 -0.7729 -0.1833  0.0968
   66MOL    H8414514   5.177   3.984   3.476  0.7586  0.4767 -0.9436
   66MOL    H8514515   5.027   3.997   3.420  0.6062  1.1203 -0.4986
   66MOL    H8614516   5.168   4.059   3.242  0.0268  0.2998  0.4026
   66MOL    H8714517   4.835   3.980   3.107 -0.4309  0.8946 -0.8331
   66MOL    H8814518   4.934   4.114   3.137 -1.5055 -0.9551 -2.2905
   66MOL    H8914519   4.874   4.016   3.280  0.1880 -1.0336  0.4521
   66MOL    C9014520   5.281   3.884   3.232 -0.2738 -0.2759 -0.0044
   66MOL    C9114521   5.372   3.934   3.112 -0.0883 -0.3873  0.0237
   66MOL    C9214522   5.417   4.070   3.124 -0.2492 -0.1494  0.6995
   66MOL    O9314523   5.479   4.121   3.217 -0.0441  0.1536  0.1444
   66MOL    C9414524   5.401   4.159   3.001  0.1938  0.0940 -0.3568
   66MOL    H9514525   5.345   3.882   3.320  1.3555 -0.4267 -1.1624
   66MOL    H9614526   5.254   3.780   3.209 -1.0818  0.0120 -0.3785
   66MOL    H9714527   5.308   3.932   3.024 -0.3485 -3.9857  0.2082
   66MOL    H9814528   5.294   4.175   2.998 -0.5030 -2.9671  3.3084
   66MOL    H9914529   5.445   4.254   3.030  2.9219 -1.6601  1.5342
   66MOL   H10014530   5.443   4.115   2.910 -0.1313 -0.0783 -0.4232
   66MOL   C10114531   5.492   3.843   3.071 -0.3383  0.5044 -0.1198
   66MOL   C10214532   5.541   3.826   2.925  0.2156 -0.2085 -0.4074
   66MOL   C10314533   5.426   3.789   2.831 -0.2504  0.0310  0.3185
   66MOL   O10414534   5.387   3.879   2.752 -0.2725  0.1216  0.0663
   66MOL   C10514535   5.367   3.651   2.848 -0.3005 -0.1806  0.1474
   66MOL   H10614536   5.580   3.876   3.126  0.4333 -0.7566 -0.5843
   66MOL   H10714537   5.468   3.743   3.107  0.6417  0.2415 -0.1854
   66MOL   H10814538   5.576   3.922   2.886  0.8443 -0.2140  0.1302
   66MOL   H10914539   5.298   3.657   2.932  1.2090 -1.0293  1.4714
   66MOL   H11014540   5.315   3.612   2.760 -0.3111 -2.4687  1.1407
   66MOL   H11114541   5.453   3.584   2.858 -0.2662 -0.0312  0.8429
   66MOL   C11214542   5.661   3.727   2.926  0.5105 -0.9673 -0.6847
   66MOL   C11314543   5.802   3.773   2.973  0.4705  0.1439 -0.4471
   66MOL   C11414544   5.842   3.906   2.922  0.2374  0.0864  0.1037
   66MOL   O11514545   5.932   3.913   2.833 -0.2854  0.0642 -0.8653
   66MOL   C11614546   5.784   4.040   2.962  0.3950 -0.6389  0.2069
   66MOL   H11714547   5.682   3.680   2.830  0.8487 -0.8387 -0.6747
   66MOL   H11814548   5.627   3.640   2.981  0.4796  0.0332  0.9023
   66MOL   H11914549   5.807   3.801   3.078 -1.7588  0.7706 -0.4811
   66MOL   H12014550   5.859   4.097   3.017  0.1762  0.3255 -0.4803
   66MOL   H12114551   5.766   4.095   2.869  1.1244 -1.5120 -0.4595
   66MOL   H12214552   5.689   4.026   3.013 -0.6873  0.0605 -1.5528
   66MOL   C12314553   5.906   3.662   2.952  0.3347 -0.6681  0.7106
   66MOL   C12414554   5.868   3.527   3.008  0.4548  0.2091 -0.1056
   66MOL   C12514555   5.862   3.529   3.161  0.2547 -1.0014 -0.1509
   66MOL   O12614556   5.958   3.574   3.227 -0.5746 -0.3483 -0.1839
   66MOL   C12714557   5.738   3.480   3.236 -0.8015  1.1089 -0.5647
   66MOL   H12814558   5.993   3.709   2.997 -0.4039  1.2012  0.2382
   66MOL   H12914559   5.927   3.653   2.846 -0.8117 -0.9588  0.4951
   66MOL   H13014560   5.771   3.494   2.971  0.4131  1.1675 -0.8732
   66MOL   H13114561   5.768   3.449   3.336  3.1257 -0.2761 -2.0886
   66MOL   H13214562   5.680   3.396   3.198 -1.2310  1.4082 -0.5812
   66MOL   H13314563   5.667   3.563   3.236 -0.3494  1.5292  1.5592
   66MOL   C13414564   5.968   3.416   2.959  0.3329  0.5251  0.0402
   66MOL   C13514565   5.990   3.379   2.810 -0.0216 -0.4048  0.1181
   66MOL   C13614566   5.858   3.386   2.727  0.1354  0.2247 -0.0183
   66MOL   O13714567   5.823   3.489   2.670  0.0211  0.7433 -0.1903
   66MOL   C13814568   5.756   3.273   2.735  1.1387  0.8812 -0.1231
   66MOL   H13914569   5.956   3.327   3.020 -0.6133  0.6075 -0.0289
   66MOL   H14014570   6.063   3.452   2.999  1.2129 -1.7871  0.1112
   66MOL   H14114571   6.026   3.276   2.807  1.2352 -0.0264  1.7174
   66MOL   H14214572   5.804   3.175   2.726 -0.2411  0.1237  0.7394
   66MOL   H14314573   5.683   3.292   2.657  0.6927  2.8392  0.7609
   66MOL   H14414574   5.707   3.288   2.831  1.5070  0.6856  0.0998
   66MOL   C14514575   6.099   3.458   2.730  0.4345  0.1914  0.8132
   66MOL   C14614576   6.188   3.378   2.642 -0.3164 -0.8097  0.4343
   66MOL   C14714577   6.271   3.472   2.552  0.0760  0.7173  0.0716
   66MOL   O14814578   6.287   3.593   2.584  0.2156  0.7680  0.1033
   66MOL   C14914579   6.337   3.418   2.430  0.2141  0.1948 -0.1636
   66MOL   H15014580   6.166   3.511   2.798 -0.2724  0.1474  1.5458
   66MOL   H15114581   6.056   3.539   2.672 -1.8152 -1.4255  0.1567
   66MOL   H15214582   6.121   3.336   2.567 -0.2993 -1.4554  0.7776
   66MOL   H15314583   6.375   3.317   2.448 -1.0339  0.2477  3.1540
   66MOL   H15414584   6.256   3.407   2.359  1.2014 -0.7248 -1.1743
   66MOL   H15514585   6.410   3.483   2.382  0.9161 -1.0876 -0.8663
   66MOL   C15614586   6.260   3.259   2.716  0.5882  0.6534 -0.1897
   66MOL   C15714587   6.189   3.123   2.692  0.2208  0.1577 -0.5070
   66MOL   C15814588   6.195   3.035   2.824 -0.0865  0.6091  0.6125
   66MOL   O15914589   6.105   3.009   2.899 -0.0788  0.2849  0.1777
   66MOL   C16014590   6.330   2.980   2.868  0.2360 -0.1019 -0.1691
   66MOL   H16114591   6.368   3.260   2.700  0.7897  0.9828  1.1258
   66MOL   H16214592   6.254   3.280   2.822  0.3896  3.1338 -0.6585
   66MOL   H16314593   6.084   3.140   2.670 -0.0187  1.3531  1.4693
   66MOL   H16414594   6.367   2.922   2.783 -1.8266 -2.0140  0.1927
   66MOL   H16514595   6.316   2.919   2.957 -0.9123 -0.5075 -0.6176
   66MOL   H16614596   6.397   3.065   2.878 -0.9714  1.1376 -2.3255
   66MOL   C16714597   6.255   3.049   2.574  0.0177  0.1729 -0.0206
   66MOL   C16814598   6.216   2.902   2.548  0.5506  0.1443  0.1656
   66MOL   C16914599   6.257   2.851   2.406  0.2938  0.5538 -0.4120
   66MOL   O17014600   6.201   2.759   2.352 -0.3818  0.2516 -0.4528
   66MOL   C17114601   6.376   2.928   2.343 -0.0907  0.3087 -0.1101
   66MOL   H17214602   6.233   3.109   2.486  1.5860  1.5319  0.4823
   66MOL   H17314603   6.364   3.056   2.583  0.0736  1.0508 -1.2576
   66MOL   H17414604   6.277   2.845   2.617  1.4418 -0.4859 -1.1176
   66MOL   H17514605   6.413   2.867   2.260 -0.6993  0.0052 -0.1671
   66MOL   H17614606   6.455   2.940   2.417  0.8230  1.2807 -1.2420
   66MOL   H17714607   6.333   3.022   2.308 -1.6885 -0.2339  0.3262
   66MOL   C17814608   6.064   2.881   2.567  0.3829  0.3103 -0.7539
   66MOL   C17914609   6.019   2.738   2.610 -0.3007 -0.5856  0.2489
   66MOL   C18014610   5.877   2.701   2.560 -0.6103  0.2078 -0.0128
   66MOL   O18114611   5.785   2.673   2.633 -0.3508 -0.3601 -0.2685
   66MOL   C18214612   5.832   2.727   2.415  0.2442 -0.1856 -0.3587
   66MOL   H18314613   6.029   2.935   2.655 -0.6069 -0.4475 -0.6772
   66MOL   H18414614   6.023   2.913   2.471 -0.3362  0.6441 -0.3423
   66MOL   H18514615   6.076   2.667   2.550 -1.4867 -1.3043 -0.0422
   66MOL   H18614616   5.923   2.715   2.355  0.3899 -0.7075 -0.0382
   66MOL   H18714617   5.791   2.826   2.400 -0.4429 -0.2613  1.0119
   66MOL   H18814618   5.774   2.642   2.378  0.3244 -0.9603  1.2691
   66MOL   C18914619   6.035   2.718   2.762 -0.6704  0.5238 -0.1563
   66MOL   C19014620   6.043   2.566   2.807  0.3423 -0.1932 -1.3108
   66MOL   C19114621   6.158   2.486   2.734  0.0077 -0.2365 -1.1594
   66MOL   O19214622   6.264   2.540   2.716 -0.1345 -0.8849  0.2363
   66MOL   C19314623   6.120   2.362   2.664  0.3588 -0.2534 -0.0414
   66MOL   H19414624   6.127   2.765   2.798  0.4465 -0.5075 -1.5663
   66MOL   H19514625   5.951   2.756   2.819 -1.5585 -0.8192 -0.5457
   66MOL   H19614626   5.942   2.528   2.796  1.3789 -2.9702 -1.6170
   66MOL   H19714627   6.067   2.383   2.571 -0.2707 -1.0938  0.1280
   66MOL   H19814628   6.208   2.301   2.642 -0.5216 -1.6984  0.4498
   66MOL   H19914629   6.068   2.298   2.735  1.3147 -2.9910 -1.7579
   66MOL   C20014630   6.068   2.558   2.965 -0.6741 -0.6547  0.0452
   66MOL   C20114631   6.058   2.422   3.036  0.3370 -0.6198 -0.0666
   66MOL   C20214632   5.919   2.360   3.037 -0.1796 -0.2652  0.2044
   66MOL   O20314633   5.818   2.425   3.010 -0.1702  0.4759  0.7466
   66MOL   C20414634   5.903   2.211   3.056  0.1602 -0.0567  0.7289
   66MOL   H20514635   6.168   2.598   2.977 -0.9421  0.3568 -0.8944
   66MOL   H20614636   6.005   2.628   3.020 -1.4417 -0.9264 -0.4713
   66MOL   H20714637   6.124   2.339   3.009  0.7415  0.1618 -1.5460
   66MOL   H20814638   5.925   2.166   2.960 -4.8079 -0.1218 -0.5220
   66MOL   H20914639   5.971   2.178   3.134 -1.3635 -1.3714  1.5221
   66MOL   H21014640   5.800   2.184   3.081 -0.3434  0.7028 -0.4762
   66MOL   C21114641   6.101   2.448   3.182 -0.7498 -0.7826  0.1617
   66MOL   C21214642   6.257   2.469   3.193 -0.3015  0.3265 -0.7890
   66MOL   C21314643   6.339   2.354   3.244 -0.5172 -0.7572  0.1083
   66MOL   O21414644   6.291   2.249   3.301 -0.2451 -0.5905  0.5461
   66MOL   C21514645   6.486   2.362   3.239 -0.0110 -0.8568 -0.3806
   66MOL   H21614646   6.053   2.539   3.218 -1.0009 -0.5241 -0.7990
   66MOL   H21714647   6.068   2.369   3.249 -1.4297 -0.4948  0.1739
   66MOL   H21814648   6.286   2.552   3.258 -1.2499 -0.8532  1.1856
   66MOL   H21914649   6.534   2.264   3.233  0.6388 -0.5486 -0.3526
   66MOL   H22014650   6.525   2.423   3.157 -0.2504 -0.3939 -0.1510
   66MOL   H22114651   6.515   2.408   3.334 -2.2785 -2.8763  1.3507
   66MOL   H22214652   6.300   2.498   3.097 -1.4792  1.5117 -0.9746
   67MOL     C114653   0.062   0.295   2.740 -0.0277 -0.2790  0.7753
   67MOL     C214654   0.095   0.143   2.761  0.1546 -0.1237  0.4970
   67MOL     C314655   7.840   0.069   2.832  0.5232  0.8332  0.3108
   67MOL     O414656   7.749   0.017   2.771  0.1397  0.1514  0.0307
   67MOL     C514657   7.847   0.040   2.973 -0.2659  0.1359 -0.9571
   67MOL     H614658   7.842   0.320   2.669 -0.0408 -0.2057  0.8148
   67MOL     H714659   0.150   0.355   2.718  0.8134 -1.6730  0.2867
   67MOL     H814660   0.185   0.129   2.820  0.1833  2.6287  1.1428
   67MOL     H914661   7.751   0.050   3.024  0.4372 -4.0721  1.4248
   67MOL    H1014662   0.029   7.798   2.994 -0.5155 -0.0731 -1.4478
   67MOL    H1114663   0.058   0.116   3.008 -0.3345  0.8584 -2.3501
   67MOL    H1214664   0.035   0.340   2.836 -0.2461 -1.3404  1.2202
   67MOL    C1314665   0.127   0.076   2.620 -0.7062  0.2101  0.1724
   67MOL    C1414666   0.184   7.785   2.603  0.3976  0.4413  0.2848
   67MOL    C1514667   0.283   7.742   2.711 -0.2625 -0.0613  0.2406
   67MOL    O1614668   0.374   7.811   2.744  0.1071 -0.2011 -0.3647
   67MOL    C1714669   0.252   7.616   2.791  0.0182  0.1367  0.5527
   67MOL    H1814670   0.039   0.078   2.556  0.6863  0.1305 -1.7677
   67MOL    H1914671   0.195   0.143   2.567 -0.2582 -0.1105  0.3395
   67MOL    H2014672   0.101   7.714   2.603  0.7104  0.0755  0.4315
   67MOL    H2114673   0.166   7.626   2.857 -0.1990  0.0536  0.2838
   67MOL    H2214674   0.234   7.529   2.728  0.7581  0.2283  0.2103
   67MOL    H2314675   0.336   7.602   2.859 -1.5071 -1.8147  2.0931
   67MOL    C2414676   0.257   7.775   2.469  0.0486 -0.5668 -0.2816
   67MOL    C2514677   0.289   7.629   2.415 -0.4519  0.2965 -0.0746
   67MOL    C2614678   0.216   7.605   2.278 -0.4119  0.2808  0.6383
   67MOL    O2714679   0.230   7.682   2.183 -0.1590 -0.2296  0.1870
   67MOL    C2814680   0.145   7.473   2.266 -0.7385 -0.0963  0.3604
   67MOL    H2914681   0.204   7.823   2.387 -1.0213 -0.0134  0.7268
   67MOL    H3014682   0.346   7.835   2.457  1.5042 -2.5870  0.1311
   67MOL    H3114683   0.250   7.562   2.491 -1.6493 -0.2385 -1.1317
   67MOL    H3214684   0.056   7.488   2.205 -0.4396 -1.2160 -0.3578
   67MOL    H3314685   0.208   7.404   2.211  0.2736 -0.4489  1.9382
   67MOL    H3414686   0.116   7.434   2.364 -1.8799  0.0044  0.0803
   67MOL    C3514687   0.436   7.599   2.382  0.0849  0.1747 -0.0790
   67MOL    C3614688   0.533   7.611   2.503 -0.0808 -0.4705  0.7994
   67MOL    C3714689   0.510   7.514   2.623  0.3688 -0.4928  0.7819
   67MOL    O3814690   0.541   7.540   2.735  0.3491 -0.5110  0.0345
   67MOL    C3914691   0.467   7.368   2.591  0.1109 -0.3582 -0.0625
   67MOL    H4014692   0.463   7.680   2.314 -1.7768  0.8660 -0.0371
   67MOL    H4114693   0.450   7.505   2.329  2.0825  0.1609  0.4322
   67MOL    H4214694   0.502   7.708   2.540  1.4021 -0.5737  2.3643
   67MOL    H4314695   0.375   7.334   2.638  0.0182  0.6804  0.5242
   67MOL    H4414696   0.538   7.295   2.630 -1.1480 -0.6145  1.8231
   67MOL    H4514697   0.463   7.366   2.482  2.1192  0.4819 -0.1755
   67MOL    C4614698   0.681   7.615   2.450  0.0822 -0.3544  0.3708
   67MOL    C4714699   0.791   7.689   2.528  0.5907  0.5727  0.0324
   67MOL    C4814700   0.931   7.646   2.484 -0.3351  0.4972  0.8417
   67MOL    O4914701   1.007   7.591   2.569 -0.0817 -0.2880 -0.2749
   67MOL    C5014702   0.973   7.655   2.333 -0.2015  0.4792 -0.1114
   67MOL    H5114703   0.676   7.657   2.349 -1.0085 -1.8128 -0.1957
   67MOL    H5214704   0.713   7.511   2.437  0.4308 -0.3019  0.8084
   67MOL    H5314705   0.779   7.666   2.634 -4.6667 -1.6554 -0.8517
   67MOL    H5414706   1.062   7.600   2.304 -0.0652  0.4969  0.2801
   67MOL    H5514707   0.886   7.613   2.282 -1.4096 -0.5538  2.6956
   67MOL    H5614708   0.982   7.759   2.302 -4.9903  0.4479 -2.1245
   67MOL    C5714709   0.798   7.840   2.509  1.0312  0.0747 -0.8788
   67MOL    C5814710   0.710   0.071   2.617  0.1308  0.3893 -0.1042
   67MOL    C5914711   0.780   0.052   2.755 -0.0150 -0.4887 -0.3304
   67MOL    O6014712   0.903   0.056   2.763 -0.2778  0.0887  0.5837
   67MOL    C6114713   0.698   0.037   2.882 -0.0178  0.4387 -0.1621
   67MOL    H6214714   0.783   0.008   2.404  1.9707  2.3457 -0.4921
   67MOL    H6314715   0.903   0.007   2.525  0.9942 -0.2989 -0.0632
   67MOL    H6414716   0.604   0.048   2.605  0.8934 -3.2214 -0.4670
   67MOL    H6514717   0.661   7.792   2.892 -0.5336  0.5011 -1.3852
   67MOL    H6614718   0.756   0.077   2.965 -0.4260  1.2868 -0.2927
   67MOL    H6714719   0.608   0.096   2.870  0.6356  1.8359  1.6738
   67MOL    C6814720   0.723   0.212   2.566  0.6206 -0.2655 -0.0470
   67MOL    C6914721   0.641   0.322   2.642 -0.3247 -0.1634  0.1573
   67MOL    C7014722   0.496   0.299   2.648 -0.1943 -0.2523 -0.0034
   67MOL    O7114723   0.438   0.248   2.557  0.0945  0.8228 -0.1030
   67MOL    C7214724   0.425   0.348   2.777 -0.3152 -0.1084 -0.4483
   67MOL    H7314725   0.828   0.236   2.547  0.3487  0.8342 -0.2445
   67MOL    H7414726   0.694   0.212   2.461  0.3123 -2.0910  0.0389
   67MOL    H7514727   0.668   0.314   2.747  1.2635  0.8882 -0.1610
   67MOL    H7614728   0.333   0.405   2.764  0.3383  1.5570  1.7375
   67MOL    H7714729   0.395   0.259   2.832 -2.0746  1.0069  0.4632
   67MOL    H7814730   0.488   0.406   2.845 -0.8378  0.8610 -0.7767
   67MOL    C7914731   0.674   0.461   2.573 -0.6033 -0.1088 -0.6466
   67MOL    C8014732   0.648   0.588   2.659  0.0081  0.3856 -0.6592
   67MOL    C8114733   0.661   0.713   2.578  0.0278 -0.0476  0.7403
   67MOL    O8214734   0.760   0.723   2.502 -0.1137 -0.7184  0.1536
   67MOL    C8314735   0.572   0.832   2.618  0.0564 -0.6148 -0.1365
   67MOL    H8414736   0.633   0.464   2.472  3.1155  1.1030 -2.1985
   67MOL    H8514737   0.782   0.469   2.564 -0.7851  1.0793 -1.8731
   67MOL    H8614738   0.542   0.579   2.685  0.6369 -2.3718  1.2038
   67MOL    H8714739   0.638   0.915   2.594  1.0651 -1.0272  1.1770
   67MOL    H8814740   0.558   0.826   2.726 -0.5171 -0.9225 -0.2259
   67MOL    H8914741   0.478   0.832   2.562 -0.8659  1.3927  1.3348
   67MOL    C9014742   0.727   0.609   2.795  0.3137  0.1789  0.4811
   67MOL    C9114743   0.877   0.603   2.790 -0.6818  0.4225 -0.0213
   67MOL    C9214744   0.941   0.723   2.858  0.4040  0.3535 -0.3828
   67MOL    O9314745   0.975   0.825   2.797  0.3756  0.0310  0.5597
   67MOL    C9414746   0.959   0.714   3.009 -0.1959  0.4021 -0.3484
   67MOL    H9514747   0.681   0.694   2.845 -1.1741 -1.2473  1.6023
   67MOL    H9614748   0.690   0.527   2.856 -1.4865 -0.7673 -1.8117
   67MOL    H9714749   0.896   0.627   2.685  1.7404 -1.9965 -0.1847
   67MOL    H9814750   0.883   0.653   3.057  0.8983  0.1537  1.1022
   67MOL    H9914751   1.061   0.684   3.034 -0.8131 -3.5099 -2.1703
   67MOL   H10014752   0.943   0.815   3.049 -0.0180  0.5350 -0.6125
   67MOL   C10114753   0.937   0.460   2.832  0.3190  0.1375 -0.4796
   67MOL   C10214754   1.087   0.443   2.790  0.4087  0.2631  0.6676
   67MOL   C10314755   1.118   0.431   2.637  0.6821  0.0917  0.0585
   67MOL   O10414756   1.024   0.391   2.567 -0.7967  0.3269 -0.5051
   67MOL   C10514757   1.261   0.445   2.582  0.7529 -0.3157 -0.4958
   67MOL   H10614758   0.931   0.440   2.939 -3.3025 -3.4026 -1.2038
   67MOL   H10714759   0.880   0.380   2.784 -1.4239  1.3039 -0.3667
   67MOL   H10814760   1.142   0.534   2.813 -0.1431  1.3644 -2.2068
   67MOL   H10914761   1.260   0.511   2.495  1.2090  2.0709  1.2806
   67MOL   H11014762   1.332   0.475   2.659 -0.2023  2.4433 -0.6461
   67MOL   H11114763   1.285   0.343   2.552 -0.1424 -0.5114 -0.5520
   67MOL   C11214764   1.159   0.322   2.859 -0.1871 -0.4627 -0.3048
   67MOL   C11314765   1.178   0.331   3.021 -0.0964  0.3986 -0.2889
   67MOL   C11414766   1.276   0.439   3.050 -0.9004 -0.5174  0.1761
   67MOL   O11514767   1.348   0.485   2.963  0.6504 -0.0369 -0.4152
   67MOL   C11614768   1.279   0.497   3.189  0.1137 -0.6255  0.4411
   67MOL   H11714769   1.256   0.312   2.809  0.6289  1.9511  0.7228
   67MOL   H11814770   1.106   0.230   2.835  0.4445 -0.4088 -2.0452
   67MOL   H11914771   1.083   0.358   3.066 -0.1494 -0.0337 -0.1383
   67MOL   H12014772   1.244   0.425   3.263 -1.5048  0.8437  1.1403
   67MOL   H12114773   1.381   0.529   3.211  0.3259 -0.5844 -0.5584
   67MOL   H12214774   1.204   0.575   3.203  0.5333 -0.3435  1.1225
   67MOL   C12314775   1.244   0.200   3.064 -0.3731  1.0772  0.3600
   67MOL   C12414776   1.143   0.081   3.079 -0.4896  0.2074  0.0410
   67MOL   C12514777   1.029   0.097   3.183 -1.0200 -0.3607 -0.2127
   67MOL   O12614778   1.028   0.178   3.277  0.5626  0.1018  0.0988
   67MOL   C12714779   0.910   0.013   3.155  0.0806  0.3177 -1.0047
   67MOL   H12814780   1.289   0.219   3.161  0.2051  1.3941  0.0359
   67MOL   H12914781   1.323   0.169   2.995  0.4036  0.2672  1.6067
   67MOL   H13014782   1.088   0.058   2.988 -2.1444  1.7098  0.6358
   67MOL   H13114783   0.819   0.065   3.186  1.8406  1.8519  1.8507
   67MOL   H13214784   0.912   7.783   3.220  1.7975 -0.8046 -2.5266
   67MOL   H13314785   0.901   7.845   3.050  1.4058 -1.8426 -0.6183
   67MOL   C13414786   1.223   7.797   3.104  0.2741 -0.4695 -0.0265
   67MOL   C13514787   1.326   7.749   2.997  0.7146 -0.4210  0.1073
   67MOL   C13614788   1.436   7.673   3.066  0.3558  1.0872 -0.2876
   67MOL   O13714789   1.432   7.548   3.085  0.7978 -0.3583 -0.7796
   67MOL   C13814790   1.548   7.759   3.113 -0.3532  0.6595  0.2669
   67MOL   H13914791   1.153   7.724   3.144  2.0781 -2.0500  0.3159
   67MOL   H14014792   1.277   7.821   3.195 -1.0874 -0.7190  0.8632
   67MOL   H14114793   1.382   7.830   2.950 -0.2237  0.4583  0.4713
   67MOL   H14214794   1.509   7.823   3.193  1.6674  0.8340  1.1491
   67MOL   H14314795   1.593   7.811   3.028 -0.4407  0.7065  0.2489
   67MOL   H14414796   1.621   7.698   3.165 -0.0011  1.4513  0.7209
   67MOL   C14514797   1.251   7.668   2.891 -0.3256  0.0754  0.1939
   67MOL   C14614798   1.320   7.657   2.748 -0.0304  0.9109 -0.0626
   67MOL   C14714799   1.321   7.792   2.670  0.2873  0.1276  0.2769
   67MOL   O14814800   1.425   7.830   2.606  0.0698  0.3052  0.3497
   67MOL   C14914801   1.187   0.002   2.663 -0.4210  0.5475 -0.0218
   67MOL   H15014802   1.149   7.705   2.879 -1.2231 -2.6918 -1.3449
   67MOL   H15114803   1.232   7.571   2.937 -0.6830  0.6145  1.2011
   67MOL   H15214804   1.246   7.599   2.693  1.6726 -0.3177 -1.1141
   67MOL   H15314805   1.154   0.058   2.750  0.4227 -0.5790  1.0459
   67MOL   H15414806   1.181   0.072   2.579  0.2494  0.8877  0.2095
   67MOL   H15514807   1.101   7.795   2.645 -1.2613  2.6678 -4.2127
   67MOL   C15614808   1.464   7.587   2.752  0.2079  0.3025 -0.2177
   67MOL   C15714809   1.521   7.526   2.616  0.3481  0.1375  0.3398
   67MOL   C15814810   1.415   7.434   2.548 -0.1790  0.0619  0.3368
   67MOL   O15914811   1.394   7.313   2.580 -0.2855 -0.3463  0.3497
   67MOL   C16014812   1.354   7.496   2.426  0.2472  0.0384  0.5665
   67MOL   H16114813   1.537   7.645   2.808  1.7865 -0.8648 -1.0320
   67MOL   H16214814   1.461   7.497   2.813 -1.4405  0.3611 -0.1685
   67MOL   H16314815   1.534   7.611   2.549 -1.2561  0.5630  0.5652
   67MOL   H16414816   1.245   7.486   2.434  0.1770  1.0707  1.0902
   67MOL   H16514817   1.387   7.445   2.336  0.0438 -0.8231  0.9780
   67MOL   H16614818   1.366   7.602   2.403  1.1862 -0.2381 -0.2169
   67MOL   C16714819   1.659   7.476   2.639  0.0462  0.1446  0.0017
   67MOL   C16814820   1.768   7.585   2.649 -0.4665  0.7611  0.1438
   67MOL   C16914821   1.804   7.647   2.514  0.8817  0.4970 -0.0740
   67MOL   O17014822   1.840   7.574   2.420 -0.0211  0.1306 -0.5101
   67MOL   C17114823   1.796   7.799   2.511  0.7808  0.6399  0.1291
   67MOL   H17214824   1.644   7.421   2.731  0.7913  1.2454  0.8025
   67MOL   H17314825   1.697   7.403   2.568  0.0341 -0.9625  1.1162
   67MOL   H17414826   1.725   7.656   2.719  1.9548  1.4897  0.9395
   67MOL   H17514827   1.696   7.815   2.470  0.8864  0.3620 -0.2499
   67MOL   H17614828   1.856   7.844   2.432  0.4660 -0.4272 -0.7323
   67MOL   H17714829   1.829   7.841   2.605 -0.3231 -1.9622  1.7471
   67MOL   C17814830   1.891   7.524   2.721  0.4032  0.1026  0.2310
   67MOL   C17914831   2.030   7.593   2.730 -0.3572 -0.3807 -0.1474
   67MOL   C18014832   2.141   7.501   2.754  0.4324  0.1361 -0.2329
   67MOL   O18114833   2.248   7.518   2.703 -0.3217 -0.0722  0.0109
   67MOL   C18214834   2.118   7.374   2.842  0.0094  0.2958  0.4912
   67MOL   H18314835   1.846   7.497   2.817 -0.1403 -2.9883 -0.8172
   67MOL   H18414836   1.903   7.430   2.667  0.1267  0.5679 -0.6632
   67MOL   H18514837   2.057   7.640   2.636 -0.7425 -1.3312 -0.7318
   67MOL   H18614838   2.192   7.353   2.919  0.2829 -0.5570 -0.0031
   67MOL   H18714839   2.112   7.281   2.786 -1.0792  0.6709 -0.0238
   67MOL   H18814840   2.020   7.383   2.889 -0.3232 -0.5237 -0.0297
   67MOL   C18914841   2.030   7.701   2.838  0.1038  0.7159 -0.2386
   67MOL   C19014842   2.146   7.807   2.845  0.8025 -0.1037 -0.0495
   67MOL   C19114843   2.180   0.014   2.709 -0.5489 -0.4400  0.4036
   67MOL   O19214844   2.120   0.005   2.603  0.3767  0.0829 -0.0717
   67MOL   C19314845   2.294   0.117   2.698 -0.1760  0.6266  0.4385
   67MOL   H19414846   1.934   7.748   2.818 -0.6009 -0.0335  1.2789
   67MOL   H19514847   2.033   7.657   2.937  1.7602 -1.2028 -1.1068
   67MOL   H19614848   2.237   7.774   2.896  0.8830  0.0803 -0.0731
   67MOL   H19714849   2.305   0.183   2.784 -2.2989 -0.4688  1.5903
   67MOL   H19814850   2.392   0.079   2.670 -0.1878 -0.5286  1.8796
   67MOL   H19914851   2.267   0.186   2.619 -0.1757 -0.9716 -0.9782
   67MOL   C20014852   2.099   0.067   2.937  0.1311  0.0043 -0.5382
   67MOL   C20114853   2.081   0.046   3.095  0.0923 -0.2929  0.6011
   67MOL   C20214854   1.932   0.015   3.124  0.0746  0.1477 -0.2332
   67MOL   O20314855   1.845   0.097   3.102  0.0564  0.2000  0.3356
   67MOL   C20414856   1.895   7.732   3.175  0.0205 -0.4590 -0.5279
   67MOL   H20514857   2.164   0.150   2.908 -0.8609  0.1173 -2.5806
   67MOL   H20614858   2.006   0.113   2.902 -0.4036 -0.2994  0.4722
   67MOL   H20714859   2.135   7.811   3.111 -0.2167 -0.8822 -1.5363
   67MOL   H20814860   1.843   7.678   3.095  1.0532 -1.6634 -0.3986
   67MOL   H20914861   1.983   7.688   3.221 -0.1413  0.1366  0.3687
   67MOL   H21014862   1.825   7.744   3.258 -0.8746  0.1175 -1.3582
   67MOL   C21114863   2.131   0.165   3.167 -0.0491 -0.3646  1.0493
   67MOL   C21214864   2.118   0.165   3.315  0.3031  0.2967  0.3633
   67MOL   C21314865   2.205   0.061   3.393 -1.0548 -0.2578 -0.5174
   67MOL   O21414866   2.328   0.069   3.397  0.2384  0.7803  1.0146
   67MOL   C21514867   2.132   7.808   3.463 -0.2490 -0.0350 -0.1652
   67MOL   H21614868   2.233   0.185   3.134 -0.0220 -1.5407  0.3730
   67MOL   H21714869   2.069   0.246   3.128  1.0450  0.6861  1.4468
   67MOL   H21814870   2.012   0.159   3.337  0.4035 -1.7749  0.3825
   67MOL   H21914871   2.044   7.776   3.406  1.2187 -1.6136 -1.5917
   67MOL   H22014872   2.199   7.723   3.469  2.3043  2.0351  1.8256
   67MOL   H22114873   2.103   7.825   3.566  0.7456 -2.7517  0.6045
   67MOL   H22214874   2.164   0.260   3.343  2.7114 -0.8972  0.6564
   68MOL     C114875   6.430   6.115   4.335 -0.7311 -0.1770  0.7344
   68MOL     C214876   6.345   6.038   4.230  0.0534  0.4511  0.4119
   68MOL     C314877   6.386   6.091   4.090  0.7360  0.4065 -0.4787
   68MOL     O414878   6.480   6.040   4.030  0.0756  0.3245  0.3684
   68MOL     C514879   6.306   6.213   4.047  0.2790 -0.0581 -0.1657
   68MOL     H614880   6.457   6.216   4.304  2.1952 -1.5012 -1.2529
   68MOL     H714881   6.529   6.070   4.346  0.5144  1.2993 -3.6016
   68MOL     H814882   6.240   6.059   4.247 -0.1299  2.0935 -2.4236
   68MOL     H914883   6.352   6.270   3.967 -1.8879  2.7640  0.5093
   68MOL    H1014884   6.213   6.172   4.009  0.9068 -0.4050 -1.3665
   68MOL    H1114885   6.293   6.271   4.139 -0.2783 -1.5878  0.7461
   68MOL    H1214886   6.390   6.120   4.436  0.5050 -1.6591  1.3194
   68MOL    C1314887   6.354   5.885   4.244 -0.0909 -0.2107  0.7216
   68MOL    C1414888   6.270   5.801   4.137  0.2188 -0.6306 -0.7343
   68MOL    C1514889   6.121   5.816   4.168 -0.5976 -0.1801 -0.1268
   68MOL    O1614890   6.074   5.870   4.271 -0.0621  0.0948  0.0287
   68MOL    C1714891   6.019   5.770   4.062  0.2813  0.3208 -0.0845
   68MOL    H1814892   6.460   5.858   4.240 -0.6264 -2.3262  0.0470
   68MOL    H1914893   6.319   5.849   4.341  0.1688 -0.2442  0.8031
   68MOL    H2014894   6.280   5.834   4.034  0.7892  0.5705 -0.3031
   68MOL    H2114895   6.070   5.678   4.036 -1.9808 -0.5411 -1.6029
   68MOL    H2214896   5.919   5.750   4.101  0.6583 -1.8143 -0.1786
   68MOL    H2314897   6.007   5.828   3.971  0.9556  0.3826 -0.1356
   68MOL    C2414898   6.310   5.647   4.136 -0.2984 -0.6843 -0.2096
   68MOL    C2514899   6.387   5.593   4.016 -0.3696  0.6687  0.4110
   68MOL    C2614900   6.538   5.604   4.039  0.0201  0.4160 -0.0033
   68MOL    O2714901   6.594   5.524   4.107 -0.2996  0.4281 -0.4082
   68MOL    C2814902   6.612   5.723   3.988  0.2953  0.0362  0.3353
   68MOL    H2914903   6.366   5.628   4.228 -1.5137 -0.7834  0.5219
   68MOL    H3014904   6.224   5.582   4.135 -0.1054 -0.9376 -2.4190
   68MOL    H3114905   6.371   5.651   3.925  1.8198 -0.5676 -0.7966
   68MOL    H3214906   6.547   5.810   3.996 -2.7747 -1.9909 -1.2365
   68MOL    H3314907   6.712   5.731   4.031  0.8794 -1.7744 -0.6436
   68MOL    H3414908   6.628   5.718   3.880  0.0084 -0.6031  0.3200
   68MOL    C3514909   6.355   5.437   3.997 -0.8236 -0.2126 -0.2079
   68MOL    C3614910   6.218   5.411   3.921 -0.2678 -0.2823 -0.5936
   68MOL    C3714911   6.228   5.470   3.783 -0.1913  0.3257  0.2312
   68MOL    O3814912   6.282   5.408   3.693  0.4506 -0.1569  0.1965
   68MOL    C3914913   6.161   5.603   3.758 -0.8678 -0.0753 -0.4129
   68MOL    H4014914   6.356   5.377   4.088  0.8282 -0.0071 -0.0752
   68MOL    H4114915   6.436   5.404   3.932  0.6443  3.5172 -0.3465
   68MOL    H4214916   6.137   5.453   3.980  0.3669  0.8985 -0.5601
   68MOL    H4314917   6.132   5.642   3.856 -0.8540  1.5272 -1.0234
   68MOL    H4414918   6.085   5.600   3.680 -1.0900 -0.5750 -0.1748
   68MOL    H4514919   6.228   5.683   3.724 -0.3994 -1.2729 -2.3706
   68MOL    C4614920   6.190   5.260   3.922  0.1926 -0.1566  0.4927
   68MOL    C4714921   6.054   5.221   3.854 -0.6033  0.5658  0.6188
   68MOL    C4814922   6.058   5.070   3.817 -0.0423 -0.5509  0.3624
   68MOL    O4914923   6.025   4.980   3.891  0.1613 -0.6874 -1.1768
   68MOL    C5014924   6.082   5.037   3.668 -0.2895  0.2464  0.3869
   68MOL    H5114925   6.208   5.215   4.019  1.7107 -0.1919  0.2019
   68MOL    H5214926   6.276   5.216   3.872  0.4937 -2.4749  2.9445
   68MOL    H5314927   6.047   5.269   3.757  0.1741 -0.7152 -0.0887
   68MOL    H5414928   6.098   4.930   3.657  2.2876  0.6933 -0.5924
   68MOL    H5514929   5.994   5.060   3.607  1.0018 -1.6328 -2.3157
   68MOL    H5614930   6.169   5.097   3.642 -1.3822  0.9598 -1.7349
   68MOL    C5714931   5.936   5.256   3.948 -0.1709 -0.1618 -0.3852
   68MOL    C5814932   5.791   5.213   3.917  0.0731 -0.2088  0.3656
   68MOL    C5914933   5.709   5.214   4.045  0.2701 -0.2869 -0.2316
   68MOL    O6014934   5.740   5.283   4.144 -0.4315 -0.0226 -0.3530
   68MOL    C6114935   5.585   5.119   4.047  0.4672 -0.1569 -0.0403
   68MOL    H6214936   5.938   5.364   3.965 -1.0019 -0.2212  0.1210
   68MOL    H6314937   5.974   5.217   4.043  0.4969 -0.9142 -0.9547
   68MOL    H6414938   5.800   5.107   3.894 -1.6912 -0.3187  0.0969
   68MOL    H6514939   5.624   5.025   4.086 -0.4725 -0.0593  1.1987
   68MOL    H6614940   5.520   5.165   4.122  0.3208  0.2948 -0.4487
   68MOL    H6714941   5.544   5.088   3.951 -0.9497  0.7870  0.2334
   68MOL    C6814942   5.725   5.296   3.798 -0.6916  0.6964  0.4566
   68MOL    C6914943   5.707   5.453   3.807  0.6693  0.2129  0.2449
   68MOL    C7014944   5.581   5.486   3.884  1.0307 -0.2654  0.1706
   68MOL    O7114945   5.481   5.431   3.855  0.0946 -0.0023  0.7134
   68MOL    C7214946   5.596   5.570   4.005 -0.8982 -0.2376  0.7678
   68MOL    H7314947   5.806   5.275   3.729  0.2222 -2.1073  2.3144
   68MOL    H7414948   5.637   5.248   3.755  1.0490  0.5989 -3.1197
   68MOL    H7514949   5.793   5.478   3.869 -0.3543  0.3877  1.6364
   68MOL    H7614950   5.617   5.526   4.103 -1.1861 -1.6578  0.2145
   68MOL    H7714951   5.684   5.632   3.986 -0.2786 -1.0684  0.8779
   68MOL    H7814952   5.521   5.648   4.011  0.4522  1.0466  1.3805
   68MOL    C7914953   5.711   5.517   3.663 -0.2869  0.7211  0.4581
   68MOL    C8014954   5.703   5.673   3.619 -0.0679 -0.5513  0.1158
   68MOL    C8114955   5.809   5.755   3.698 -0.1571  0.3184  0.0821
   68MOL    O8214956   5.847   5.711   3.803  0.0070 -0.4041 -0.1506
   68MOL    C8314957   5.865   5.898   3.660  0.5481  0.3166 -0.5097
   68MOL    H8414958   5.640   5.466   3.599 -0.0807 -1.4018  1.8601
   68MOL    H8514959   5.806   5.492   3.615  0.0661  0.1559  1.4442
   68MOL    H8614960   5.733   5.686   3.515  0.1157  1.4955  0.4090
   68MOL    H8714961   5.880   5.972   3.739  1.7229  0.9373 -1.2990
   68MOL    H8814962   5.800   5.949   3.589 -1.2983  0.9134  1.5782
   68MOL    H8914963   5.965   5.875   3.623  0.4553 -1.1362  0.0929
   68MOL    C9014964   5.561   5.733   3.652 -0.4576 -0.5533 -0.6850
   68MOL    C9114965   5.521   5.851   3.560  0.6614 -0.4788 -0.0325
   68MOL    C9214966   5.502   5.813   3.407  0.5126 -0.9914  0.8048
   68MOL    O9314967   5.574   5.874   3.326  0.0038  0.6053 -0.0806
   68MOL    C9414968   5.393   5.720   3.363  0.4258  0.6458  0.2360
   68MOL    H9514969   5.492   5.649   3.643  2.1007 -2.5449 -2.3285
   68MOL    H9614970   5.574   5.780   3.750 -0.6917  0.2091 -1.0140
   68MOL    H9714971   5.612   5.913   3.561  0.1605  0.2640  0.0237
   68MOL    H9814972   5.354   5.758   3.269  0.4372 -0.5827 -0.2756
   68MOL    H9914973   5.439   5.623   3.344 -1.9505 -0.2204 -1.3204
   68MOL   H10014974   5.311   5.716   3.435 -0.3009  0.5115 -0.6014
   68MOL   C10114975   5.394   5.929   3.612  1.1632 -0.3997  0.4693
   68MOL   C10214976   5.377   6.066   3.534  0.2288  0.0018  0.3606
   68MOL   C10314977   5.502   6.154   3.545 -0.2838  0.2080 -0.1307
   68MOL   O10414978   5.535   6.212   3.647  0.0062  0.0501 -0.3626
   68MOL   C10514979   5.584   6.169   3.421  0.3010 -0.0934  0.3827
   68MOL   H10614980   5.304   5.868   3.619 -1.3198  3.0747 -0.3607
   68MOL   H10714981   5.408   5.950   3.717  4.9121  0.0243 -0.0462
   68MOL   H10814982   5.373   6.043   3.427 -0.3148 -0.3783  0.4585
   68MOL   H10914983   5.616   6.079   3.370 -3.5225 -0.8093 -0.9277
   68MOL   H11014984   5.538   6.235   3.347 -1.5935 -1.9554 -0.1461
   68MOL   H11114985   5.671   6.226   3.453 -0.4442  0.6517  1.1201
   68MOL   C11214986   5.248   6.143   3.565 -0.0614  0.3607 -0.1292
   68MOL   C11314987   5.180   6.205   3.449  0.0107 -0.4787 -0.5492
   68MOL   C11414988   5.275   6.290   3.362 -0.3259  0.3182  0.0473
   68MOL   O11514989   5.326   6.400   3.394  0.0753  0.1288  0.1831
   68MOL   C11614990   5.299   6.233   3.222 -0.0120 -0.4491 -0.1318
   68MOL   H11714991   5.266   6.218   3.642 -1.5942  1.4865 -0.8340
   68MOL   H11814992   5.171   6.070   3.590  0.1004  0.0883 -0.4222
   68MOL   H11914993   5.133   6.127   3.389 -2.3541 -0.8531  1.6701
   68MOL   H12014994   5.213   6.256   3.159  0.3729 -1.4194 -1.0231
   68MOL   H12114995   5.396   6.259   3.179  0.2108  0.5767  0.9582
   68MOL   H12214996   5.303   6.125   3.234 -1.2998 -0.3195  1.7240
   68MOL   C12314997   5.064   6.300   3.500 -0.1735  0.0049  0.1233
   68MOL   C12414998   4.988   6.376   3.389 -0.3661  0.6782 -0.9017
   68MOL   C12514999   4.954   6.520   3.422 -0.4906 -0.4714  0.5990
   68MOL   O12615000   4.850   6.558   3.466  0.3393  0.1168  0.2058
   68MOL   C12715001   5.079   6.617   3.412  0.0128  0.2508 -0.7893
   68MOL   H12815002   5.106   6.365   3.577  1.4702 -2.1543  1.0939
   68MOL   H12915003   4.992   6.239   3.555 -1.1410  1.0892  0.1005
   68MOL   H13015004   5.040   6.392   3.295  1.1498  0.3433 -0.1386
   68MOL   H13115005   5.055   6.723   3.400  0.3000  0.2737 -1.1444
   68MOL   H13215006   5.159   6.575   3.352 -0.7810 -1.7669 -0.4890
   68MOL   H13315007   5.122   6.620   3.512 -0.1859 -1.5261 -0.6370
   68MOL   C13415008   4.860   6.284   3.356 -0.5502  0.2322 -0.4542
   68MOL   C13515009   4.775   6.328   3.238  0.1052 -0.2940  0.5051
   68MOL   C13615010   4.852   6.290   3.108  0.4985  0.1735 -0.5292
   68MOL   O13715011   4.936   6.199   3.105 -0.6022  0.4084  0.1203
   68MOL   C13815012   4.814   6.368   2.983 -0.8266  0.2553 -0.6430
   68MOL   H13915013   4.796   6.276   3.444  0.7214 -0.2998  0.4483
   68MOL   H14015014   4.888   6.181   3.334 -0.1932  0.4125 -0.8537
   68MOL   H14115015   4.763   6.436   3.246 -0.1760  0.1031 -3.7747
   68MOL   H14215016   4.898   6.430   2.953 -0.4865 -0.7398 -1.7604
   68MOL   H14315017   4.729   6.431   3.009 -0.5116 -0.4332  2.2800
   68MOL   H14415018   4.803   6.303   2.896  0.8886  1.7685 -2.0163
   68MOL   C14515019   4.633   6.265   3.239 -0.6029  0.5722  0.6788
   68MOL   C14615020   4.526   6.316   3.138  0.1053  0.0172 -0.9028
   68MOL   C14715021   4.405   6.222   3.136  0.6888 -0.2982  0.0306
   68MOL   O14815022   4.312   6.226   3.217  0.0569  0.4664  0.2408
   68MOL   C14915023   4.402   6.114   3.033  0.3712  0.3482  0.0802
   68MOL   H15015024   4.604   6.272   3.344 -2.4710  1.8293  0.1059
   68MOL   H15115025   4.647   6.158   3.225 -0.8583  0.8681 -2.1728
   68MOL   H15215026   4.560   6.315   3.034 -0.2660 -2.2900 -1.0195
   68MOL   H15315027   4.409   6.174   2.942 -2.0358  0.3359 -0.1624
   68MOL   H15415028   4.481   6.040   3.034  0.9046  0.8875 -0.8598
   68MOL   H15515029   4.304   6.066   3.027  1.2557 -1.2447 -2.4633
   68MOL   C15615030   4.496   6.471   3.156  0.0284 -0.7114  0.3803
   68MOL   C15715031   4.354   6.517   3.097 -0.8138  0.4733  0.8391
   68MOL   C15815032   4.372   6.530   2.946 -0.1967 -0.0094 -0.2306
   68MOL   O15915033   4.347   6.436   2.874 -0.8880  0.0769 -0.1793
   68MOL   C16015034   4.445   6.648   2.887 -0.9868 -1.6385  0.2467
   68MOL   H16115035   4.493   6.497   3.262  0.9269  1.2690 -0.0551
   68MOL   H16215036   4.579   6.526   3.112 -2.0977  1.1626 -1.3983
   68MOL   H16315037   4.284   6.434   3.107 -0.8377  0.2277 -1.2636
   68MOL   H16415038   4.365   6.711   2.846  2.1314  1.4556 -1.4104
   68MOL   H16515039   4.510   6.621   2.804 -1.3525 -0.1703 -0.5389
   68MOL   H16615040   4.503   6.707   2.958  2.4509 -2.4793 -1.7708
   68MOL   C16715041   4.306   6.641   3.161 -0.0995 -0.2300 -0.6758
   68MOL   C16815042   4.156   6.614   3.225 -0.2841  0.4705  0.6158
   68MOL   C16915043   4.147   6.512   3.335  0.3768 -0.3926 -0.6618
   68MOL   O17015044   4.036   6.460   3.359 -0.0829  0.5609 -0.5334
   68MOL   C17115045   4.260   6.507   3.440 -0.1464  0.0908  0.3019
   68MOL   H17215046   4.366   6.672   3.247 -0.6323  0.8233 -0.6679
   68MOL   H17315047   4.298   6.728   3.095  0.3593 -0.2521 -0.7576
   68MOL   H17415048   4.122   6.704   3.277  2.5245  0.8519  1.9039
   68MOL   H17515049   4.243   6.594   3.504 -1.2961  1.8292 -2.2807
   68MOL   H17615050   4.354   6.507   3.385 -0.3384 -0.4538 -0.0291
   68MOL   H17715051   4.260   6.411   3.491 -1.3319  0.1023  0.3269
   68MOL   C17815052   4.055   6.586   3.118 -1.0574 -1.3393  0.2954
   68MOL   C17915053   4.031   6.681   2.999 -0.1077  0.1203  1.2922
   68MOL   C18015054   3.974   6.817   3.048  0.3458 -0.7520  0.3689
   68MOL   O18115055   4.046   6.890   3.113 -1.2609 -0.7688 -0.1722
   68MOL   C18215056   3.823   6.848   3.039  0.0119 -0.2301 -0.0811
   68MOL   H18315057   4.088   6.493   3.071  0.4460  0.0389 -1.3988
   68MOL   H18415058   3.956   6.572   3.162 -2.4920  0.3742 -2.2784
   68MOL   H18515059   4.133   6.690   2.960 -0.6114 -0.5878 -0.2371
   68MOL   H18615060   3.803   6.939   2.983 -1.4579  0.0945  0.9326
   68MOL   H18715061   3.784   6.850   3.141 -0.4989 -0.5335 -0.2683
   68MOL   H18815062   3.761   6.767   3.002 -1.9007  1.0405  0.2553
   68MOL   C18915063   3.955   6.619   2.880  0.0252 -0.1884 -0.9162
   68MOL   C19015064   3.934   6.696   2.750  0.0661 -0.1783  0.1103
   68MOL   C19115065   4.076   6.726   2.695  0.2588  0.4164  0.1146
   68MOL   O19215066   4.162   6.645   2.710 -0.7350  0.2013 -0.6149
   68MOL   C19315067   4.113   6.852   2.631 -0.0905 -0.7638  0.1270
   68MOL   H19415068   3.982   6.517   2.854 -1.0743 -0.1244 -2.3654
   68MOL   H19515069   3.860   6.598   2.931  1.3111 -0.6732  1.3457
   68MOL   H19615070   3.892   6.796   2.763  1.5087  0.3406  0.9758
   68MOL   H19715071   4.073   6.936   2.687  0.7423  0.2306 -0.7696
   68MOL   H19815072   4.221   6.855   2.639 -0.1672  0.9792  0.6112
   68MOL   H19915073   4.082   6.870   2.528 -1.3397  1.9288  0.9206
   68MOL   C20015074   3.834   6.623   2.664  0.2098  0.2656 -0.1155
   68MOL   C20115075   3.763   6.715   2.558  0.6097  0.2566 -0.1176
   68MOL   C20215076   3.690   6.837   2.616  0.4821  0.2663  0.2312
   68MOL   O20315077   3.629   6.830   2.725 -0.9874  0.2261  0.1085
   68MOL   C20415078   3.690   6.971   2.535  0.6665 -0.4899  0.1253
   68MOL   H20515079   3.886   6.540   2.615 -0.2285 -0.7128  1.0472
   68MOL   H20615080   3.760   6.578   2.730  0.7745  0.5577  0.7092
   68MOL   H20715081   3.832   6.740   2.478 -1.9255  0.0125 -2.4729
   68MOL   H20815082   3.794   6.995   2.510  1.1386 -1.9428  0.6230
   68MOL   H20915083   3.631   6.958   2.444  0.6043 -2.6158  0.4363
   68MOL   H21015084   3.646   7.054   2.590  0.7909 -1.2566  1.3896
   68MOL   C21115085   3.657   6.632   2.475  0.0124 -0.1411  0.0230
   68MOL   C21215086   3.663   6.667   2.326 -0.0470 -0.1435 -0.2756
   68MOL   C21315087   3.595   6.563   2.239 -0.9261 -0.1790  0.3682
   68MOL   O21415088   3.582   6.442   2.274 -1.1271 -0.5963 -0.2970
   68MOL   C21515089   3.542   6.622   2.102  1.1202 -0.6102 -0.3654
   68MOL   H21615090   3.685   6.527   2.483  2.3865  0.4791  0.4068
   68MOL   H21715091   3.561   6.653   2.521  0.4511  0.2095  0.7830
   68MOL   H21815092   3.756   6.696   2.276 -0.6799  0.7639 -0.9509
   68MOL   H21915093   3.446   6.670   2.118  1.3897  0.3695 -1.5514
   68MOL   H22015094   3.616   6.699   2.076  2.7500 -1.2966  2.1064
   68MOL   H22115095   3.529   6.535   2.038 -0.2980 -1.3026  0.8429
   68MOL   H22215096   3.600   6.756   2.318 -0.9612 -0.6604  1.0309
   69MOL     C115097   0.092   5.488   0.822  0.4321 -0.1431 -0.1606
   69MOL     C215098   0.213   5.584   0.837  0.6854  0.6781  0.4873
   69MOL     C315099   0.335   5.527   0.768  0.1632 -0.0537 -0.0772
   69MOL     O415100   0.402   5.594   0.685  0.1660  0.3651 -0.2871
   69MOL     C515101   0.383   5.387   0.808 -0.1805 -0.4315 -0.0999
   69MOL     H615102   0.054   5.489   0.719 -1.3095 -1.0812  0.4548
   69MOL     H715103   0.003   5.509   0.882  0.1218  0.6799 -0.8979
   69MOL     H815104   0.229   5.574   0.945 -1.0692 -0.9835  0.6226
   69MOL     H915105   0.458   5.388   0.887 -0.3928 -1.3586  0.1222
   69MOL    H1015106   0.306   5.312   0.824 -1.0701  0.7144  1.0822
   69MOL    H1115107   0.436   5.348   0.721  0.5648 -2.6682  1.2892
   69MOL    H1215108   0.122   5.393   0.865 -0.1914  0.1554  0.9546
   69MOL    C1315109   0.193   5.736   0.815 -0.0487 -0.4685  0.0300
   69MOL    C1415110   0.136   5.780   0.675 -0.0334 -0.7309 -0.2777
   69MOL    C1515111   0.199   5.918   0.644 -0.0200  0.1800  0.6633
   69MOL    O1615112   0.145   6.028   0.671  0.1738  0.8854  0.2154
   69MOL    C1715113   0.335   5.913   0.594 -0.5816 -0.3262 -0.5173
   69MOL    H1815114   0.141   5.788   0.896 -1.2091  1.0410 -1.6425
   69MOL    H1915115   0.291   5.775   0.841 -1.1712  1.8147  0.9855
   69MOL    H2015116   0.182   5.703   0.613  0.1028  0.1836 -1.3197
   69MOL    H2115117   0.401   5.868   0.668 -0.3449  2.5554  1.1187
   69MOL    H2215118   0.354   5.866   0.498  2.7280  1.5150 -0.8307
   69MOL    H2315119   0.370   6.015   0.577  2.4571 -0.9877  1.4123
   69MOL    C2415120   7.837   5.783   0.678  0.1418 -0.1093 -0.2951
   69MOL    C2515121   7.774   5.835   0.549 -0.8270  0.0219 -0.6628
   69MOL    C2615122   7.791   5.739   0.433 -0.3239 -0.2546 -0.3795
   69MOL    O2715123   7.816   5.617   0.442  0.2155 -0.7490  0.1708
   69MOL    C2815124   7.764   5.792   0.290 -0.1031 -0.1429  0.6820
   69MOL    H2915125   7.792   5.689   0.710 -1.1576  0.7033  0.2723
   69MOL    H3015126   7.805   5.844   0.762 -0.9099  1.2703 -1.6668
   69MOL    H3115127   7.827   5.925   0.519  0.2545  0.2311  1.7929
   69MOL    H3215128   7.668   5.758   0.251  1.1801 -0.9719 -1.8707
   69MOL    H3315129   7.754   5.900   0.298 -1.2998 -0.2626  0.8809
   69MOL    H3415130   7.845   5.773   0.219 -1.8399  0.8787 -1.6303
   69MOL    C3515131   7.627   5.880   0.574 -0.4204 -0.0301 -0.0864
   69MOL    C3615132   7.608   6.015   0.640  0.9631 -0.5017 -0.5036
   69MOL    C3715133   7.629   6.129   0.537  0.3677 -0.0990 -0.3757
   69MOL    O3815134   7.618   6.109   0.419  0.0269  0.3090  0.0793
   69MOL    C3915135   7.647   6.271   0.594 -0.2216 -0.2444  0.3538
   69MOL    H4015136   7.579   5.809   0.641  0.2590  2.1251  2.7924
   69MOL    H4115137   7.556   5.874   0.492 -1.7078  0.2120  0.9871
   69MOL    H4215138   7.685   6.020   0.717  0.6540 -2.4336 -0.0457
   69MOL    H4315139   7.623   6.268   0.700 -1.7075 -2.3088 -0.0017
   69MOL    H4415140   7.585   6.341   0.539  0.4866 -1.5498 -2.1642
   69MOL    H4515141   7.753   6.289   0.572 -0.6862  0.1436 -1.6387
   69MOL    C4615142   7.471   6.031   0.703 -0.8221  0.2062 -0.1147
   69MOL    C4715143   7.456   5.964   0.843  0.3212 -0.0278  0.3111
   69MOL    C4815144   7.482   6.064   0.955  0.1790  0.0567 -0.4044
   69MOL    O4915145   7.385   6.117   1.016  0.0882 -0.1797  0.5183
   69MOL    C5015146   7.622   6.104   0.989 -0.1220 -0.1928 -0.7027
   69MOL    H5115147   7.396   6.002   0.628 -2.3222  0.5758  1.2136
   69MOL    H5215148   7.447   6.137   0.714 -1.1027  0.3115 -1.6320
   69MOL    H5315149   7.529   5.883   0.841 -0.4044 -0.6949  0.4855
   69MOL    H5415150   7.684   6.054   0.915  1.5118 -1.0652  1.2194
   69MOL    H5515151   7.653   6.204   0.959 -1.8715  0.2720 -1.0576
   69MOL    H5615152   7.652   6.072   1.088  1.6642  1.2029 -0.7691
   69MOL    C5715153   7.316   5.898   0.842  0.4109 -0.2259 -0.0829
   69MOL    C5815154   7.273   5.804   0.958  0.2659 -0.2166 -0.2154
   69MOL    C5915155   7.127   5.835   1.007 -0.1353 -0.6256 -0.5741
   69MOL    O6015156   7.031   5.766   0.969 -0.5106 -0.1136 -0.1039
   69MOL    C6115157   7.103   5.943   1.111  0.1135  0.7693 -0.0665
   69MOL    H6215158   7.297   5.848   0.748  0.8468  0.1446 -0.3689
   69MOL    H6315159   7.252   5.987   0.848 -0.5773 -0.8630 -1.1214
   69MOL    H6415160   7.342   5.811   1.042  1.0708  0.1744 -0.9123
   69MOL    H6515161   6.998   5.937   1.140  0.4430 -1.9324  0.7185
   69MOL    H6615162   7.159   5.918   1.201  0.5722  1.6398 -0.1028
   69MOL    H6715163   7.127   6.045   1.082 -0.3570  1.2196  1.1346
   69MOL    C6815164   7.294   5.661   0.911 -0.6811  0.1330  0.1900
   69MOL    C6915165   7.293   5.548   1.023 -0.0341 -0.0696 -0.4112
   69MOL    C7015166   7.428   5.474   1.000  0.0144 -0.4764 -0.8822
   69MOL    O7115167   7.438   5.370   0.936  0.2757  0.2124 -0.4657
   69MOL    C7215168   7.547   5.542   1.061  0.4505 -0.1633 -0.7520
   69MOL    H7315169   7.220   5.639   0.834  0.6559  1.2546 -1.4387
   69MOL    H7415170   7.390   5.663   0.861 -0.7901 -0.5454 -0.0537
   69MOL    H7515171   7.309   5.587   1.124  2.3686  2.1107 -1.5544
   69MOL    H7615172   7.618   5.461   1.081 -0.2624  0.1729  3.6178
   69MOL    H7715173   7.590   5.619   0.997 -0.3576  1.8277  1.0487
   69MOL    H7815174   7.528   5.594   1.155  2.1283  2.0054 -1.5552
   69MOL    C7915175   7.172   5.455   1.022 -0.2043 -0.0490  0.9081
   69MOL    C8015176   7.187   5.339   1.137  0.5657 -0.3045  0.3738
   69MOL    C8115177   7.106   5.216   1.104 -0.3483 -0.2831  0.7706
   69MOL    O8215178   7.163   5.108   1.115  0.4237  0.3924 -0.2837
   69MOL    C8315179   6.963   5.221   1.056 -0.1552 -0.0092 -0.8341
   69MOL    H8415180   7.163   5.407   0.925 -0.3617  2.7593 -0.5085
   69MOL    H8515181   7.082   5.513   1.043 -0.5520  0.1734 -1.1338
   69MOL    H8615182   7.284   5.291   1.129  1.3113  1.1383  0.6152
   69MOL    H8715183   6.955   5.166   0.962  0.6051 -1.4870 -0.0602
   69MOL    H8815184   6.933   5.325   1.043  2.0376  0.5477 -1.5583
   69MOL    H8915185   6.889   5.168   1.117  0.4504  1.2794  1.0691
   69MOL    C9015186   7.145   5.387   1.279  0.3922  0.4205  0.7971
   69MOL    C9115187   7.190   5.301   1.401 -0.8789  0.1775  0.1896
   69MOL    C9215188   7.345   5.292   1.428 -0.8597  0.2197 -0.6105
   69MOL    O9315189   7.430   5.350   1.353 -0.6770 -0.2273 -0.0675
   69MOL    C9415190   7.395   5.208   1.542 -0.0307 -0.0768 -0.0417
   69MOL    H9515191   7.200   5.480   1.292  0.9392 -0.0901  2.2743
   69MOL    H9615192   7.039   5.407   1.287  0.3353  0.2124  0.5985
   69MOL    H9715193   7.151   5.200   1.386 -0.2309 -0.0391 -0.0501
   69MOL    H9815194   7.461   5.262   1.610  0.1576  0.2693 -0.4982
   69MOL    H9915195   7.312   5.164   1.596 -1.3077 -0.9415 -2.6374
   69MOL   H10015196   7.450   5.120   1.510 -0.2256 -0.2609  0.1250
   69MOL   C10115197   7.134   5.355   1.524  0.6288 -0.4273  0.1993
   69MOL   C10215198   7.033   5.260   1.599  0.4560 -0.2849 -0.0888
   69MOL   C10315199   6.928   5.195   1.517 -0.0120  1.4430  0.4521
   69MOL   O10415200   6.856   5.250   1.434 -0.4648  0.3514  0.3130
   69MOL   C10515201   6.934   5.039   1.511 -0.3328  0.4390 -1.2158
   69MOL   H10615202   7.211   5.375   1.599 -0.3989  1.5470  0.7665
   69MOL   H10715203   7.091   5.455   1.522  0.3875 -0.4624  2.3899
   69MOL   H10815204   7.088   5.179   1.648  0.5195 -0.3023 -0.1894
   69MOL   H10915205   6.836   4.992   1.499 -0.2065 -0.1150 -0.1277
   69MOL   H11015206   6.981   5.005   1.419 -1.1685  1.7320 -2.1556
   69MOL   H11115207   6.982   4.986   1.593 -0.9098 -0.1819 -1.2739
   69MOL   C11215208   6.960   5.327   1.719  1.1974  0.2470 -0.7821
   69MOL   C11315209   7.056   5.359   1.842 -0.2138 -0.2671  0.3763
   69MOL   C11415210   7.115   5.232   1.903 -0.1762 -0.1182  0.7325
   69MOL   O11515211   7.041   5.147   1.950  0.1201 -0.1832 -0.0803
   69MOL   C11615212   7.265   5.238   1.937  0.0485 -0.1123  0.1637
   69MOL   H11715213   6.880   5.265   1.761 -0.1934  1.8403 -1.0350
   69MOL   H11815214   6.922   5.426   1.693 -0.3696 -0.3458 -0.8044
   69MOL   H11915215   7.131   5.423   1.796  1.5324 -1.1845  1.8864
   69MOL   H12015216   7.301   5.137   1.955 -1.4388 -1.4516 -3.7212
   69MOL   H12115217   7.332   5.272   1.858  1.2956  0.7883  1.5907
   69MOL   H12215218   7.276   5.290   2.032 -1.4968 -0.2663  0.4390
   69MOL   C12315219   6.986   5.440   1.952 -0.0854  0.0253 -0.3579
   69MOL   C12415220   7.069   5.499   2.070 -0.0844  0.5937  0.0206
   69MOL   C12515221   6.978   5.547   2.182 -0.8143  0.1275  0.2696
   69MOL   O12615222   6.975   5.661   2.221  0.7532  0.4789 -0.3188
   69MOL   C12715223   6.891   5.439   2.248 -0.2269  0.3589  0.0522
   69MOL   H12815224   6.899   5.384   1.986  0.8018 -0.4894  1.0820
   69MOL   H12915225   6.937   5.526   1.905  1.3651  0.5905 -0.8507
   69MOL   H13015226   7.118   5.410   2.110  2.5216  1.3210 -1.4323
   69MOL   H13115227   6.788   5.452   2.215  0.2060  1.8252 -0.7803
   69MOL   H13215228   6.907   5.446   2.355  0.3958  1.4428 -0.1071
   69MOL   H13315229   6.922   5.337   2.226 -0.4585  0.5126 -1.0326
   69MOL   C13415230   7.170   5.605   2.019  0.3105 -0.3052  0.0841
   69MOL   C13515231   7.281   5.634   2.122 -0.2090 -0.0177 -0.0636
   69MOL   C13615232   7.397   5.534   2.122 -0.7379 -0.0642  0.8464
   69MOL   O13715233   7.438   5.501   2.014  0.0571  0.5150 -0.0908
   69MOL   C13815234   7.453   5.483   2.250  0.1579  0.2111 -0.4136
   69MOL   H13915235   7.127   5.704   2.009 -1.0405 -0.8415  0.4222
   69MOL   H14015236   7.204   5.578   1.919 -2.1091  0.6896 -1.0528
   69MOL   H14115237   7.237   5.626   2.222  1.1633 -1.2800  0.4662
   69MOL   H14215238   7.529   5.545   2.297  1.0914 -1.8280  0.8726
   69MOL   H14315239   7.508   5.389   2.240 -1.7834 -1.2055  1.6067
   69MOL   H14415240   7.374   5.466   2.323 -0.4505  0.8940 -0.9129
   69MOL   C14515241   7.343   5.774   2.095  0.3412 -0.3900  0.1525
   69MOL   C14615242   7.385   5.849   2.220  0.1212  0.5860 -0.9908
   69MOL   C14715243   7.470   5.971   2.191  0.0294 -0.1190  0.4206
   69MOL   O14815244   7.428   6.075   2.140 -0.0059  0.0364  0.1636
   69MOL   C14915245   7.617   5.967   2.220 -0.1778 -0.1457 -0.3533
   69MOL   H15015246   7.284   5.850   2.045 -0.3957  0.7740  2.7401
   69MOL   H15115247   7.425   5.759   2.024  1.2766  0.5052  1.0258
   69MOL   H15215248   7.447   5.775   2.271 -0.5582 -0.5205 -1.7452
   69MOL   H15315249   7.671   6.011   2.136 -1.9209 -0.3223 -1.5977
   69MOL   H15415250   7.640   6.022   2.311 -1.5905 -2.9587  1.7847
   69MOL   H15515251   7.651   5.864   2.232  0.2319 -0.2210 -1.9983
   69MOL   C15615252   7.267   5.885   2.323  0.1085  0.8134  0.1301
   69MOL   C15715253   7.298   5.855   2.470  0.6353  0.4340  0.1283
   69MOL   C15815254   7.397   5.949   2.539 -0.0983 -1.0216  0.1966
   69MOL   O15915255   7.517   5.936   2.528  0.0402 -0.3350  0.0528
   69MOL   C16015256   7.343   6.070   2.617  0.5665 -0.1321  0.5155
   69MOL   H16115257   7.249   5.993   2.317  1.1297  0.9905  0.0547
   69MOL   H16215258   7.179   5.824   2.302  1.5534 -1.3544  0.1986
   69MOL   H16315259   7.202   5.883   2.515  0.3964 -2.3836  1.4761
   69MOL   H16415260   7.260   6.039   2.681 -0.0673  0.8412  0.1795
   69MOL   H16515261   7.300   6.137   2.543  0.5172 -1.1824 -0.4093
   69MOL   H16615262   7.410   6.140   2.668 -0.6113  1.2774  0.1907
   69MOL   C16715263   7.321   5.700   2.505 -0.3329 -0.5372  0.0802
   69MOL   C16815264   7.347   5.666   2.653  0.3509  0.3669 -0.4589
   69MOL   C16915265   7.460   5.569   2.664  0.6766  0.7837 -0.8812
   69MOL   O17015266   7.438   5.446   2.669 -0.3965  0.4800  0.2330
   69MOL   C17115267   7.596   5.628   2.661  0.2929  0.9076 -0.2423
   69MOL   H17215268   7.224   5.662   2.472 -0.5537  0.7709 -0.8152
   69MOL   H17315269   7.394   5.653   2.439  0.7701  0.1352  0.8178
   69MOL   H17415270   7.385   5.755   2.704  1.1394 -1.7706  2.8247
   69MOL   H17515271   7.594   5.702   2.582  1.2837  0.7326 -0.4274
   69MOL   H17615272   7.674   5.560   2.629  0.2564 -0.0305  1.5909
   69MOL   H17715273   7.631   5.676   2.753 -0.3825  1.8583 -0.4740
   69MOL   C17815274   7.221   5.603   2.715 -0.7321 -0.4452 -0.1069
   69MOL   C17915275   7.093   5.685   2.719  0.7427 -0.2686  0.8061
   69MOL   C18015276   7.110   5.824   2.786 -0.6771 -0.0041  0.3878
   69MOL   O18115277   7.186   5.835   2.883 -0.1202 -0.5252 -0.0638
   69MOL   C18215278   7.039   5.940   2.732  0.5703 -0.6046 -0.6541
   69MOL   H18315279   7.190   5.514   2.660 -1.2298 -1.8016  2.2873
   69MOL   H18415280   7.235   5.559   2.813 -1.2465 -0.7439 -0.1616
   69MOL   H18515281   7.065   5.699   2.615  0.5654 -0.9112  0.7636
   69MOL   H18615282   6.932   5.940   2.756  0.9552  1.7951  1.2511
   69MOL   H18715283   7.038   5.936   2.623  1.9182 -0.3613 -0.6829
   69MOL   H18815284   7.080   6.034   2.769 -0.7846 -0.0506 -0.5297
   69MOL   C18915285   6.977   5.599   2.780  0.3327  0.8945  0.7486
   69MOL   C19015286   6.843   5.665   2.770 -0.0873  0.5918  0.0806
   69MOL   C19115287   6.804   5.704   2.623 -0.2678  0.5079  0.0371
   69MOL   O19215288   6.774   5.819   2.594 -0.2407 -0.2988  0.1041
   69MOL   C19315289   6.801   5.597   2.510 -0.6506  0.2033 -0.9118
   69MOL   H19415290   6.980   5.501   2.734  1.5004  0.7182  1.1633
   69MOL   H19515291   6.996   5.570   2.883  0.2930 -1.6938  0.0490
   69MOL   H19615292   6.841   5.763   2.819  0.0464  0.4260  0.4200
   69MOL   H19715293   6.704   5.606   2.462 -1.1848  1.3460  0.3494
   69MOL   H19815294   6.874   5.615   2.432  0.1599 -3.7796 -1.1962
   69MOL   H19915295   6.822   5.500   2.555  1.6759  0.5805 -1.1438
   69MOL   C20015296   6.739   5.560   2.831 -0.1416 -0.0171  0.0207
   69MOL   C20115297   6.587   5.603   2.814 -0.0882  0.3495 -0.2791
   69MOL   C20215298   6.558   5.733   2.894  0.1960 -0.2035 -0.1796
   69MOL   O20315299   6.610   5.747   3.003  0.1618  0.2946 -0.7311
   69MOL   C20415300   6.466   5.837   2.827  1.3168  0.1913 -0.7933
   69MOL   H20515301   6.752   5.460   2.789 -0.5071  0.5064 -1.3648
   69MOL   H20615302   6.757   5.554   2.938  0.6325  0.7979 -0.0546
   69MOL   H20715303   6.576   5.630   2.709 -1.7744  1.0377  0.0593
   69MOL   H20815304   6.504   5.939   2.839 -3.9757  2.2256  0.2374
   69MOL   H20915305   6.464   5.825   2.719 -3.9677 -2.4551 -0.5543
   69MOL   H21015306   6.362   5.825   2.858  0.6657  3.2647 -1.6160
   69MOL   C21115307   6.489   5.484   2.833  0.0510 -0.4800 -0.2515
   69MOL   C21215308   6.338   5.524   2.810  0.5700  0.4616  0.5085
   69MOL   C21315309   6.254   5.404   2.766  0.0671  0.1863 -0.6680
   69MOL   O21415310   6.308   5.298   2.731  0.0845 -0.9425  0.3901
   69MOL   C21515311   6.117   5.399   2.808 -0.2603  0.2788 -0.2039
   69MOL   H21615312   6.520   5.394   2.781 -0.0903 -0.7030  0.0514
   69MOL   H21715313   6.483   5.452   2.937 -0.8674  0.6067  0.0457
   69MOL   H21815314   6.338   5.596   2.728 -1.0808  0.4567  0.4873
   69MOL   H21915315   6.069   5.307   2.773  1.7506 -0.6172 -0.6639
   69MOL   H22015316   6.101   5.386   2.915 -0.9789 -2.0857 -0.5581
   69MOL   H22115317   6.064   5.489   2.777  0.8265  0.4608 -1.6292
   69MOL   H22215318   6.292   5.584   2.887  0.6958  1.1775  0.0334
   70MOL     C115319   7.203   2.183   3.919  0.0634 -0.0905 -0.5855
   70MOL     C215320   7.183   2.078   3.813 -0.0180  0.5153 -1.3671
   70MOL     C315321   7.105   2.127   3.697  0.1021  0.5256 -0.1893
   70MOL     O415322   7.071   2.247   3.686 -0.6276  0.0896  0.3407
   70MOL     C515323   7.069   2.020   3.592 -0.2047 -0.2979  0.2876
   70MOL     H615324   7.105   2.220   3.950  0.9027  1.6364  0.1011
   70MOL     H715325   7.241   2.277   3.879  1.3880 -0.0257  0.7635
   70MOL     H815326   7.116   1.998   3.846  1.1695 -0.5289 -1.4285
   70MOL     H915327   6.974   2.043   3.544 -0.2616  0.2228  0.6437
   70MOL    H1015328   7.146   2.001   3.517 -0.1177  3.0913 -0.5845
   70MOL    H1115329   7.039   1.933   3.650 -0.6159  0.2253  0.8673
   70MOL    H1215330   7.260   2.142   4.003  0.2700 -0.9189 -1.1237
   70MOL    C1315331   7.300   1.991   3.762 -0.2462 -0.1451  0.1213
   70MOL    C1415332   7.411   2.076   3.702  0.0903  0.5712  0.4767
   70MOL    C1515333   7.501   2.014   3.596  0.4288 -0.7200  0.1206
   70MOL    O1615334   7.512   1.894   3.580  0.3530  1.1920  0.2158
   70MOL    C1715335   7.582   2.098   3.492  0.5846 -0.2185  0.3122
   70MOL    H1815336   7.341   1.938   3.848 -0.9329 -0.0089  0.5294
   70MOL    H1915337   7.268   1.914   3.691  2.7597 -0.6160 -0.8181
   70MOL    H2015338   7.356   2.150   3.644 -3.9164 -2.3615  0.3063
   70MOL    H2115339   7.516   2.133   3.412  1.8993  1.4086 -0.0891
   70MOL    H2215340   7.642   2.180   3.532  2.0249 -0.9188 -0.3917
   70MOL    H2315341   7.657   2.037   3.441  0.5916  1.4539 -1.7657
   70MOL    C2415342   7.499   2.150   3.797  0.0454 -0.2698 -0.1243
   70MOL    C2515343   7.604   2.060   3.873 -0.4593  0.0423  0.2042
   70MOL    C2615344   7.743   2.072   3.808  0.5058  0.8866 -0.0172
   70MOL    O2715345   7.797   2.180   3.784 -0.4665  0.4395  0.2407
   70MOL    C2815346   7.808   1.942   3.760 -0.2891 -0.1907  0.3773
   70MOL    H2915347   7.537   2.236   3.742 -0.1515 -0.4258 -0.5060
   70MOL    H3015348   7.445   2.205   3.874  1.5235  0.2569  0.5559
   70MOL    H3115349   7.573   1.956   3.862 -0.9518  0.2185 -0.0801
   70MOL    H3215350   7.823   1.953   3.652  3.6374  1.4653  1.0011
   70MOL    H3315351   0.045   1.927   3.812  1.0455  0.9450 -1.6565
   70MOL    H3415352   7.745   1.858   3.786 -2.0667  1.2985  0.9557
   70MOL    C3515353   7.614   2.098   4.017  0.2260 -0.3301  0.5663
   70MOL    C3615354   7.660   1.991   4.115 -0.2977 -0.0789  0.3346
   70MOL    C3715355   7.728   2.052   4.239  0.0230 -0.1087  0.2771
   70MOL    O3815356   7.713   2.166   4.285 -0.5181  0.2778 -0.8600
   70MOL    C3915357   7.829   1.964   4.320  0.3127 -0.1767 -0.0388
   70MOL    H4015358   7.524   2.135   4.067 -0.9128 -1.0404 -0.9009
   70MOL    H4115359   7.686   2.180   4.021  1.1237 -1.0915  0.2983
   70MOL    H4215360   7.744   1.938   4.069 -0.2001  0.0462  0.3680
   70MOL    H4315361   0.054   2.033   4.337 -0.1010 -0.0511  1.5991
   70MOL    H4415362   0.004   1.879   4.261  2.1046 -0.6104  1.5168
   70MOL    H4515363   7.777   1.929   4.409  0.4722 -2.0405 -0.6540
   70MOL    C4615364   7.563   1.875   4.146  0.4017  0.2337 -0.3598
   70MOL    C4715365   7.594   1.739   4.074 -0.0086  0.2371  0.4999
   70MOL    C4815366   7.726   1.672   4.124  0.2338 -0.1416  0.0887
   70MOL    O4915367   7.731   1.635   4.242  0.1066 -0.1953  0.2751
   70MOL    C5015368   7.848   1.674   4.043  0.6300  0.0470  0.1275
   70MOL    H5115369   7.462   1.911   4.126 -0.6059 -0.5606  2.9234
   70MOL    H5215370   7.568   1.850   4.252 -1.9392  2.0015  0.1957
   70MOL    H5315371   7.599   1.766   3.969 -1.2367 -2.7045 -0.3874
   70MOL    H5415372   7.806   1.669   3.942  0.8176 -2.9763  0.1605
   70MOL    H5515373   0.050   1.764   4.061 -0.1295  0.7464 -0.7597
   70MOL    H5615374   0.045   1.584   4.072  1.2644 -0.5387 -2.7319
   70MOL    C5715375   7.472   1.644   4.091  0.1831  0.6294 -0.1943
   70MOL    C5815376   7.462   1.535   3.984  0.2027 -0.0758 -0.4981
   70MOL    C5915377   7.366   1.421   4.024 -0.3938 -0.1820 -0.4480
   70MOL    O6015378   7.326   1.351   3.932 -0.1585 -0.3597  0.7229
   70MOL    C6115379   7.327   1.402   4.167 -0.5435  0.0429 -0.2293
   70MOL    H6215380   7.389   1.713   4.078  1.5729  2.5624  0.9628
   70MOL    H6315381   7.468   1.606   4.193 -2.0352  1.4266  0.0311
   70MOL    H6415382   7.556   1.485   3.964 -0.5049 -1.0297 -1.5013
   70MOL    H6515383   7.264   1.313   4.160 -0.4227  0.0527 -1.6384
   70MOL    H6615384   7.407   1.356   4.226 -0.9760 -2.9851 -1.8736
   70MOL    H6715385   7.277   1.480   4.223 -2.8741 -0.4396 -1.5892
   70MOL    C6815386   7.427   1.601   3.851  0.2885 -0.5098  0.0763
   70MOL    C6915387   7.456   1.528   3.724 -0.0089  0.5604  0.2103
   70MOL    C7015388   7.606   1.541   3.687 -0.1816 -0.0094  0.1519
   70MOL    O7115389   7.677   1.627   3.745  0.2508  0.0119  0.3848
   70MOL    C7215390   7.674   1.432   3.607 -0.1913  0.8127  0.5501
   70MOL    H7315391   7.318   1.602   3.856  0.1487  1.2609 -2.2615
   70MOL    H7415392   7.438   1.709   3.839 -0.2964 -0.3604  0.8754
   70MOL    H7515393   7.449   1.420   3.739  1.8395  0.6206  1.8726
   70MOL    H7615394   7.775   1.451   3.569 -0.2854  0.4285  0.0976
   70MOL    H7715395   7.686   1.338   3.662  1.0856  1.6139  1.6650
   70MOL    H7815396   7.603   1.410   3.527 -1.5027  3.0325  1.0689
   70MOL    C7915397   7.374   1.568   3.600 -0.0544  0.4143  0.4465
   70MOL    C8015398   7.234   1.512   3.599  0.8187 -0.8920 -0.3761
   70MOL    C8115399   7.240   1.358   3.580  0.0070  0.2509 -0.2536
   70MOL    O8215400   7.319   1.307   3.500  0.2298 -0.2475 -0.1948
   70MOL    C8315401   7.142   1.274   3.663 -0.3593 -0.5489  0.1655
   70MOL    H8415402   7.423   1.530   3.510  0.1650  0.9491  0.3393
   70MOL    H8515403   7.375   1.677   3.604  3.2321  0.5200 -1.1342
   70MOL    H8615404   7.202   1.536   3.701 -1.4724  0.0085 -1.2984
   70MOL    H8715405   7.199   1.198   3.718 -0.9112 -0.3302  1.0556
   70MOL    H8815406   7.069   1.224   3.600 -2.0799  0.6580  1.1570
   70MOL    H8915407   7.092   1.327   3.744  1.3456  0.8372  0.3295
   70MOL    C9015408   7.150   1.597   3.500  0.0218 -0.5338  0.2356
   70MOL    C9115409   7.003   1.597   3.534 -0.1402 -0.2259 -0.0848
   70MOL    C9215410   6.966   1.651   3.672 -0.6602 -0.8383  0.4908
   70MOL    O9315411   7.049   1.704   3.743  0.7945  0.4463 -0.0521
   70MOL    C9415412   6.840   1.599   3.740 -0.2271 -0.0046 -0.4384
   70MOL    H9515413   7.183   1.701   3.507 -0.8179 -0.2147 -0.5046
   70MOL    H9615414   7.166   1.569   3.396  1.8016  0.6208  0.1706
   70MOL    H9715415   6.981   1.492   3.553 -0.7668 -0.1791 -0.5457
   70MOL    H9815416   6.807   1.509   3.687  1.2952 -1.4288  0.9792
   70MOL    H9915417   6.844   1.561   3.842 -1.3719  0.3657 -0.2476
   70MOL   H10015418   6.757   1.670   3.734  0.9975  1.3984 -0.9774
   70MOL   C10115419   6.915   1.666   3.419  0.1892  0.4533 -0.1254
   70MOL   C10215420   6.771   1.610   3.398 -0.5336 -0.5594  0.7227
   70MOL   C10315421   6.760   1.459   3.380  0.2015  0.2887 -0.7493
   70MOL   O10415422   6.851   1.390   3.339 -0.2426  0.0113  0.3981
   70MOL   C10515423   6.617   1.401   3.402 -0.5421  0.4574  0.1167
   70MOL   H10615424   6.914   1.774   3.438 -1.2243  0.4120  0.0933
   70MOL   H10715425   6.965   1.666   3.323 -1.8493  0.9514 -1.2117
   70MOL   H10815426   6.706   1.640   3.480 -1.2770  3.6257 -1.3123
   70MOL   H10915427   6.569   1.373   3.308  1.0613 -0.3451 -0.4776
   70MOL   H11015428   6.621   1.314   3.468 -0.3197  1.4735  1.4685
   70MOL   H11115429   6.556   1.481   3.444 -0.0986  0.6473  0.4110
   70MOL   C11215430   6.714   1.689   3.279  0.4536 -0.6184  0.8570
   70MOL   C11315431   6.779   1.646   3.147 -0.2298 -0.4312 -0.4021
   70MOL   C11415432   6.835   1.770   3.071  0.1202  0.2664  0.4971
   70MOL   O11515433   6.758   1.847   3.016 -0.3010  0.3146  0.2624
   70MOL   C11615434   6.979   1.807   3.067 -0.1862 -0.2569 -0.0561
   70MOL   H11715435   6.723   1.796   3.295  1.3264 -0.5089 -0.2997
   70MOL   H11815436   6.607   1.672   3.270  0.7214 -1.5425 -0.8623
   70MOL   H11915437   6.859   1.572   3.149  0.7684  0.5778 -1.3943
   70MOL   H12015438   7.016   1.825   2.966 -2.6700 -0.6774 -1.0767
   70MOL   H12115439   7.012   1.893   3.126 -0.9304  1.1500 -1.6430
   70MOL   H12215440   7.027   1.715   3.101 -0.7257 -0.6824 -0.4489
   70MOL   C12315441   6.668   1.585   3.061 -0.3847 -0.6390  0.1042
   70MOL   C12415442   6.705   1.523   2.920  0.1399  0.5882 -0.4274
   70MOL   C12515443   6.568   1.503   2.844 -0.4334  1.1147  0.3073
   70MOL   O12615444   6.535   1.596   2.772  1.2150  0.0544 -0.4854
   70MOL   C12715445   6.493   1.374   2.860 -0.4905 -0.5565  0.3429
   70MOL   H12815446   6.593   1.663   3.045  0.3335  0.4162  1.8055
   70MOL   H12915447   6.626   1.498   3.112 -2.4363  0.1149 -0.2255
   70MOL   H13015448   6.742   1.606   2.860  0.1133 -0.6276 -2.1716
   70MOL   H13115449   6.561   1.294   2.832 -2.2227 -1.5384 -1.1866
   70MOL   H13215450   6.409   1.377   2.790 -1.4869  1.9881  1.5514
   70MOL   H13315451   6.463   1.365   2.965  1.3262 -0.6089  0.8717
   70MOL   C13415452   6.802   1.398   2.922  0.1749  0.5028 -0.3400
   70MOL   C13515453   6.906   1.383   2.809  0.2553 -0.0831 -0.0616
   70MOL   C13615454   7.002   1.507   2.812  0.0216 -0.3353  0.2223
   70MOL   O13715455   7.045   1.550   2.918  0.0735  0.0998 -0.4632
   70MOL   C13815456   7.050   1.555   2.674 -0.6532 -0.6119  0.8002
   70MOL   H13915457   6.740   1.309   2.921  2.6559 -1.2675 -1.6399
   70MOL   H14015458   6.855   1.386   3.016 -0.0721 -1.5513 -0.4352
   70MOL   H14115459   6.839   1.374   2.723  1.8473 -1.8624 -1.1542
   70MOL   H14215460   6.968   1.521   2.611 -0.3531 -1.5526  0.9163
   70MOL   H14315461   7.149   1.520   2.646  0.2285  0.2881  2.6843
   70MOL   H14415462   7.053   1.664   2.677  3.3936 -0.6780  0.9573
   70MOL   C14515463   6.988   1.252   2.808 -0.2035 -0.3925 -0.2428
   70MOL   C14615464   7.080   1.221   2.941  0.3311 -0.2049  0.1178
   70MOL   C14715465   7.033   1.091   3.010 -0.1602 -0.3219 -0.5455
   70MOL   O14815466   7.028   0.985   2.954 -0.1852  0.1843  0.2015
   70MOL   C14915467   6.977   1.113   3.152 -0.4151  0.1200 -0.1390
   70MOL   H15015468   7.047   1.238   2.717  0.9334 -0.5435  0.4999
   70MOL   H15115469   6.920   1.169   2.792 -0.3798 -1.2474  4.2969
   70MOL   H15215470   7.073   1.306   3.009  0.9321 -0.2174  0.1931
   70MOL   H15315471   6.895   1.041   3.158 -0.9028  0.6550 -0.3617
   70MOL   H15415472   7.051   1.101   3.231 -1.6292  1.9956  1.3308
   70MOL   H15515473   6.934   1.212   3.166 -0.5051  0.1437 -0.5682
   70MOL   C15615474   7.224   1.215   2.896 -0.7988  0.3863  0.4222
   70MOL   C15715475   7.321   1.204   3.012 -0.8383 -0.1369 -0.0542
   70MOL   C15815476   7.350   1.339   3.074 -0.4329 -1.1943 -0.6226
   70MOL   O15915477   7.444   1.408   3.037 -0.1450 -0.0729  0.3803
   70MOL   C16015478   7.258   1.397   3.179  0.0190  0.3094  0.4518
   70MOL   H16115479   7.225   1.134   2.824 -1.1525  1.0375 -0.3222
   70MOL   H16215480   7.257   1.301   2.838  0.9549  0.5647  1.6403
   70MOL   H16315481   7.292   1.124   3.080  0.6625 -1.0717 -0.4741
   70MOL   H16415482   7.178   1.450   3.128  1.0321 -0.2413 -1.7934
   70MOL   H16515483   7.317   1.459   3.246  1.6308 -1.0867  0.3621
   70MOL   H16615484   7.200   1.325   3.236 -1.6308  1.3407  0.0899
   70MOL   C16715485   7.456   1.140   2.952  0.0667 -0.6941 -0.3930
   70MOL   C16815486   7.451   0.994   2.913 -0.2985 -0.1513 -0.3561
   70MOL   C16915487   7.404   0.907   3.033 -0.6557  0.0564  0.0399
   70MOL   O17015488   7.438   0.941   3.146  0.5927 -0.1447 -0.5809
   70MOL   C17115489   7.306   0.792   3.007 -0.2720 -0.5207 -0.5947
   70MOL   H17215490   7.491   1.205   2.872  0.6349  1.7768  1.7729
   70MOL   H17315491   7.536   1.164   3.023 -1.2999  0.7971  0.6795
   70MOL   H17415492   7.378   0.979   2.833 -0.0237 -0.9061 -0.4717
   70MOL   H17515493   7.374   0.710   2.983  1.8232  0.7330  0.8271
   70MOL   H17615494   7.247   0.826   2.922  0.6672 -0.9189 -1.4242
   70MOL   H17715495   7.244   0.760   3.091 -0.3519 -0.6952 -0.7211
   70MOL   C17815496   7.595   0.965   2.862  0.4950 -0.2624 -0.1295
   70MOL   C17915497   7.627   0.819   2.797 -0.1475 -0.3857 -0.6186
   70MOL   C18015498   7.739   0.738   2.866  0.1367 -0.6663  0.5716
   70MOL   O18115499   7.815   0.796   2.945 -0.1617 -0.6180  0.1856
   70MOL   C18215500   7.741   0.588   2.848 -0.7290 -0.6480  0.0622
   70MOL   H18315501   7.589   1.031   2.776 -3.1531  0.7844  0.8444
   70MOL   H18415502   7.663   1.004   2.938 -0.1157 -0.3932  0.4829
   70MOL   H18515503   7.533   0.764   2.801 -0.2023 -0.2145  0.6148
   70MOL   H18615504   7.817   0.542   2.911 -0.2402 -1.9347 -1.4392
   70MOL   H18715505   7.767   0.579   2.742 -0.3315  0.1746  0.0835
   70MOL   H18815506   7.645   0.539   2.863 -0.2540 -1.4357  0.5522
   70MOL   C18915507   7.655   0.820   2.633  0.0289 -0.1113 -0.3956
   70MOL   C19015508   7.788   0.875   2.583  0.7151 -0.0231 -0.3675
   70MOL   C19115509   7.841   0.795   2.467 -0.3111 -0.1265 -0.2920
   70MOL   O19215510   7.809   0.831   2.354 -0.0626 -0.2967  0.6784
   70MOL   C19315511   0.061   0.664   2.491  0.0891 -0.1589  1.0774
   70MOL   H19415512   7.639   0.720   2.592  0.3006 -0.7249  0.9692
   70MOL   H19515513   7.571   0.875   2.591 -0.4780  0.0539  0.8004
   70MOL   H19615514   7.858   0.854   2.664 -1.2208 -3.6695  0.4436
   70MOL   H19715515   0.168   0.686   2.482 -0.4109  1.5471 -0.9966
   70MOL   H19815516   0.039   0.617   2.587  1.1767  1.4634  2.1300
   70MOL   H19915517   0.032   0.598   2.409  1.2837  0.7141 -0.0542
   70MOL   C20015518   7.797   1.028   2.576 -0.4303 -0.0218  0.4927
   70MOL   C20115519   0.065   1.095   2.525  0.3673  0.4812 -0.0847
   70MOL   C20215520   0.182   1.069   2.622  0.0640  0.2628 -0.7013
   70MOL   O20315521   0.277   0.998   2.580  0.1287 -0.2224 -0.2686
   70MOL   C20415522   0.184   1.125   2.766 -0.4579 -0.2901 -0.8548
   70MOL   H20515523   7.707   1.057   2.520 -1.4394 -0.0725  2.0732
   70MOL   H20615524   7.778   1.066   2.676  3.4265  2.6433  0.3020
   70MOL   H20715525   0.082   1.047   2.429 -2.8066 -1.1398  0.1040
   70MOL   H20815526   0.102   1.197   2.774  1.8953  2.3738 -0.2445
   70MOL   H20915527   0.169   1.049   2.843 -1.3428  1.8365  1.1117
   70MOL   H21015528   0.277   1.175   2.791 -0.4565  0.2710 -1.9493
   70MOL   C21115529   0.045   1.247   2.509 -0.2776  0.1897 -0.4711
   70MOL   C21215530   0.164   1.323   2.443 -0.5536 -0.1731 -0.4350
   70MOL   C21315531   0.183   1.311   2.288 -0.3140  0.0908  0.8541
   70MOL   O21415532   0.154   1.204   2.239  0.3150 -0.2044  0.8937
   70MOL   C21515533   0.255   1.419   2.211 -0.0036 -0.7992 -0.4244
   70MOL   H21615534   7.823   1.253   2.434  0.4385 -1.7324 -1.4061
   70MOL   H21715535   0.019   1.297   2.602 -0.8120 -0.3166 -0.3435
   70MOL   H21815536   0.254   1.288   2.492  0.0655 -2.1563 -2.8888
   70MOL   H21915537   0.355   1.393   2.178  1.1139  1.9115  0.6767
   70MOL   H22015538   0.201   1.432   2.117  0.6233  1.1745 -0.5299
   70MOL   H22115539   0.246   1.508   2.273  0.8414 -2.2946  1.9267
   70MOL   H22215540   0.156   1.429   2.465  0.0564 -0.4264  1.0937
   71MOL     C115541   7.032   6.386   6.082  0.3744  0.6217 -0.2238
   71MOL     C215542   6.938   6.484   6.161 -0.1188  0.2248  0.5174
   71MOL     C315543   6.853   6.400   6.265 -0.2994  0.2696  0.0519
   71MOL     O415544   6.905   6.343   6.364 -0.3972 -0.0030 -0.3058
   71MOL     C515545   6.709   6.377   6.228 -0.7635  0.5288 -0.0338
   71MOL     H615546   7.087   6.444   6.007  0.8462 -1.3535 -1.4388
   71MOL     H715547   6.975   6.307   6.033  0.0143  0.4973  0.3953
   71MOL     H815548   6.874   6.536   6.091 -0.4034  0.2026  0.7598
   71MOL     H915549   6.657   6.472   6.232 -0.1154  0.8107  2.6703
   71MOL    H1015550   6.695   6.342   6.125  1.6456 -1.9380  0.3897
   71MOL    H1115551   6.656   6.326   6.308  0.9127 -1.2357 -0.0015
   71MOL    H1215552   7.103   6.348   6.155  3.1370  2.2045 -1.9773
   71MOL    C1315553   7.016   6.596   6.234  0.5127 -0.8045  0.0984
   71MOL    C1415554   6.954   6.740   6.253  0.5369  0.4541 -0.4416
   71MOL    C1515555   7.051   6.824   6.342  0.0796 -0.5868 -0.1163
   71MOL    O1615556   7.016   6.837   6.458  0.0330 -0.3315 -0.2974
   71MOL    C1715557   7.185   6.862   6.287 -0.0514 -0.2749  0.0612
   71MOL    H1815558   7.054   6.554   6.328 -0.0303 -0.9818  0.2417
   71MOL    H1915559   7.104   6.610   6.171 -1.1780 -1.2055 -2.4341
   71MOL    H2015560   6.960   6.787   6.155 -2.2123 -0.6193 -1.1817
   71MOL    H2115561   7.262   6.842   6.361 -3.0641  1.6404  3.8541
   71MOL    H2215562   7.213   6.826   6.188  0.9588 -1.8354  0.9075
   71MOL    H2315563   7.189   6.971   6.283 -0.2525 -0.0846  3.7546
   71MOL    C2415564   6.808   6.741   6.300  0.4562 -0.1193  0.1904
   71MOL    C2515565   6.724   6.875   6.278  0.0755 -0.6106 -0.2687
   71MOL    C2615566   6.676   6.890   6.136 -0.2840 -0.7085 -0.3582
   71MOL    O2715567   6.639   6.794   6.064  0.2826 -0.2273 -0.1239
   71MOL    C2815568   6.673   7.028   6.086 -0.2050 -0.6414 -0.2383
   71MOL    H2915569   6.762   6.663   6.241  0.9462  0.6368 -1.2152
   71MOL    H3015570   6.800   6.685   6.393 -2.2631 -1.4118 -0.7803
   71MOL    H3115571   6.778   6.968   6.299 -0.9123  0.0498 -0.6112
   71MOL    H3215572   6.586   7.037   6.020  0.6774 -0.5880 -1.3975
   71MOL    H3315573   6.689   7.101   6.165  1.1119 -0.2523 -0.8530
   71MOL    H3415574   6.757   7.037   6.017  0.1053  0.4206  0.2666
   71MOL    C3515575   6.607   6.866   6.377  0.2119 -0.8508  0.0244
   71MOL    C3615576   6.644   6.905   6.526  0.9248  0.9702  0.3198
   71MOL    C3715577   6.665   7.054   6.535 -0.5710  0.6075 -0.5139
   71MOL    O3815578   6.569   7.133   6.523  0.0643  0.4158  0.0372
   71MOL    C3915579   6.815   7.096   6.556 -0.5408  0.6028  0.3524
   71MOL    H4015580   6.556   6.771   6.363  2.5290 -1.8079 -2.3345
   71MOL    H4115581   6.541   6.944   6.338  2.0723 -0.0473 -1.6083
   71MOL    H4215582   6.730   6.843   6.551 -0.9246 -2.3157 -1.1155
   71MOL    H4315583   6.884   7.021   6.594 -0.3975  0.5351 -0.0460
   71MOL    H4415584   6.798   7.171   6.634 -0.4019 -1.4673  2.4374
   71MOL    H4515585   6.854   7.157   6.475 -1.5431 -0.9800 -1.3410
   71MOL    C4615586   6.530   6.863   6.620  0.2074 -0.3646  0.2422
   71MOL    C4715587   6.562   6.901   6.771 -0.1410  0.5223 -0.0858
   71MOL    C4815588   6.425   6.913   6.847 -0.4751  0.0432  0.0617
   71MOL    O4915589   6.389   6.843   6.936  0.2639  0.6611  0.2732
   71MOL    C5015590   6.346   7.039   6.820  0.3071  0.1465 -0.2320
   71MOL    H5115591   6.505   6.758   6.605  0.2093 -0.3535  0.1573
   71MOL    H5215592   6.442   6.920   6.590  0.7852  1.7639  2.4363
   71MOL    H5315593   6.606   7.000   6.776  0.3187  0.2838  0.8954
   71MOL    H5415594   6.350   7.109   6.904 -0.2459  0.4087 -0.4199
   71MOL    H5515595   6.365   7.090   6.726  0.2311 -0.2639 -0.4722
   71MOL    H5615596   6.243   7.004   6.825  1.0175 -1.9647  0.2595
   71MOL    C5715597   6.659   6.805   6.853  0.3591 -0.4414  0.1225
   71MOL    C5815598   6.794   6.861   6.918  0.4536 -0.5898  0.0430
   71MOL    C5915599   6.767   6.943   7.049  0.0202  0.3379  0.2835
   71MOL    O6015600   6.759   7.069   7.048  0.1745  0.0313 -0.2894
   71MOL    C6115601   6.743   6.870   7.177 -1.0107 -0.0995  0.6386
   71MOL    H6215602   6.686   6.723   6.787 -0.1430 -0.8228  0.3864
   71MOL    H6315603   6.606   6.756   6.934 -1.0923  1.3475  0.2852
   71MOL    H6415604   6.838   6.928   6.844  0.9269  0.0792  0.9214
   71MOL    H6515605   6.681   6.781   7.164  0.2987 -0.7480 -1.4485
   71MOL    H6615606   6.843   6.836   7.205 -1.0138 -1.2587 -0.6927
   71MOL    H6715607   6.699   6.933   7.254 -2.6701  1.6432 -1.6894
   71MOL    C6815608   6.895   6.751   6.936 -0.1562  0.4600 -0.7917
   71MOL    C6915609   6.952   6.688   6.803  0.3385 -1.4134 -0.3355
   71MOL    C7015610   6.879   6.561   6.754 -0.0926  0.2327  0.4803
   71MOL    O7115611   6.796   6.499   6.826 -0.5222 -0.5281 -0.6349
   71MOL    C7215612   6.897   6.513   6.610 -0.0258  0.4430 -1.0699
   71MOL    H7315613   6.968   6.802   6.998  1.2180 -0.7526 -1.3778
   71MOL    H7415614   6.854   6.674   7.001  0.9351  1.2338  0.8283
   71MOL    H7515615   6.921   6.762   6.728 -0.2338  0.1136  1.3641
   71MOL    H7615616   6.939   6.594   6.550  1.1977  2.3560  2.2213
   71MOL    H7715617   6.958   6.423   6.606  0.0617  0.5497 -2.2126
   71MOL    H7815618   6.799   6.480   6.574 -0.3341 -0.9332  0.9703
   71MOL    C7915619   7.106   6.678   6.790 -0.1770 -0.2349  1.0545
   71MOL    C8015620   7.177   6.558   6.860 -1.4223 -0.6295  0.1070
   71MOL    C8115621   7.197   6.590   7.010 -0.4610  0.5142 -0.0095
   71MOL    O8215622   7.273   6.681   7.044 -0.2328  0.3180 -0.0761
   71MOL    C8315623   7.140   6.492   7.108  0.4627 -0.0682  0.2304
   71MOL    H8415624   7.156   6.772   6.817  0.5462 -0.4817  0.6111
   71MOL    H8515625   7.133   6.680   6.684 -2.3586  1.5429  0.4881
   71MOL    H8615626   7.113   6.470   6.852 -1.6232 -0.4659 -0.1270
   71MOL    H8715627   7.153   6.530   7.210 -1.6655  0.2440  0.3991
   71MOL    H8815628   7.186   6.393   7.097  2.6747  0.7833  1.4620
   71MOL    H8915629   7.035   6.482   7.079  0.9066  1.4749 -1.9794
   71MOL    C9015630   7.317   6.519   6.798  0.2650 -0.4911 -0.6393
   71MOL    C9115631   7.384   6.383   6.845 -0.1734  0.3574  0.0412
   71MOL    C9215632   7.274   6.272   6.841  0.0518  0.7892  0.4777
   71MOL    O9315633   7.245   6.211   6.948  0.1616 -0.4024 -0.2070
   71MOL    C9415634   7.223   6.225   6.705 -0.0700 -0.7457  0.2954
   71MOL    H9515635   7.305   6.514   6.690  0.3700  1.5480 -0.7627
   71MOL    H9615636   7.388   6.599   6.814  0.2163 -0.6109  0.1858
   71MOL    H9715637   7.415   6.393   6.949  1.5171 -1.0172 -0.3124
   71MOL    H9815638   7.150   6.144   6.711 -1.3368  0.1941 -1.9571
   71MOL    H9915639   7.177   6.311   6.656 -2.0512 -2.4898 -0.9971
   71MOL   H10015640   7.300   6.180   6.643 -0.7894  0.2791 -1.3712
   71MOL   C10115641   7.508   6.336   6.771 -0.2776 -0.3976 -0.1667
   71MOL   C10215642   7.594   6.217   6.836  0.4226  0.1462  0.1320
   71MOL   C10315643   7.599   6.230   6.989 -0.0456 -0.1654  0.1500
   71MOL   O10415644   7.659   6.315   7.053 -0.1235  0.3344  0.0203
   71MOL   C10515645   7.517   6.121   7.058 -0.2240 -0.1244  0.2883
   71MOL   H10615646   7.492   6.311   6.666  1.7529 -0.0537 -0.5812
   71MOL   H10715647   7.573   6.423   6.765 -1.6643  0.5817 -1.5746
   71MOL   H10815648   7.540   6.125   6.816 -1.4806  1.0587  0.9871
   71MOL   H10915649   7.575   6.086   7.143  0.4985 -0.0927 -0.1902
   71MOL   H11015650   7.419   6.146   7.100 -0.0580  0.3159  0.4218
   71MOL   H11115651   7.500   6.048   6.980  1.1256  2.0851 -2.1397
   71MOL   C11215652   7.733   6.193   6.774  0.1760  0.4150  0.0092
   71MOL   C11315653   7.831   6.094   6.852 -0.0574  0.0238 -0.1225
   71MOL   C11415654   0.117   6.139   6.819 -0.8513 -0.5611  0.0808
   71MOL   O11515655   0.198   6.065   6.757  0.5008  0.0718  0.0170
   71MOL   C11615656   0.161   6.279   6.853 -0.5236  0.9144  0.7182
   71MOL   H11715657   7.775   6.294   6.766  1.5410 -0.2902 -2.4256
   71MOL   H11815658   7.722   6.167   6.669 -0.5750 -0.5679  0.3235
   71MOL   H11915659   7.825   6.116   6.959 -1.5266 -3.9245  0.6832
   71MOL   H12015660   0.254   6.301   6.904  0.4729  0.6159 -0.9427
   71MOL   H12115661   0.180   6.332   6.760  1.0588  2.2390  1.7761
   71MOL   H12215662   0.075   6.333   6.893 -0.5674  2.2917 -1.1589
   71MOL   C12315663   7.799   5.942   6.832 -0.3595  0.6251  0.5745
   71MOL   C12415664   0.007   5.845   6.932  0.1128 -0.3420 -0.2966
   71MOL   C12515665   0.054   5.719   6.855 -0.7002 -0.1737 -0.2927
   71MOL   O12615666   7.837   5.624   6.837 -0.3360  0.0875  0.1303
   71MOL   C12715667   0.190   5.724   6.790  0.4857  0.2102 -0.3533
   71MOL   H12815668   7.841   5.920   6.734  0.6759  0.8278  0.9632
   71MOL   H12915669   7.692   5.930   6.816 -0.2606  0.4774  0.0071
   71MOL   H13015670   0.100   5.881   6.974 -0.6712  0.5592  0.6963
   71MOL   H13115671   0.222   5.628   6.749 -1.4540  0.0211 -1.4669
   71MOL   H13215672   0.254   5.746   6.876 -1.7818 -0.6988  1.6294
   71MOL   H13315673   0.207   5.793   6.708 -0.8734 -0.3976 -1.1643
   71MOL   C13415674   7.768   5.817   7.053 -0.4408  0.1665 -0.3623
   71MOL   C13515675   7.835   5.729   7.158 -0.0594  0.5949 -0.3218
   71MOL   C13615676   0.081   5.812   7.236 -0.1265 -0.7549 -0.2067
   71MOL   O13715677   0.199   5.783   7.233  0.0334  0.1891  0.1788
   71MOL   C13815678   0.038   5.931   7.321 -0.0101 -0.5277 -0.3380
   71MOL   H13915679   7.682   5.766   7.009 -0.2449  0.5956 -1.2699
   71MOL   H14015680   7.727   5.910   7.093 -1.6295 -0.7299  0.5193
   71MOL   H14115681   0.036   5.655   7.103 -0.9961  0.2955 -0.9237
   71MOL   H14215682   0.085   5.929   7.419  0.4519 -0.4179 -0.5579
   71MOL   H14315683   7.787   5.938   7.315  0.0670 -0.0755 -1.1799
   71MOL   H14415684   0.068   6.022   7.270  0.1611 -1.0807 -1.2311
   71MOL   C14515685   7.742   5.654   7.249  0.2675 -0.6048 -0.7019
   71MOL   C14615686   7.644   5.554   7.172  0.0883  0.1690  0.2296
   71MOL   C14715687   7.719   5.431   7.112 -0.8727  0.5685  0.0192
   71MOL   O14815688   7.809   5.382   7.173 -0.3899  0.0916 -0.1953
   71MOL   C14915689   7.684   5.387   6.967  0.0083  0.2685 -0.7327
   71MOL   H15015690   7.697   5.732   7.310  2.0332 -0.7589  0.8254
   71MOL   H15115691   7.811   5.602   7.315  0.6961  1.5376  0.5755
   71MOL   H15215692   7.598   5.600   7.084 -0.4920 -0.9096 -0.0479
   71MOL   H15315693   7.622   5.298   6.968  1.6407 -0.9003 -1.1340
   71MOL   H15415694   7.627   5.467   6.920 -1.6052  0.6959  1.8595
   71MOL   H15515695   7.773   5.372   6.906 -0.8828 -0.4904 -1.8660
   71MOL   C15615696   7.527   5.512   7.257  0.3982  0.0219  0.1710
   71MOL   C15715697   7.406   5.442   7.179 -0.2187 -0.4329 -0.3066
   71MOL   C15815698   7.354   5.532   7.075  0.0557 -0.5694  0.2476
   71MOL   O15915699   7.359   5.656   7.086 -0.4487  0.0712 -0.2820
   71MOL   C16015700   7.303   5.457   6.953  0.0602 -0.5649  0.1432
   71MOL   H16115701   7.541   5.446   7.342 -1.0522  0.3682  0.6854
   71MOL   H16215702   7.475   5.603   7.286 -0.8844  0.3511 -2.9211
   71MOL   H16315703   7.451   5.356   7.131 -1.5268 -0.7462 -0.9839
   71MOL   H16415704   7.310   5.516   6.862 -0.0074 -0.2106  0.3664
   71MOL   H16515705   7.200   5.426   6.970  1.0479 -3.2650  1.4553
   71MOL   H16615706   7.375   5.375   6.948  0.1711 -0.4342 -0.4070
   71MOL   C16715707   7.290   5.397   7.263  0.0506  0.0769  0.0798
   71MOL   C16815708   7.320   5.307   7.387 -0.4455 -0.3704 -0.0044
   71MOL   C16915709   7.414   5.193   7.347 -0.1184 -0.6955 -0.5517
   71MOL   O17015710   7.523   5.199   7.399 -0.4174 -0.0412  0.4432
   71MOL   C17115711   7.380   5.082   7.249 -0.2543  0.0422 -0.2570
   71MOL   H17215712   7.224   5.480   7.288  0.6665  0.3969  0.6671
   71MOL   H17315713   7.232   5.327   7.202  0.3580 -0.9885  1.0065
   71MOL   H17415714   7.354   5.363   7.474  0.5977 -0.0218 -0.6315
   71MOL   H17515715   7.301   5.107   7.177 -0.6142 -0.2092  0.0489
   71MOL   H17615716   7.356   4.998   7.313  4.4192 -0.9244  0.3875
   71MOL   H17715717   7.475   5.050   7.207 -0.9089  0.4647 -2.1229
   71MOL   C17815718   7.185   5.262   7.449 -0.2768  0.1704  0.0318
   71MOL   C17915719   7.179   5.205   7.597  0.1568  0.1601 -0.2779
   71MOL   C18015720   7.237   5.060   7.606  0.5888  0.0362 -0.3560
   71MOL   O18115721   7.178   4.965   7.553  0.5789 -0.4457  0.4837
   71MOL   C18215722   7.367   5.033   7.683  0.2665 -0.0166 -0.2256
   71MOL   H18315723   7.114   5.343   7.437 -0.4413 -0.1115 -1.0148
   71MOL   H18415724   7.151   5.191   7.373  0.5052  0.3340 -0.4790
   71MOL   H18515725   7.240   5.275   7.654 -0.6198 -1.1605  2.2737
   71MOL   H18615726   7.383   5.110   7.758  1.1752 -0.7730  0.3681
   71MOL   H18715727   7.452   5.013   7.617 -0.3712  0.0981 -1.0850
   71MOL   H18815728   7.344   4.943   7.740  0.9547  0.2616  0.4941
   71MOL   C18915729   7.040   5.207   7.639 -0.0282 -0.6701  0.6781
   71MOL   C19015730   6.999   5.153   7.784  0.4952 -0.2226  0.3541
   71MOL   C19115731   7.059   5.231   0.037  0.4063 -0.4518 -0.1289
   71MOL   O19215732   7.016   5.344   0.071  0.1676 -0.0048 -0.1374
   71MOL   C19315733   7.179   5.172   0.110 -0.9995  0.0506 -0.2513
   71MOL   H19415734   7.015   5.313   7.643  2.0925 -0.0054 -2.2293
   71MOL   H19515735   6.978   5.161   7.562 -2.5386  0.7906  1.7592
   71MOL   H19615736   7.040   5.051   7.789  0.0691 -0.5047 -1.5935
   71MOL   H19715737   7.194   5.219   0.207  0.7940  1.9385 -1.3951
   71MOL   H19815738   7.183   5.063   0.114  1.8867  0.1168 -0.8215
   71MOL   H19915739   7.268   5.203   0.057 -1.3404 -0.0581 -0.8971
   71MOL   C20015740   6.845   5.122   7.807 -0.3067 -0.3715  0.1891
   71MOL   C20115741   6.793   5.000   7.731 -0.2870 -0.0449  0.1818
   71MOL   C20215742   6.724   5.026   7.596 -0.3046 -0.2415  0.6082
   71MOL   O20315743   6.650   5.127   7.574 -0.1836  0.3315  0.0994
   71MOL   C20415744   6.756   4.932   7.479 -0.2077 -0.5881  0.2964
   71MOL   H20515745   6.831   5.102   0.055  2.1729 -0.3089  0.5573
   71MOL   H20615746   6.782   5.211   7.801 -0.2421 -0.4880 -3.4287
   71MOL   H20715747   6.884   4.946   7.703  0.3799  0.5977  1.0537
   71MOL   H20815748   6.825   4.982   7.411 -1.6307  2.3295  0.9370
   71MOL   H20915749   6.796   4.833   7.504 -0.6929 -0.8920 -0.1090
   71MOL   H21015750   6.666   4.910   7.421  1.0169 -3.8924 -0.4489
   71MOL   C21115751   6.696   4.910   7.818 -0.3993  0.0150  0.0098
   71MOL   C21215752   6.624   4.789   7.751  0.4142  0.1584 -0.3805
   71MOL   C21315753   6.529   4.709   7.834  0.2969 -0.1552  0.0867
   71MOL   O21415754   6.498   4.740   0.092 -0.4037 -0.7272 -0.7666
   71MOL   C21515755   6.463   4.588   7.774  0.6563  0.0687  0.0101
   71MOL   H21615756   6.761   4.865   0.035 -0.3800  3.7550  2.3797
   71MOL   H21715757   6.625   4.969   0.019  0.9860  0.7755  0.9680
   71MOL   H21815758   6.698   4.722   7.708  1.6411  1.1188  0.1952
   71MOL   H21915759   6.534   4.508   7.793  0.6341  0.1210  0.3195
   71MOL   H22015760   6.365   4.573   7.820  0.6024 -0.3844 -0.2531
   71MOL   H22115761   6.427   4.604   7.672 -1.8001 -0.2467  0.7798
   71MOL   H22215762   6.570   4.836   7.668 -0.7492  0.9866  0.8245
   72MOL     C115763   7.302   1.829   3.287 -0.0155 -0.7445  0.5993
   72MOL     C215764   7.368   1.883   3.159 -0.0306  0.5656 -0.3240
   72MOL     C315765   7.513   1.919   3.184  0.1114  0.1123 -0.6721
   72MOL     O415766   7.562   2.019   3.142 -0.5029  0.4112 -0.1104
   72MOL     C515767   7.615   1.816   3.242 -0.0467  0.1569  0.2240
   72MOL     H615768   7.296   1.897   3.372  0.4046  0.0347  0.0092
   72MOL     H715769   7.361   1.745   3.323 -0.9031 -1.6067  0.0562
   72MOL     H815770   7.319   1.975   3.127 -2.3985 -0.4382  0.3607
   72MOL     H915771   7.710   1.840   3.194 -0.9897 -0.0092 -1.8206
   72MOL    H1015772   7.633   1.828   3.348  0.7235  0.4870  0.0617
   72MOL    H1115773   7.592   1.712   3.218  2.4904 -0.4768  0.4611
   72MOL    H1215774   7.199   1.795   3.271  0.3459 -1.8088  0.5148
   72MOL    C1315775   7.356   1.780   3.045  0.0287  0.2325 -0.5585
   72MOL    C1415776   7.400   1.819   2.902 -0.5701 -0.5577 -0.2420
   72MOL    C1515777   7.324   1.940   2.857  0.4365  0.1113 -0.1212
   72MOL    O1615778   7.203   1.956   2.864  0.5664 -0.4812 -0.4731
   72MOL    C1715779   7.402   2.060   2.804 -0.8566 -0.1100 -0.4863
   72MOL    H1815780   7.416   1.694   3.073 -0.6184  0.1311  0.5304
   72MOL    H1915781   7.250   1.752   3.040  0.7697 -2.5303 -1.6462
   72MOL    H2015782   7.499   1.861   2.921 -0.1694 -1.4501 -0.3685
   72MOL    H2115783   7.351   2.128   2.736  1.5940  0.5327 -1.7413
   72MOL    H2215784   7.429   2.113   2.895 -0.6566  0.3073 -0.7893
   72MOL    H2315785   7.492   2.023   2.754  1.4290  2.3217  1.6999
   72MOL    C2415786   7.394   1.709   2.793 -0.6679 -0.1874  0.1139
   72MOL    C2515787   7.515   1.612   2.784 -0.1835  0.3120 -0.7208
   72MOL    C2615788   7.506   1.520   2.668 -0.1667  0.2699 -0.3521
   72MOL    O2715789   7.435   1.545   2.569 -0.3265 -0.4191  0.1354
   72MOL    C2815790   7.591   1.390   2.669  0.1817 -0.3190 -0.5002
   72MOL    H2915791   7.307   1.644   2.802 -1.5853  0.9201 -0.5193
   72MOL    H3015792   7.384   1.757   2.696  0.0889 -1.3571 -0.5468
   72MOL    H3115793   7.514   1.552   2.874  0.2613  2.0070  0.4372
   72MOL    H3215794   7.684   1.398   2.612  0.7576  0.0086  0.4718
   72MOL    H3315795   7.613   1.367   2.773  0.4981  0.1059 -0.4747
   72MOL    H3415796   7.553   1.296   2.629 -0.8774  0.1489 -0.6004
   72MOL    C3515797   7.645   1.689   2.789 -0.1218  0.7056  0.1479
   72MOL    C3615798   7.737   1.671   2.923 -0.1444  0.1594 -0.6417
   72MOL    C3715799   7.789   1.531   2.948 -0.8923 -0.5520  0.5661
   72MOL    O3815800   7.840   1.468   2.854  0.4482  0.0814 -0.1219
   72MOL    C3915801   7.768   1.470   3.085  0.2071  0.5526  0.5487
   72MOL    H4015802   7.629   1.790   2.750  0.9013 -0.0452 -2.2961
   72MOL    H4115803   7.702   1.645   2.708 -2.8016 -3.2306  0.2768
   72MOL    H4215804   7.668   1.677   3.007  1.0501 -0.7372  0.4280
   72MOL    H4315805   7.799   1.366   3.082  1.2272  0.8814 -1.6362
   72MOL    H4415806   7.663   1.464   3.115 -0.5804  0.7392 -2.0175
   72MOL    H4515807   7.828   1.530   3.153  0.4185  3.2751 -1.9098
   72MOL    C4615808   7.844   1.781   2.932  0.2661 -0.1511 -0.3615
   72MOL    C4715809   0.111   1.772   2.843 -0.0828 -0.5911  0.6769
   72MOL    C4815810   0.092   1.841   2.713  0.1325  0.2281  0.4917
   72MOL    O4915811   0.013   1.938   2.695  0.3362 -0.1282  0.4556
   72MOL    C5015812   0.134   1.774   2.580 -0.0389 -0.0255  0.5962
   72MOL    H5115813   0.021   1.796   3.034 -1.6733  0.3401  0.2355
   72MOL    H5215814   7.784   1.870   2.913  0.6904  0.1791 -0.1622
   72MOL    H5315815   0.109   1.667   2.816 -0.3015 -1.1923  2.9245
   72MOL    H5415816   0.183   1.846   2.515 -1.5121 -0.4315 -1.0007
   72MOL    H5515817   0.206   1.695   2.600 -0.8694 -0.6388  1.2243
   72MOL    H5615818   0.050   1.724   2.531  1.5849 -1.3056 -0.9560
   72MOL    C5715819   0.252   1.810   2.898  0.1754 -0.1605 -0.0598
   72MOL    C5815820   0.373   1.746   2.830 -0.1299 -0.0903 -0.3122
   72MOL    C5915821   0.502   1.817   2.869 -0.5686 -0.7004  0.1995
   72MOL    O6015822   0.575   1.864   2.779  0.5790  0.0063 -0.6556
   72MOL    C6115823   0.540   1.827   3.016 -0.0978  0.8233 -0.4460
   72MOL    H6215824   0.249   1.775   3.001 -0.4503  0.2392  0.0649
   72MOL    H6315825   0.280   1.916   2.904  3.4186 -0.9240 -0.5119
   72MOL    H6415826   0.359   1.778   2.727 -0.0844  1.6115  0.1965
   72MOL    H6515827   0.484   1.905   3.068 -1.0524  1.8524 -2.9845
   72MOL    H6615828   0.510   1.730   3.058  0.3873  1.1838  0.7758
   72MOL    H6715829   0.646   1.848   3.032 -0.8010  2.2154  2.9101
   72MOL    C6815830   0.370   1.585   2.849 -0.0721 -0.3975 -0.6528
   72MOL    C6915831   0.491   1.508   2.783  0.1648 -0.1123  0.5204
   72MOL    C7015832   0.490   1.535   2.629  0.5927 -0.1969 -0.3610
   72MOL    O7115833   0.386   1.531   2.563  0.1087 -0.0887 -0.0392
   72MOL    C7215834   0.624   1.570   2.566  0.5225  0.6113 -0.6249
   72MOL    H7315835   0.368   1.557   2.954  1.3261 -0.1093 -0.5276
   72MOL    H7415836   0.286   1.545   2.792  0.4901 -1.6206 -0.6527
   72MOL    H7515837   0.587   1.542   2.820  1.0387 -0.6496 -1.2109
   72MOL    H7615838   0.692   1.639   2.617  0.5155  0.0321  0.1754
   72MOL    H7715839   0.665   1.471   2.548 -1.4683 -0.1135 -1.2396
   72MOL    H7815840   0.606   1.625   2.473  0.5257  4.3300  1.4420
   72MOL    C7915841   0.492   1.356   2.812  0.3282  0.3049  0.3039
   72MOL    C8015842   0.634   1.291   2.823  1.0004  0.1628  0.1502
   72MOL    C8115843   0.621   1.143   2.801  0.1683 -0.5508 -0.8237
   72MOL    O8215844   0.517   1.082   2.799 -0.3600  0.2733 -0.9756
   72MOL    C8315845   0.754   1.067   2.800  0.1521 -0.0855  0.2953
   72MOL    H8415846   0.435   1.303   2.736  0.5754 -0.7296  0.8300
   72MOL    H8515847   0.429   1.330   2.897 -0.3276 -2.3807 -0.9788
   72MOL    H8615848   0.700   1.317   2.741  0.1799 -1.1702 -0.9639
   72MOL    H8715849   0.817   1.091   2.885  0.0155 -0.1943  0.4266
   72MOL    H8815850   0.802   1.105   2.709 -0.8974  1.6761  0.4558
   72MOL    H8915851   0.737   0.959   2.795  1.4519 -0.2413 -1.1940
   72MOL    C9015852   0.713   1.328   2.952 -0.7621  0.0442 -0.2969
   72MOL    C9115853   0.859   1.367   2.935 -0.0526  0.1554 -0.3258
   72MOL    C9215854   0.878   1.501   2.861 -0.1981 -0.5756 -0.4105
   72MOL    O9315855   0.900   1.494   2.743 -0.3337 -0.6497 -0.1029
   72MOL    C9415856   0.852   1.630   2.943  0.0134  0.5299  0.9868
   72MOL    H9515857   0.668   1.416   2.997 -0.7397 -0.2498  0.3094
   72MOL    H9615858   0.711   1.252   3.030 -1.0195  1.3459  0.9735
   72MOL    H9715859   0.895   1.287   2.870 -0.0937 -0.3651  0.2817
   72MOL    H9815860   0.813   1.716   2.889 -0.0647 -0.6845 -0.9219
   72MOL    H9915861   0.773   1.603   3.014 -0.7062  2.6848  1.0439
   72MOL   H10015862   0.939   1.675   2.991  0.6158 -0.7507  1.0967
   72MOL   C10115863   0.940   1.351   3.064  0.0086  0.2087 -0.0774
   72MOL   C10215864   1.089   1.379   3.050 -0.4784 -0.8228  0.5861
   72MOL   C10315865   1.166   1.245   3.053 -0.1823  0.3926 -0.4719
   72MOL   O10415866   1.245   1.202   3.141 -0.5371 -0.5998  0.1629
   72MOL   C10515867   1.140   1.157   2.932 -0.7647 -0.3841  0.5029
   72MOL   H10615868   0.904   1.422   3.139  2.9518 -0.0094  1.5946
   72MOL   H10715869   0.914   1.259   3.115 -0.3714 -0.5685 -1.6363
   72MOL   H10815870   1.117   1.412   2.950  0.8650 -0.3735  1.1047
   72MOL   H10915871   1.062   1.090   2.968  0.7339 -2.8794 -0.7319
   72MOL   H11015872   1.114   1.224   2.851 -1.0577 -0.8763  0.1911
   72MOL   H11115873   1.222   1.088   2.914  0.0619  0.0792  2.3529
   72MOL   C11215874   1.138   1.483   3.153 -0.4886 -0.5293 -0.5050
   72MOL   C11315875   1.281   1.544   3.112  0.5716  0.5482  0.1623
   72MOL   C11415876   1.365   1.581   3.237 -0.0806  0.7170  0.3206
   72MOL   O11515877   1.352   1.694   3.287 -0.1952  0.2182 -0.5404
   72MOL   C11615878   1.448   1.475   3.308  0.3988 -0.1506 -0.6217
   72MOL   H11715879   1.137   1.435   3.251  0.5822 -2.0255 -1.2270
   72MOL   H11815880   1.072   1.569   3.169  0.8916  0.6072 -0.7674
   72MOL   H11915881   1.344   1.464   3.074  2.7621  2.2270  0.1594
   72MOL   H12015882   1.418   1.382   3.261 -0.7081 -0.1393  0.0624
   72MOL   H12115883   1.555   1.494   3.292  0.7063 -1.1972  0.1838
   72MOL   H12215884   1.436   1.464   3.415 -0.3465 -3.2298 -0.9826
   72MOL   C12315885   1.265   1.663   3.010 -0.6394  1.2959 -0.2507
   72MOL   C12415886   1.394   1.751   2.972 -0.4390 -0.6323  0.2661
   72MOL   C12515887   1.352   1.899   2.964 -0.1425  0.9978  0.3852
   72MOL   O12615888   1.291   1.938   2.864  0.3087  0.2925  0.5336
   72MOL   C12715889   1.376   1.987   3.080  0.0842  0.3974  0.1908
   72MOL   H12815890   1.188   1.735   3.037  0.6907  2.4013  0.6789
   72MOL   H12915891   1.228   1.604   2.927 -1.2459  0.6550  0.4653
   72MOL   H13015892   1.464   1.763   3.055 -1.4624 -0.7116  1.1517
   72MOL   H13115893   1.282   2.022   3.123 -0.0842  1.2287 -0.8119
   72MOL   H13215894   1.429   2.079   3.054  0.7583  0.8194  2.9328
   72MOL   H13315895   1.430   1.932   3.156 -1.8485 -0.6810  0.8306
   72MOL   C13415896   1.480   1.709   2.853  0.5152 -0.2890 -0.0220
   72MOL   C13515897   1.633   1.719   2.884 -0.0598  0.6034  0.2447
   72MOL   C13615898   1.674   1.599   2.976 -0.6173  0.8804 -0.5483
   72MOL   O13715899   1.603   1.507   3.009 -0.5560  0.1249  0.0886
   72MOL   C13815900   1.818   1.611   3.036  0.0724 -0.1157  0.1992
   72MOL   H13915901   1.454   1.776   2.772 -0.0602 -1.3411 -0.7242
   72MOL   H14015902   1.442   1.616   2.809  2.1766 -0.2577 -1.5603
   72MOL   H14115903   1.646   1.812   2.939 -0.7551 -0.0455  1.5467
   72MOL   H14215904   1.858   1.702   3.080  1.9279 -0.2827 -1.0652
   72MOL   H14315905   1.885   1.587   2.954 -1.6177  1.0090 -1.5568
   72MOL   H14415906   1.837   1.536   3.114 -0.3188 -0.8539 -0.4075
   72MOL   C14515907   1.723   1.714   2.752  0.0092  0.2345  0.0744
   72MOL   C14615908   1.705   1.829   2.654 -0.4467  0.1683  0.2377
   72MOL   C14715909   1.741   1.958   2.724 -0.7752 -0.0881  0.0686
   72MOL   O14815910   1.852   1.986   2.764 -0.2870  0.0274 -0.2437
   72MOL   C14915911   1.623   2.059   2.735 -0.4185 -0.0014  0.0733
   72MOL   H15015912   1.695   1.617   2.710 -1.7820  1.2492 -1.1639
   72MOL   H15115913   1.830   1.715   2.772 -0.3084 -1.6620  2.0675
   72MOL   H15215914   1.602   1.836   2.617 -0.1759  0.0341 -0.5588
   72MOL   H15315915   1.550   2.033   2.658 -0.4029 -1.8047  0.6318
   72MOL   H15415916   1.578   2.058   2.834  1.9235  1.1717  1.1881
   72MOL   H15515917   1.667   2.156   2.712  1.0807 -1.1249 -1.9475
   72MOL   C15615918   1.790   1.805   2.525 -0.0560 -0.2078  0.2708
   72MOL   C15715919   1.758   1.905   2.408  0.4241  0.0204 -0.2270
   72MOL   C15815920   1.701   1.829   2.287 -0.6176 -0.0590 -0.3578
   72MOL   O15915921   1.768   1.810   2.181  0.1675 -0.0051  0.4113
   72MOL   C16015922   1.556   1.783   2.289  0.2065 -0.5161  0.2428
   72MOL   H16115923   1.895   1.812   2.553  0.6491 -2.0007 -1.7402
   72MOL   H16215924   1.782   1.704   2.484 -3.6479 -0.5245  1.5362
   72MOL   H16315925   1.677   1.965   2.449 -1.4479 -1.2852 -1.8866
   72MOL   H16415926   1.497   1.852   2.349 -0.4164  0.1959 -1.1688
   72MOL   H16515927   1.544   1.681   2.323  1.1538  0.1668  2.6796
   72MOL   H16615928   1.516   1.789   2.187 -0.1683 -2.2196  0.2863
   72MOL   C16715929   1.874   1.995   2.379  0.7130 -0.5615  0.0636
   72MOL   C16815930   1.847   2.139   2.311  0.3461  0.1755  0.3778
   72MOL   C16915931   1.759   2.221   2.405 -0.0115 -0.0735  0.6224
   72MOL   O17015932   1.641   2.236   2.386  0.1743 -0.2870  0.2124
   72MOL   C17115933   1.826   2.275   2.534 -0.3429  0.7638  0.0185
   72MOL   H17215934   1.934   2.000   2.470  1.6078 -1.7479 -0.4436
   72MOL   H17315935   1.939   1.941   2.310  0.1567 -0.9913 -0.1339
   72MOL   H17415936   1.939   2.197   2.318 -0.3412  1.5686 -1.5668
   72MOL   H17515937   1.752   2.312   2.603 -0.6061 -0.5237  0.4485
   72MOL   H17615938   1.889   2.360   2.507  2.0819 -1.0190 -0.1144
   72MOL   H17715939   1.887   2.212   2.599 -0.0158  0.0871 -0.9258
   72MOL   C17815940   1.800   2.121   2.163  0.0255 -0.4452 -0.5104
   72MOL   C17915941   1.819   2.244   2.068  0.6398 -0.7550 -0.1926
   72MOL   C18015942   1.732   2.233   1.938 -0.1079  0.3245 -0.2023
   72MOL   O18115943   1.787   2.222   1.830  0.1281 -0.2871  0.2007
   72MOL   C18215944   1.583   2.222   1.961  0.0978 -0.0377  0.0588
   72MOL   H18315945   1.855   2.041   2.114  1.3896  0.9577 -1.3575
   72MOL   H18415946   1.695   2.093   2.164  0.4438 -2.0146  2.5197
   72MOL   H18515947   1.785   2.339   2.111 -0.0383  0.7743 -3.9584
   72MOL   H18615948   1.558   2.262   2.059 -2.5128 -0.7321 -0.2978
   72MOL   H18715949   1.553   2.118   1.972  0.2863 -0.0378  0.5697
   72MOL   H18815950   1.524   2.273   1.885  0.9136 -1.2297 -1.3982
   72MOL   C18915951   1.972   2.257   2.034  0.4039 -0.7440  0.5707
   72MOL   C19015952   2.010   2.396   1.973 -0.8441  0.5788 -0.2923
   72MOL   C19115953   1.972   2.519   2.061 -0.7306 -0.3153  0.9941
   72MOL   O19215954   2.003   2.511   2.181  0.7112  0.0027 -0.1111
   72MOL   C19315955   1.907   2.641   2.009 -0.1164 -0.2987 -0.2981
   72MOL   H19415956   2.022   2.257   2.131  1.1403  1.7723  0.2299
   72MOL   H19515957   2.013   2.184   1.964 -0.7819 -1.0433  0.1806
   72MOL   H19615958   1.949   2.409   1.884 -1.4867 -3.1112 -0.4841
   72MOL   H19715959   1.826   2.616   1.939 -1.4173  1.4478  0.5247
   72MOL   H19815960   1.859   2.701   2.086 -0.6465  0.5760 -1.2873
   72MOL   H19915961   1.977   2.698   1.947  3.4427 -3.0457  1.0498
   72MOL   C20015962   2.164   2.400   1.941  0.6996 -0.3961  0.7780
   72MOL   C20115963   2.214   2.525   1.868  0.0831  0.1753 -0.2563
   72MOL   C20215964   2.154   2.528   1.724  0.2299  0.4849 -0.4284
   72MOL   O20315965   2.074   2.619   1.689 -0.1688 -0.0416 -0.5541
   72MOL   C20415966   2.200   2.428   1.616  0.5927  0.0350 -0.5232
   72MOL   H20515967   2.216   2.382   2.035  2.1557  0.3871  0.1208
   72MOL   H20615968   2.199   2.311   1.888  3.3313  0.6324  0.7576
   72MOL   H20715969   2.177   2.612   1.923  0.8884  0.6112 -0.3924
   72MOL   H20815970   2.147   2.453   1.524 -0.6372  3.4057  0.9836
   72MOL   H20915971   2.306   2.436   1.595  0.4718  0.2021 -1.0866
   72MOL   H21015972   2.178   2.324   1.638 -0.7738  0.2472 -0.7950
   72MOL   C21115973   2.370   2.548   1.873 -0.0412 -1.2814 -0.5106
   72MOL   C21215974   2.396   2.697   1.837 -0.0244 -0.6215  1.1425
   72MOL   C21315975   2.493   2.709   1.719  0.3950 -0.5186 -1.1641
   72MOL   O21415976   2.460   2.670   1.607 -0.0343 -0.2911  0.4547
   72MOL   C21515977   2.631   2.779   1.738 -0.8771  0.0067  0.5442
   72MOL   H21615978   2.409   2.538   1.974 -0.1904  3.5736  0.1535
   72MOL   H21715979   2.431   2.480   1.814 -1.4876  0.0127 -3.6215
   72MOL   H21815980   2.427   2.752   1.926 -0.5984  3.2904 -0.9676
   72MOL   H21915981   2.676   2.741   1.830 -1.4447  0.9508  1.2168
   72MOL   H22015982   2.700   2.753   1.658 -1.0445 -1.8731  0.9929
   72MOL   H22115983   2.627   2.888   1.744 -0.3237  0.0702 -0.0992
   72MOL   H22215984   2.309   2.758   1.813 -0.6477 -1.0977  2.1350
   73MOL     C115985   2.088   3.430   3.742 -0.2235  0.3222 -0.1963
   73MOL     C215986   2.011   3.562   3.722 -0.5207 -0.2148  0.0906
   73MOL     C315987   1.916   3.556   3.600  0.5548  0.0937 -0.7667
   73MOL     O415988   1.798   3.568   3.618 -0.0172 -0.0443  0.8024
   73MOL     C515989   1.973   3.548   3.464  0.3519  0.2111 -0.1170
   73MOL     H615990   2.021   3.359   3.790 -1.0360  0.3494 -1.2662
   73MOL     H715991   2.168   3.437   3.815  0.4251 -1.7309 -0.6912
   73MOL     H815992   2.087   3.637   3.700 -1.4256  0.7816  0.3196
   73MOL     H915993   2.019   3.450   3.455 -0.0911  0.0595 -0.7633
   73MOL    H1015994   1.898   3.553   3.385 -1.7029 -2.1432  1.6271
   73MOL    H1115995   2.052   3.620   3.442 -2.2296  2.9439 -0.7417
   73MOL    H1215996   2.124   3.389   3.648  0.9281 -0.3705  0.5523
   73MOL    C1315997   1.949   3.612   3.858 -0.2893 -0.0800 -0.5474
   73MOL    C1415998   1.877   3.745   3.868 -0.0189 -0.4622  0.7559
   73MOL    C1515999   1.952   3.857   3.792 -0.4306 -0.1182 -0.1553
   73MOL    O1616000   2.036   3.930   3.857  0.6478 -0.3256  0.1417
   73MOL    C1716001   1.920   3.891   3.640  0.4088  0.3561 -0.8076
   73MOL    H1816002   1.893   3.534   3.910 -0.0641  0.4444  0.5066
   73MOL    H1916003   2.028   3.616   3.933  0.1497 -1.6172 -0.9153
   73MOL    H2016004   1.786   3.754   3.809 -0.0508  1.6566  1.0904
   73MOL    H2116005   2.000   3.848   3.581 -1.0326 -0.1009 -2.4488
   73MOL    H2216006   1.835   3.838   3.597  1.1140  0.0105 -1.7677
   73MOL    H2316007   1.933   3.998   3.622  0.3941  0.1109 -2.3317
   73MOL    C2416008   1.846   3.783   4.011  0.3211  0.1373  0.3850
   73MOL    C2516009   1.731   3.887   4.023 -0.1007 -0.2271 -0.0268
   73MOL    C2616010   1.598   3.833   3.972 -0.2412  0.2548  0.1194
   73MOL    O2716011   1.567   3.716   3.995 -0.3750  0.4826 -0.2524
   73MOL    C2816012   1.530   3.920   3.864  0.3436 -0.5896  0.1898
   73MOL    H2916013   1.809   3.694   4.063 -0.3825  0.5150  0.5343
   73MOL    H3016014   1.937   3.812   4.062 -0.9626  2.0195  1.6510
   73MOL    H3116015   1.764   3.960   3.949 -0.0459 -1.4684 -1.2536
   73MOL    H3216016   1.481   3.869   3.781  0.0220 -0.1077  0.0757
   73MOL    H3316017   1.449   3.967   3.921 -0.7864  0.5287 -2.2168
   73MOL    H3416018   1.596   4.001   3.831 -2.8930  0.7741 -3.3708
   73MOL    C3516019   1.712   3.956   4.160  0.4760 -0.2918  0.6031
   73MOL    C3616020   1.682   3.867   4.286 -0.3618  0.3444 -0.0929
   73MOL    C3716021   1.811   3.819   4.356  0.4975 -0.1766 -0.1282
   73MOL    O3816022   1.882   3.899   4.418 -0.0744  0.0087  0.0596
   73MOL    C3916023   1.852   3.671   4.342 -0.3994 -0.1058  0.5132
   73MOL    H4016024   1.628   4.024   4.144  0.1857 -1.0140 -1.0859
   73MOL    H4116025   1.794   4.026   4.176  1.0102 -0.3329 -1.7130
   73MOL    H4216026   1.638   3.776   4.244  0.5802  0.1692 -0.7050
   73MOL    H4316027   1.760   3.614   4.328  0.6640 -1.9813  0.9444
   73MOL    H4416028   1.902   3.625   4.427  0.0128 -0.6655 -0.0247
   73MOL    H4516029   1.908   3.668   4.249 -2.2697  0.7975 -0.6695
   73MOL    C4616030   1.580   3.933   4.382  0.0331  0.2322  0.0020
   73MOL    C4716031   1.619   4.064   4.454 -0.2960 -0.5559  0.4798
   73MOL    C4816032   1.598   4.190   4.369 -0.4609  0.0865  0.3313
   73MOL    O4916033   1.514   4.198   4.282 -0.3020  1.2731  0.3936
   73MOL    C5016034   1.686   4.310   4.405 -0.8004 -0.8043 -0.2351
   73MOL    H5116035   1.570   3.864   4.466 -0.2812  2.8058  2.1540
   73MOL    H5216036   1.483   3.949   4.336  0.4434  0.0696 -0.9536
   73MOL    H5316037   1.726   4.056   4.477 -0.6476  0.5857  2.6971
   73MOL    H5416038   1.698   4.323   4.513  1.9353  1.5554 -0.7636
   73MOL    H5516039   1.784   4.315   4.358 -0.8960 -2.0747 -0.5794
   73MOL    H5616040   1.625   4.395   4.373  2.2934  1.4869 -0.3287
   73MOL    C5716041   1.545   4.081   4.582  0.2987  0.0271 -0.9828
   73MOL    C5816042   1.628   4.008   4.702  0.0369 -0.7976  0.7880
   73MOL    C5916043   1.736   4.104   4.755 -0.5954  0.1734  0.2470
   73MOL    O6016044   1.720   4.224   4.766 -0.1410  0.4031  0.4506
   73MOL    C6116045   1.863   4.035   4.805 -0.5736 -0.1769 -0.8220
   73MOL    H6216046   1.444   4.040   4.581 -0.1605  1.1519 -2.0911
   73MOL    H6316047   1.514   4.184   4.601 -0.3653 -0.3876  0.2409
   73MOL    H6416048   1.678   3.922   4.658 -0.4287 -0.6026 -0.1288
   73MOL    H6516049   1.949   4.101   4.807 -1.1476  0.5587 -0.0741
   73MOL    H6616050   1.850   3.996   4.906  0.8286  0.7301 -0.2738
   73MOL    H6716051   1.895   3.946   4.752 -4.8930 -2.5700  0.3550
   73MOL    C6816052   1.529   3.961   4.820 -0.1205  0.0350 -0.2029
   73MOL    C6916053   1.587   3.866   4.930 -0.8070  0.2878  0.0208
   73MOL    C7016054   1.672   3.750   4.868 -0.1940 -0.6820  0.2347
   73MOL    O7116055   1.645   3.704   4.758  0.7934 -0.5001  0.0818
   73MOL    C7216056   1.779   3.692   4.954  0.4633 -0.0164  0.5369
   73MOL    H7316057   1.498   4.057   4.862  1.3494  0.9268 -1.0804
   73MOL    H7416058   1.443   3.916   4.771 -0.2923 -0.6243  0.7045
   73MOL    H7516059   1.661   3.923   4.985  2.6177 -3.5096 -0.4168
   73MOL    H7616060   1.789   3.751   5.045 -0.0093  1.5033 -0.3788
   73MOL    H7716061   1.769   3.588   4.987  0.6431 -0.1866  0.0554
   73MOL    H7816062   1.866   3.703   4.889 -0.7760 -0.7782 -1.2956
   73MOL    C7916063   1.473   3.816   5.022 -0.6356 -0.1529 -0.1191
   73MOL    C8016064   1.487   3.858   5.175  0.3012 -0.4688  0.0736
   73MOL    C8116065   1.628   3.830   5.234 -0.3179 -0.1001  0.3958
   73MOL    O8216066   1.659   3.717   5.266  0.1014 -0.2335 -0.8334
   73MOL    C8316067   1.719   3.943   5.263  0.5240  0.7158  0.1380
   73MOL    H8416068   1.463   3.709   5.007  2.7273 -0.2567 -2.1192
   73MOL    H8516069   1.379   3.852   4.979 -1.9844 -1.9871  1.2231
   73MOL    H8616070   1.474   3.965   5.186 -0.1190 -0.5727  0.6462
   73MOL    H8716071   1.803   3.935   5.195  0.1670  0.7479 -0.3127
   73MOL    H8816072   1.743   3.932   5.369 -0.2179  1.9826  0.4519
   73MOL    H8916073   1.674   4.041   5.245 -0.5070  0.1701 -0.2996
   73MOL    C9016074   1.375   3.788   5.250  0.5584 -0.1948  0.3224
   73MOL    C9116075   1.365   3.808   5.400  0.1780 -0.4930  1.1050
   73MOL    C9216076   1.349   3.954   5.450  0.3002  0.1438 -0.2923
   73MOL    O9316077   1.393   3.985   5.560  0.2293  0.3852  0.2913
   73MOL    C9416078   1.248   4.046   5.385  0.1635  0.0860  0.4357
   73MOL    H9516079   1.285   3.825   5.201  2.5052  1.9083 -1.8132
   73MOL    H9616080   1.389   3.681   5.233 -0.2659 -0.4626  1.2487
   73MOL    H9716081   1.462   3.772   5.436  2.2016  2.2036 -1.3611
   73MOL    H9816082   1.281   4.149   5.396  0.7840 -0.0405 -0.2000
   73MOL    H9916083   1.226   4.027   5.280 -1.9336  2.8779  0.3205
   73MOL   H10016084   1.150   4.039   5.433 -0.3610 -2.8029 -0.9162
   73MOL   C10116085   1.262   3.705   5.460 -0.1161  0.3730 -1.3330
   73MOL   C10216086   1.254   3.694   5.616 -0.4712 -0.3028 -0.3580
   73MOL   C10316087   1.378   3.642   5.695  0.5224  0.0388 -0.3897
   73MOL   O10416088   1.422   3.531   5.692 -0.0936  0.0399 -0.5377
   73MOL   C10516089   1.445   3.743   5.790 -0.3804 -0.4174  0.5001
   73MOL   H10616090   1.162   3.730   5.426 -1.2367 -0.7181  1.0202
   73MOL   H10716091   1.279   3.603   5.425 -1.5888  0.1048 -1.2700
   73MOL   H10816092   1.244   3.797   5.651  2.2896  0.7534 -2.4175
   73MOL   H10916093   1.440   3.836   5.734 -4.0230 -0.9223 -0.1373
   73MOL   H11016094   1.380   3.751   5.878  0.9667 -0.1364  1.4793
   73MOL   H11116095   1.552   3.725   5.799 -0.2193 -0.6586 -1.7548
   73MOL   C11216096   1.125   3.618   5.661 -0.7504 -0.2450  0.0630
   73MOL   C11316097   1.096   3.476   5.599  0.1190 -0.5149 -0.2887
   73MOL   C11416098   1.010   3.482   5.475 -0.1071 -0.2200  0.0395
   73MOL   O11516099   0.892   3.516   5.482  0.1501  0.0587  0.1263
   73MOL   C11616100   1.063   3.437   5.335  0.0474 -0.1757 -1.1877
   73MOL   H11716101   1.041   3.683   5.636  0.6689  0.8775 -1.9529
   73MOL   H11816102   1.142   3.620   5.768  1.1587 -2.2472 -0.1905
   73MOL   H11916103   1.190   3.442   5.556  1.3265  2.1087  0.1531
   73MOL   H12016104   0.979   3.424   5.268 -0.5714  0.4442 -0.5399
   73MOL   H12116105   1.132   3.507   5.288  1.3652 -0.0209  0.8787
   73MOL   H12216106   1.110   3.340   5.351 -3.1066 -1.5094  0.4746
   73MOL   C12316107   1.045   3.375   5.704  0.0906 -0.1344  0.0775
   73MOL   C12416108   1.043   3.228   5.670 -0.2136 -0.4742 -0.5769
   73MOL   C12516109   1.179   3.172   5.636 -0.5328 -0.1700 -0.8762
   73MOL   O12616110   1.190   3.104   5.536  0.2897  0.2412 -0.2197
   73MOL   C12716111   1.286   3.208   5.737 -0.1949 -0.6960  0.3916
   73MOL   H12816112   0.948   3.413   5.736  0.3184 -0.5753  1.2878
   73MOL   H12916113   1.120   3.376   5.783 -0.1142 -0.4211  0.2759
   73MOL   H13016114   1.028   3.163   5.756  2.5308  1.3805  1.3400
   73MOL   H13116115   1.362   3.130   5.746 -0.3898 -0.9661 -0.3380
   73MOL   H13216116   1.234   3.195   5.832 -0.1919 -1.0917  0.3404
   73MOL   H13316117   1.324   3.309   5.725  0.7951 -1.3928 -2.8175
   73MOL   C13416118   0.935   3.178   5.565 -0.2442 -0.2185  0.3220
   73MOL   C13516119   0.877   3.038   5.582 -0.1032  0.1064 -0.3017
   73MOL   C13616120   0.810   3.030   5.725 -0.2234  0.2213  0.1242
   73MOL   O13716121   0.754   3.122   5.785  0.7243 -0.0028 -0.3249
   73MOL   C13816122   0.805   2.893   5.794 -0.0084  0.3385  0.0125
   73MOL   H13916123   0.975   3.185   5.464 -0.8903 -0.9991  0.0033
   73MOL   H14016124   0.851   3.247   5.563  1.5718  2.0313 -0.6778
   73MOL   H14116125   0.950   2.958   5.591  0.2212  0.2533 -1.5260
   73MOL   H14216126   0.873   2.828   5.739  2.1916  3.1518 -0.7254
   73MOL   H14316127   0.706   2.849   5.804 -0.4277  1.5057  1.2780
   73MOL   H14416128   0.851   2.902   5.893  1.5614  0.3193 -0.6926
   73MOL   C14516129   0.794   2.993   5.465 -0.0543  0.1535 -0.0313
   73MOL   C14616130   0.666   3.070   5.421  0.5714 -0.2739  0.1103
   73MOL   C14716131   0.687   3.207   5.360 -0.5082 -0.4769  0.4126
   73MOL   O14816132   0.779   3.228   5.279 -0.1677  0.0384 -0.4533
   73MOL   C14916133   0.594   3.323   5.404 -0.0705 -0.3387  0.2011
   73MOL   H15016134   0.763   2.890   5.479 -1.0379  0.4056 -0.2888
   73MOL   H15116135   0.866   2.987   5.383  1.9556 -1.9730  1.8285
   73MOL   H15216136   0.609   3.090   5.512  2.1361  0.4752  0.9502
   73MOL   H15316137   0.490   3.316   5.370 -0.2913  0.4553  0.7037
   73MOL   H15416138   0.581   3.326   5.512 -3.9108  0.3889 -0.1764
   73MOL   H15516139   0.625   3.423   5.372  1.1575 -0.3163  1.4595
   73MOL   C15616140   0.584   2.984   5.317 -0.1096 -0.4923 -0.4209
   73MOL   C15716141   0.448   3.041   5.263 -0.7857  0.1177 -0.7248
   73MOL   C15816142   0.353   3.058   5.384 -0.5272 -0.1281 -0.2973
   73MOL   O15916143   0.288   3.160   5.396 -0.3489  0.5015 -0.3044
   73MOL   C16016144   0.333   2.954   5.486 -0.6999  0.0958 -0.2308
   73MOL   H16116145   0.651   2.966   5.233  2.5052  0.3191  1.4033
   73MOL   H16216146   0.569   2.884   5.357 -1.1765 -0.0780  0.2680
   73MOL   H16316147   0.466   3.141   5.224  1.7535 -1.2866 -3.3706
   73MOL   H16416148   0.407   2.874   5.490  0.0517  0.5432 -3.9213
   73MOL   H16516149   0.242   2.901   5.459 -0.5589  0.2450 -1.0081
   73MOL   H16616150   0.322   3.000   5.584  2.8538 -2.9556  1.7559
   73MOL   C16716151   0.375   2.949   5.154  0.3347  0.2742 -0.1384
   73MOL   C16816152   0.466   2.919   5.025  0.0242  0.3085  0.4625
   73MOL   C16916153   0.465   3.047   4.942 -0.1461 -0.5563  0.3491
   73MOL   O17016154   0.376   3.088   4.873  0.2440 -0.3513  0.2661
   73MOL   C17116155   0.591   3.130   4.943  0.1424  0.5975 -0.0730
   73MOL   H17216156   0.361   2.852   5.201  0.7659  0.5155  0.4909
   73MOL   H17316157   0.276   2.983   5.123  0.1734  0.9746  1.1178
   73MOL   H17416158   0.572   2.897   5.042 -0.1979 -1.0535  0.1342
   73MOL   H17516159   0.654   3.077   5.015 -0.6613 -0.1143  0.1124
   73MOL   H17616160   0.581   3.233   4.978  3.0659  1.1440 -0.6378
   73MOL   H17716161   0.642   3.131   4.846 -0.8568  1.8990 -0.6055
   73MOL   C17816162   0.418   2.795   4.930  0.5409 -0.2389  0.6404
   73MOL   C17916163   0.412   2.651   4.979 -0.3227 -0.4291  0.7097
   73MOL   C18016164   0.553   2.595   4.998 -0.4889  0.6169 -0.0814
   73MOL   O18116165   0.641   2.625   4.915  0.2372  0.6072 -0.5523
   73MOL   C18216166   0.593   2.534   5.131  0.0147 -0.8205 -0.3845
   73MOL   H18316167   0.316   2.817   4.899  0.2289  0.7066  2.2925
   73MOL   H18416168   0.477   2.799   4.838 -0.2511 -3.5172 -0.0996
   73MOL   H18516169   0.347   2.648   5.066 -0.0194  0.1597  0.9621
   73MOL   H18616170   0.658   2.607   5.178  0.9109 -1.6968 -0.2341
   73MOL   H18716171   0.665   2.453   5.113  1.4796  0.1783  0.8997
   73MOL   H18816172   0.502   2.501   5.182 -0.0019 -2.3806 -1.3635
   73MOL   C18916173   0.328   2.562   4.877  0.1546 -0.1200 -0.8721
   73MOL   C19016174   0.291   2.423   4.945 -0.4170 -0.1209  0.2473
   73MOL   C19116175   0.150   2.417   4.994 -0.0630 -0.0892 -0.0116
   73MOL   O19216176   0.061   2.354   4.931  0.0114 -0.4927 -0.1298
   73MOL   C19316177   0.108   2.493   5.127 -0.1329 -0.7457  0.3438
   73MOL   H19416178   0.236   2.617   4.858  1.1770  1.3575 -1.6131
   73MOL   H19516179   0.384   2.560   4.784 -1.1339  0.5916 -1.6706
   73MOL   H19616180   0.356   2.413   5.032  0.3313  1.5281 -0.0919
   73MOL   H19716181   0.000   2.487   5.145 -0.1785 -0.6651  0.0976
   73MOL   H19816182   0.157   2.452   5.215 -0.0425 -1.6569 -0.1173
   73MOL   H19916183   0.129   2.599   5.123 -1.6892 -0.3542  2.0298
   73MOL   C20016184   0.323   2.306   4.842  0.3162 -0.2448  0.3118
   73MOL   C20116185   0.318   2.167   4.897 -0.4151  0.5345 -0.3765
   73MOL   C20216186   0.404   2.152   5.020 -0.4682 -0.3907  0.1946
   73MOL   O20316187   0.524   2.170   5.014 -1.0097 -0.2654 -0.6010
   73MOL   C20416188   0.338   2.112   5.150  0.6351  0.4374 -0.8136
   73MOL   H20516189   0.256   2.308   4.755 -0.2373 -0.6617  0.7245
   73MOL   H20616190   0.426   2.325   4.812  0.5013 -1.8287 -0.0912
   73MOL   H20716191   0.215   2.141   4.924 -1.0085  0.7809 -2.3723
   73MOL   H20816192   0.336   2.004   5.165  0.7370  0.7346  1.6263
   73MOL   H20916193   0.383   2.162   5.236  0.1373 -0.1966 -0.1788
   73MOL   H21016194   0.234   2.143   5.146  0.2422 -0.7674  0.0536
   73MOL   C21116195   0.340   2.065   4.790 -0.5015  0.3507  0.9259
   73MOL   C21216196   0.461   2.089   4.687  0.0525 -0.0963 -0.2630
   73MOL   C21316197   0.450   1.984   4.575  0.2615 -0.6108 -0.1210
   73MOL   O21416198   0.450   1.866   4.602 -0.0121  0.3609  0.3099
   73MOL   C21516199   0.427   2.032   4.429 -0.1430  0.0525 -0.5727
   73MOL   H21616200   0.342   1.963   4.829 -0.5259  0.9598  2.5896
   73MOL   H21716201   0.247   2.076   4.734 -0.5012 -0.6562  0.7118
   73MOL   H21816202   0.556   2.070   4.738 -0.6093 -1.4613  0.5047
   73MOL   H21916203   0.405   2.138   4.413 -0.3117  0.1666  0.3665
   73MOL   H22016204   0.515   2.004   4.371  0.3485 -0.0187  0.1954
   73MOL   H22116205   0.332   1.991   4.396 -0.5130  1.0485 -0.7696
   73MOL   H22216206   0.453   2.188   4.644 -1.0922 -0.3101 -0.5381
   74MOL     C116207   4.472   3.500   6.817 -0.7476  0.0177 -0.0761
   74MOL     C216208   4.369   3.506   6.697 -0.1452 -0.7965 -0.4088
   74MOL     C316209   4.424   3.406   6.586 -0.2148 -0.3129 -0.1910
   74MOL     O416210   4.531   3.340   6.597  0.4753 -0.5238  0.0406
   74MOL     C516211   4.351   3.406   6.454  0.0864 -0.5077 -0.5289
   74MOL     H616212   4.444   3.565   6.900 -1.2701 -0.6564  0.2846
   74MOL     H716213   4.570   3.531   6.780 -1.5225  0.2504 -2.0307
   74MOL     H816214   4.367   3.603   6.648 -2.2648 -0.3026  0.5649
   74MOL     H916215   4.247   3.379   6.472 -0.1178  0.6539  0.0594
   74MOL    H1016216   4.366   3.504   6.409 -1.2222 -0.1495 -0.2190
   74MOL    H1116217   4.399   3.335   6.386 -0.2814 -3.4230  2.1470
   74MOL    H1216218   4.477   3.397   6.852 -0.6098  0.3457  0.8656
   74MOL    C1316219   4.232   3.477   6.761 -0.1376 -0.3418 -0.3255
   74MOL    C1416220   4.108   3.534   6.688  1.0200  1.0935  0.0476
   74MOL    C1516221   4.107   3.688   6.670 -0.1528  0.4246  0.0014
   74MOL    O1616222   4.115   3.764   6.766  0.0295  0.3212  0.2478
   74MOL    C1716223   4.108   3.748   6.531 -0.3052 -0.1670  0.2354
   74MOL    H1816224   4.219   3.369   6.769 -0.2565 -0.1634  2.0907
   74MOL    H1916225   4.220   3.509   6.864  0.4572 -1.2131  0.0138
   74MOL    H2016226   4.115   3.496   6.586  1.3334 -3.2188  1.5583
   74MOL    H2116227   4.200   3.731   6.475  0.9442 -2.2799  2.8262
   74MOL    H2216228   4.015   3.723   6.480  0.3603 -2.1351 -0.0403
   74MOL    H2316229   4.094   3.856   6.532 -0.8493 -0.1789 -1.8921
   74MOL    C2416230   3.969   3.488   6.744 -0.3569 -0.3890 -0.1721
   74MOL    C2516231   3.840   3.516   6.661 -0.0859 -0.2255  0.3458
   74MOL    C2616232   3.846   3.443   6.524  0.0094  0.1199 -0.0858
   74MOL    O2716233   3.928   3.356   6.498  0.1914 -0.1563 -0.8776
   74MOL    C2816234   3.747   3.489   6.416 -0.3432  0.0551  0.3892
   74MOL    H2916235   3.972   3.379   6.756  0.5150 -0.3061  0.4007
   74MOL    H3016236   3.961   3.527   6.845 -3.2975 -0.3882 -0.3554
   74MOL    H3116237   3.837   3.625   6.651  0.5680 -0.1648  0.8236
   74MOL    H3216238   3.786   3.473   6.315  0.0070  1.4394  0.2961
   74MOL    H3316239   3.645   3.451   6.411 -0.9015  1.8144 -3.5793
   74MOL    H3416240   3.731   3.595   6.434  0.4908  0.2310  0.1099
   74MOL    C3516241   3.724   3.451   6.742  0.2842 -0.1208 -0.3709
   74MOL    C3616242   3.585   3.502   6.708 -0.1895 -0.2028 -0.8479
   74MOL    C3716243   3.481   3.411   6.780 -0.0676 -0.0708 -0.3571
   74MOL    O3816244   3.477   3.422   6.903  0.4925  0.1284  0.0219
   74MOL    C3916245   3.388   3.324   6.702  0.4416  0.7402  0.0454
   74MOL    H4016246   3.738   3.478   6.847  0.4065 -0.4608 -0.2979
   74MOL    H4116247   3.727   3.342   6.744 -1.1099 -0.1549  0.3100
   74MOL    H4216248   3.564   3.493   6.602 -0.6158  0.7068 -0.8437
   74MOL    H4316249   3.374   3.345   6.596 -1.3778  2.2771  0.5796
   74MOL    H4416250   3.290   3.329   6.749  0.1173  1.0545 -0.6590
   74MOL    H4516251   3.437   3.228   6.689  0.5824  1.1521 -2.8088
   74MOL    C4616252   3.561   3.645   6.760 -0.3409 -0.0613 -0.3820
   74MOL    C4716253   3.428   3.718   6.718 -0.5984 -0.0116 -0.2832
   74MOL    C4816254   3.390   3.826   6.816  0.7605  0.1992 -0.2318
   74MOL    O4916255   3.381   3.949   6.785 -0.4532  0.1121 -0.1663
   74MOL    C5016256   3.364   3.787   6.960  0.0454 -0.4554 -0.2403
   74MOL    H5116257   3.647   3.701   6.723 -1.7648  2.2955 -0.2719
   74MOL    H5216258   3.578   3.650   6.867 -0.6324 -0.7262 -0.2997
   74MOL    H5316259   3.344   3.648   6.721  0.7532 -1.7514 -1.8742
   74MOL    H5416260   3.420   3.854   7.025  0.3491 -1.6224  0.7123
   74MOL    H5516261   3.261   3.793   6.996  0.3680 -1.5268  0.8956
   74MOL    H5616262   3.388   3.681   6.966 -1.5249 -0.7874  0.3898
   74MOL    C5716263   3.453   3.772   6.572 -0.2832  0.1512 -0.0435
   74MOL    C5816264   3.338   3.828   6.488  0.4423  0.1930  0.9401
   74MOL    C5916265   3.364   3.954   6.401  0.0935 -0.3134 -0.1902
   74MOL    O6016266   3.338   3.965   6.285 -0.4936  0.2718 -0.2708
   74MOL    C6116267   3.433   4.075   6.467 -0.5152  0.0118  0.2025
   74MOL    H6216268   3.509   3.692   6.522 -1.3361 -1.0550  0.6911
   74MOL    H6316269   3.525   3.854   6.581 -0.6335  0.4549 -0.0083
   74MOL    H6416270   3.264   3.862   6.560 -2.4043  0.1418 -1.8433
   74MOL    H6516271   3.529   4.031   6.493 -0.8085  0.3779  1.9539
   74MOL    H6616272   3.454   4.158   6.398  1.4123 -0.4423  0.1952
   74MOL    H6716273   3.381   4.122   6.550  1.9790  0.4770  1.5768
   74MOL    C6816274   3.268   3.712   6.412  0.1155 -0.2971  0.3685
   74MOL    C6916275   3.131   3.748   6.341 -0.3859 -0.2733 -0.5824
   74MOL    C7016276   3.027   3.801   6.443 -0.0996 -0.0160  0.2963
   74MOL    O7116277   3.033   3.771   6.564 -0.1817 -0.2593 -0.1466
   74MOL    C7216278   2.927   3.897   6.387  0.0785  0.2954 -0.2631
   74MOL    H7316279   3.338   3.686   6.333 -1.4747 -2.0600 -0.5092
   74MOL    H7416280   3.246   3.618   6.463  0.4701  0.4232  1.8668
   74MOL    H7516281   3.151   3.833   6.275  1.0129 -0.3410 -0.2685
   74MOL    H7616282   2.825   3.864   6.405 -0.7288  1.0305 -3.2489
   74MOL    H7716283   2.953   3.988   6.441  2.0771 -1.5421  1.9813
   74MOL    H7816284   2.948   3.917   6.282 -1.1622  0.6067 -0.4580
   74MOL    C7916285   3.071   3.635   6.248 -0.3912  0.3138 -0.5368
   74MOL    C8016286   3.153   3.589   6.128 -0.5015  0.9639  1.0889
   74MOL    C8116287   3.122   3.664   5.998  0.2702 -0.1303 -0.0682
   74MOL    O8216288   3.023   3.734   5.980  0.6462 -0.4607  0.4343
   74MOL    C8316289   3.231   3.641   5.893  0.1936  0.2091  0.2083
   74MOL    H8416290   2.972   3.670   6.218 -0.1489  0.7154 -0.8809
   74MOL    H8516291   3.047   3.553   6.315  1.3548  0.6388  0.5401
   74MOL    H8616292   3.259   3.607   6.144 -0.2204  0.7516 -0.4142
   74MOL    H8716293   3.330   3.654   5.937  0.3678 -1.9505  0.5174
   74MOL    H8816294   3.219   3.717   5.817  0.5601  0.8645  0.8045
   74MOL    H8916295   3.208   3.547   5.842  0.1450  0.1170  0.3973
   74MOL    C9016296   3.135   3.431   6.101 -0.9140  0.4374  0.9120
   74MOL    C9116297   3.253   3.357   6.158 -0.4429 -0.2561 -0.1620
   74MOL    C9216298   3.255   3.350   6.318 -0.0643  0.4055  0.2533
   74MOL    O9316299   3.364   3.372   6.370 -0.4446 -0.7368 -0.2816
   74MOL    C9416300   3.137   3.298   6.396 -0.3366  0.3599  0.3751
   74MOL    H9516301   3.035   3.398   6.129 -0.6382 -0.4166  0.8978
   74MOL    H9616302   3.130   3.409   5.994 -1.8632  2.4589  0.5014
   74MOL    H9716303   3.334   3.422   6.124  0.7737 -2.1483 -0.9112
   74MOL    H9816304   3.078   3.237   6.328 -0.0805  1.3067 -0.7009
   74MOL    H9916305   3.162   3.237   6.483  0.8959  1.0351  0.5045
   74MOL   H10016306   3.072   3.381   6.425 -1.2588 -0.6774  1.3265
   74MOL   C10116307   3.260   3.215   6.102  0.6024  0.5682 -0.6017
   74MOL   C10216308   3.393   3.142   6.143 -0.7101  0.3531  0.0330
   74MOL   C10316309   3.518   3.224   6.090 -0.0447  0.4385 -0.1338
   74MOL   O10416310   3.524   3.259   5.972 -0.4976 -0.3004 -0.1079
   74MOL   C10516311   3.630   3.269   6.186 -0.0156 -0.1120 -0.3937
   74MOL   H10616312   3.176   3.154   6.136  1.2281 -0.6930 -1.2742
   74MOL   H10716313   3.252   3.216   5.993 -0.1540 -1.2367 -0.5944
   74MOL   H10816314   3.417   3.137   6.249 -1.9648 -1.1781  0.2567
   74MOL   H10916315   3.704   3.189   6.187  1.3230  1.0303 -2.9303
   74MOL   H11016316   3.672   3.366   6.158  0.9655 -0.3546  0.1951
   74MOL   H11116317   3.599   3.274   6.291  3.4559 -0.1883  0.6990
   74MOL   C11216318   3.404   3.002   6.084  0.6572 -0.0398  0.4750
   74MOL   C11316319   3.516   2.916   6.143 -0.3659 -0.0760 -0.2759
   74MOL   C11416320   3.572   2.815   6.037  0.8639  0.3321  0.1527
   74MOL   O11516321   3.571   2.691   6.059 -0.5185  0.3514 -0.2278
   74MOL   C11616322   3.629   2.874   5.899 -0.4348 -0.5173  0.8014
   74MOL   H11716323   3.405   3.015   5.976  3.0124  1.8905  0.6762
   74MOL   H11816324   3.312   2.946   6.101  0.4996 -0.7544 -2.3849
   74MOL   H11916325   3.602   2.977   6.167  0.1285 -0.8753  0.0096
   74MOL   H12016326   3.696   2.959   5.909 -0.9549  0.1385 -1.0851
   74MOL   H12116327   3.683   2.797   5.843 -2.0400 -1.2045  0.1459
   74MOL   H12216328   3.537   2.902   5.848  0.1704 -0.6855 -0.4095
   74MOL   C12316329   3.464   2.849   6.279 -0.5575 -0.1727 -0.3441
   74MOL   C12416330   3.572   2.820   6.383 -0.0924  0.2698 -0.0374
   74MOL   C12516331   3.537   2.694   6.467 -0.1397 -0.5430  0.7707
   74MOL   O12616332   3.472   2.702   6.570  0.1063 -0.3123 -0.4331
   74MOL   C12716333   3.579   2.558   6.409  0.4055  0.4230 -0.3834
   74MOL   H12816334   3.419   2.753   6.253  0.9691 -0.4592 -2.0201
   74MOL   H12916335   3.388   2.914   6.323 -1.5096 -2.1662  1.0298
   74MOL   H13016336   3.658   2.797   6.320  0.0123  0.4589  0.0352
   74MOL   H13116337   3.671   2.523   6.455 -0.9681 -3.0192 -0.1076
   74MOL   H13216338   3.587   2.580   6.302  2.1505  2.1091  0.0813
   74MOL   H13316339   3.503   2.480   6.418  0.9015 -0.2037 -1.4764
   74MOL   C13416340   3.590   2.949   6.461 -0.7424  0.3559  0.7709
   74MOL   C13516341   3.723   2.953   6.544 -0.3575 -0.4394  0.1442
   74MOL   C13616342   3.847   3.007   6.469 -0.4692 -0.0169 -0.1858
   74MOL   O13716343   3.831   3.078   6.375  0.4015  0.0327  0.5167
   74MOL   C13816344   3.984   2.965   6.522 -0.4283 -0.2044  0.4331
   74MOL   H13916345   3.506   2.957   6.531 -0.2795 -0.1584  1.3968
   74MOL   H14016346   3.577   3.033   6.393 -1.6072 -0.1930  0.2464
   74MOL   H14116347   3.751   2.848   6.556 -0.8578 -0.5851  0.0476
   74MOL   H14216348   4.056   3.047   6.519  2.1211 -2.3144  2.0527
   74MOL   H14316349   4.019   2.872   6.476 -3.4879 -0.2560 -2.0136
   74MOL   H14416350   3.973   2.920   6.621 -2.9447 -1.3363 -0.3103
   74MOL   C14516351   3.701   3.006   6.689  0.0300  0.3643  0.4339
   74MOL   C14616352   3.657   2.903   6.802  0.4035 -0.1353  0.2358
   74MOL   C14716353   3.760   2.807   6.836 -0.9801  0.0219 -0.8976
   74MOL   O14816354   3.868   2.849   6.884 -0.2189 -0.2000  0.5828
   74MOL   C14916355   3.737   2.657   6.826 -0.5543 -0.3521  0.3922
   74MOL   H15016356   3.623   3.081   6.678 -0.7972 -0.5020  0.4474
   74MOL   H15116357   3.789   3.059   6.727  0.2064  0.0443  0.4764
   74MOL   H15216358   3.575   2.858   6.745 -0.1747 -0.3042  1.2001
   74MOL   H15316359   3.723   2.620   6.927  1.0409 -2.0069  0.0442
   74MOL   H15416360   3.653   2.640   6.759  0.7121 -1.4698 -0.9579
   74MOL   H15516361   3.828   2.615   6.782 -0.3729  2.2063 -1.8429
   74MOL   C15616362   3.587   2.971   6.924 -0.1944 -0.5002 -0.8365
   74MOL   C15716363   3.490   2.893   7.006  0.0526  0.6154  0.5057
   74MOL   C15816364   3.378   2.829   6.918 -0.2389 -0.0818  0.3703
   74MOL   O15916365   3.300   2.903   6.860  0.0395 -0.9435  0.1971
   74MOL   C16016366   3.365   2.678   6.936 -0.0791  0.8125  0.1725
   74MOL   H16116367   3.667   3.016   6.983  0.4232 -0.1029 -1.9659
   74MOL   H16216368   3.541   3.065   6.894  0.4500  0.4163  0.9872
   74MOL   H16316369   3.533   2.807   7.058 -0.5549 -0.3829 -0.6088
   74MOL   H16416370   3.440   2.632   7.001  0.1983  1.3018  0.1997
   74MOL   H16516371   3.374   2.622   6.843 -0.7283  0.8383  0.0939
   74MOL   H16616372   3.266   2.647   6.968 -0.1739  0.1402 -0.7292
   74MOL   C16716373   3.435   2.984   7.114 -0.3893 -0.6965 -0.3565
   74MOL   C16816374   3.535   3.000   7.232 -0.2222 -0.3970 -0.8530
   74MOL   C16916375   3.521   2.878   7.336 -0.0520  0.1063  0.3603
   74MOL   O17016376   3.607   2.795   7.350 -0.7726  0.5531  0.0396
   74MOL   C17116377   3.390   2.844   7.411  0.1122 -0.5943 -0.9305
   74MOL   H17216378   3.384   3.074   7.080 -0.1950 -0.4508 -0.0029
   74MOL   H17316379   3.350   2.936   7.163  0.0047 -0.8531  0.1793
   74MOL   H17416380   3.636   2.986   7.194  1.0378  1.8220  1.5299
   74MOL   H17516381   3.347   2.747   7.387 -0.2314 -0.6324 -0.1595
   74MOL   H17616382   3.317   2.910   7.364 -0.3376  0.2638  0.9470
   74MOL   H17716383   3.381   2.858   7.518 -3.9751 -0.5470 -1.1979
   74MOL   C17816384   3.522   3.135   7.306  0.3425  0.9288  0.4275
   74MOL   C17916385   3.551   3.252   7.208 -0.1332 -0.0956 -0.2134
   74MOL   C18016386   3.704   3.245   7.171 -0.5490  0.4134  1.2205
   74MOL   O18116387   3.791   3.219   7.253 -0.0772  0.0606  0.6883
   74MOL   C18216388   3.743   3.266   7.029 -0.3138 -0.1532  0.0068
   74MOL   H18316389   3.425   3.130   7.354  0.0481 -2.5423 -0.3474
   74MOL   H18416390   3.590   3.142   7.391  1.2018  0.2228 -0.1812
   74MOL   H18516391   3.484   3.242   7.122  0.6507  2.5417 -1.2014
   74MOL   H18616392   3.799   3.359   7.036  0.9982 -0.8989 -0.3190
   74MOL   H18716393   3.657   3.288   6.967 -0.4570  3.6002  1.4440
   74MOL   H18816394   3.796   3.183   6.980  0.5983  2.2461 -3.2530
   74MOL   C18916395   3.526   3.392   7.274 -0.4333  0.4603  0.2706
   74MOL   C19016396   3.376   3.409   7.316  0.3916 -0.1284  0.8137
   74MOL   C19116397   3.363   3.539   7.394  0.6930 -0.4510  0.1400
   74MOL   O19216398   3.345   3.641   7.333  0.0281 -0.5752  0.1174
   74MOL   C19316399   3.378   3.534   7.543 -0.0332 -0.0496  0.8390
   74MOL   H19416400   3.595   3.405   7.357 -0.3015 -1.7909  0.5505
   74MOL   H19516401   3.557   3.465   7.199  1.3016 -0.6622 -0.1330
   74MOL   H19616402   3.354   3.332   7.391 -0.5946  0.7761  1.4751
   74MOL   H19716403   3.435   3.623   7.573 -3.6707  2.0666  1.7579
   74MOL   H19816404   3.283   3.552   7.594  0.3128 -0.3056  1.5886
   74MOL   H19916405   3.432   3.443   7.569 -1.3843 -1.3190 -0.7318
   74MOL   C20016406   3.272   3.399   7.192 -0.7873 -0.0872  0.5115
   74MOL   C20116407   3.118   3.411   7.218  0.2912 -0.9234  0.4062
   74MOL   C20216408   3.071   3.295   7.306 -0.0430 -0.5499  0.0952
   74MOL   O20316409   3.037   3.186   7.264 -0.3653  0.2312 -0.3423
   74MOL   C20416410   3.077   3.307   7.457  0.0060 -0.0700 -0.2321
   74MOL   H20516411   3.306   3.470   7.117  1.0432 -2.0617 -0.5479
   74MOL   H20616412   3.293   3.311   7.132  1.6259 -0.8531  2.3661
   74MOL   H20716413   3.104   3.498   7.282  1.8491 -0.4821  0.1624
   74MOL   H20816414   2.977   3.312   7.500 -0.4049  1.4285 -1.3112
   74MOL   H20916415   3.120   3.220   7.508  0.5608  0.3897  0.0891
   74MOL   H21016416   3.135   3.395   7.485 -0.6689  0.6497 -1.0634
   74MOL   C21116417   3.031   3.434   7.091 -0.3858 -0.3634  0.0371
   74MOL   C21216418   3.051   3.568   7.021 -0.2241  0.2849  0.2133
   74MOL   C21316419   2.995   3.563   6.881 -0.2425 -0.3597 -0.3933
   74MOL   O21416420   2.869   3.567   6.862  0.2287  0.3286  0.1708
   74MOL   C21516421   3.083   3.528   6.756 -0.2098 -0.5066  1.0132
   74MOL   H21616422   3.068   3.358   7.022  0.6392 -0.0058  0.1849
   74MOL   H21716423   2.926   3.418   7.114 -0.7475 -2.2771 -2.6897
   74MOL   H21816424   3.156   3.599   7.017 -0.1454 -0.0299 -0.2046
   74MOL   H21916425   3.185   3.509   6.788  0.2601 -1.1759 -0.8458
   74MOL   H22016426   3.047   3.446   6.694  0.9886 -0.2765  0.0016
   74MOL   H22116427   3.102   3.617   6.696 -0.8291  0.3215  2.0233
   74MOL   H22216428   2.997   3.645   7.077  1.2225 -0.2858  2.4594
   75MOL     C116429   5.540   6.495   3.097  1.0567 -0.6415  0.2208
   75MOL     C216430   5.450   6.597   3.027  0.1410  0.1114  0.2484
   75MOL     C316431   5.315   6.540   2.983  0.2030 -0.4682 -0.5786
   75MOL     O416432   5.225   6.518   3.061 -0.2747  0.3869 -0.3611
   75MOL     C516433   5.307   6.501   2.842  0.6220  0.6030 -0.0989
   75MOL     H616434   5.646   6.521   3.103  0.8317  0.7702 -1.3410
   75MOL     H716435   5.545   6.400   3.043 -0.1031 -0.3584 -0.4102
   75MOL     H816436   5.498   6.621   2.932  0.3835 -0.3763  0.2448
   75MOL     H916437   5.315   6.392   2.834  1.0189  0.5485  0.9873
   75MOL    H1016438   5.216   6.534   2.792  1.7901  0.6132 -2.2856
   75MOL    H1116439   5.387   6.541   2.779  0.0073  0.6316 -0.8645
   75MOL    H1216440   5.500   6.459   3.191  1.5677 -0.5565  0.4714
   75MOL    C1316441   5.440   6.724   3.118  0.2498  0.5546  0.2335
   75MOL    C1416442   5.384   6.856   3.065 -0.2789  0.5783 -0.3313
   75MOL    C1516443   5.244   6.851   3.018  0.0419  0.4059  0.3216
   75MOL    O1616444   5.217   6.856   2.897  0.4073  0.8814  0.3741
   75MOL    C1716445   5.121   6.819   3.104 -0.2851 -0.9314 -0.1655
   75MOL    H1816446   5.370   6.698   3.198 -0.3942 -0.8177 -0.7640
   75MOL    H1916447   5.540   6.741   3.158 -1.0459  3.7414  2.3545
   75MOL    H2016448   5.372   6.923   3.150 -0.5129 -1.2168  1.1011
   75MOL    H2116449   5.100   6.910   3.160  1.3540  0.4555 -1.7235
   75MOL    H2216450   5.031   6.793   3.047  0.5341 -0.0596 -1.8666
   75MOL    H2316451   5.138   6.742   3.179 -1.1450 -1.4868 -0.5267
   75MOL    C2416452   5.477   6.912   2.957 -0.2220  0.9422 -0.2145
   75MOL    C2516453   5.437   7.046   2.889  0.3379  0.1301  0.2076
   75MOL    C2616454   5.435   7.156   2.998  0.1767 -0.0214 -0.0028
   75MOL    O2716455   5.333   7.188   3.058 -0.1467  0.0288  0.5183
   75MOL    C2816456   5.570   7.220   3.033 -0.5582 -0.7732 -0.0258
   75MOL    H2916457   5.571   6.932   3.010  0.0425  1.6605 -0.9535
   75MOL    H3016458   5.487   6.843   2.873 -3.1461  0.4464 -0.1946
   75MOL    H3116459   5.338   7.049   2.844  0.1664  1.4243  0.6552
   75MOL    H3216460   5.640   7.137   3.041  1.3536  0.7300 -0.6115
   75MOL    H3316461   5.602   7.278   2.947 -0.5716 -0.7285 -0.0009
   75MOL    H3416462   5.580   7.275   3.127 -1.0146 -0.4080 -0.1869
   75MOL    C3516463   5.534   7.081   2.768  0.0840  0.1865 -0.2284
   75MOL    C3616464   5.513   7.006   2.632  0.7585 -0.5561  0.7188
   75MOL    C3716465   5.373   7.013   2.576 -0.0343 -0.5827  0.5672
   75MOL    O3816466   5.324   7.113   2.526 -0.6827  0.0833  0.0062
   75MOL    C3916467   5.290   6.884   2.579  0.4203 -0.3453  0.3429
   75MOL    H4016468   5.638   7.068   2.796  0.0127 -0.2139 -0.1427
   75MOL    H4116469   5.512   7.184   2.742  2.4201  0.2877 -1.9201
   75MOL    H4216470   5.546   6.902   2.643  2.2001 -0.1867  0.0452
   75MOL    H4316471   5.327   6.820   2.659  0.1759  0.1917  0.8876
   75MOL    H4416472   5.289   6.843   2.478 -1.5509  0.5489 -0.0125
   75MOL    H4516473   5.186   6.903   2.605  0.4891  1.0392 -0.3814
   75MOL    C4616474   5.610   7.037   2.514  0.2275 -0.2434 -0.0815
   75MOL    C4716475   5.643   7.179   2.469 -0.1412 -0.1126  0.3402
   75MOL    C4816476   5.787   7.217   2.501  0.4715 -0.3544 -0.2496
   75MOL    O4916477   5.884   7.163   2.447  0.3469  0.1044 -0.8490
   75MOL    C5016478   5.810   7.311   2.622 -0.6468  0.3067  0.1440
   75MOL    H5116479   5.576   6.998   2.418 -0.0732  2.3404 -1.0890
   75MOL    H5216480   5.696   6.974   2.535  0.6082 -0.4070 -2.0009
   75MOL    H5316481   5.586   7.245   2.535 -0.7948 -1.0392  0.7078
   75MOL    H5416482   5.759   7.292   2.717  0.8105 -0.3547  0.8043
   75MOL    H5516483   5.918   7.308   2.637 -0.9506 -0.6933  2.4014
   75MOL    H5616484   5.789   7.412   2.589 -1.2407 -0.4123 -1.7786
   75MOL    C5716485   5.617   7.192   2.318 -0.6555 -0.4263  0.6959
   75MOL    C5816486   5.656   7.326   2.253 -0.3794  0.3279  0.1413
   75MOL    C5916487   5.655   7.327   2.097  0.1204 -0.0085 -0.0837
   75MOL    O6016488   5.593   7.243   2.036 -0.4512 -0.0625 -0.2345
   75MOL    C6116489   5.754   7.414   2.026 -0.2414 -0.3829  0.2031
   75MOL    H6216490   5.509   7.189   2.303 -0.6838  0.8354  0.5968
   75MOL    H6316491   5.662   7.104   2.272  0.4111 -1.0143  2.8440
   75MOL    H6416492   5.760   7.324   2.288 -0.7267 -1.8279  1.1587
   75MOL    H6516493   5.855   7.384   2.053 -0.8859 -2.0234  0.9127
   75MOL    H6616494   5.743   7.412   1.917  2.4885  0.7919 -0.1209
   75MOL    H6716495   5.749   7.515   2.065 -0.2194  0.3549 -1.6639
   75MOL    C6816496   5.596   7.459   2.315 -0.3975  0.6707 -0.0310
   75MOL    C6916497   5.452   7.496   2.285  0.2232 -0.1488  0.2785
   75MOL    C7016498   5.424   7.549   2.142 -0.0871  0.1723  0.4923
   75MOL    O7116499   5.472   7.662   2.108 -0.0578  0.2266 -0.7991
   75MOL    C7216500   5.338   7.463   2.047  0.2273  0.0328 -0.6857
   75MOL    H7316501   5.599   7.469   2.424  0.4382  2.9698 -0.2329
   75MOL    H7416502   5.656   7.543   2.280 -1.7344  1.1229 -1.2395
   75MOL    H7516503   5.393   7.405   2.293  0.0379  0.0458  1.1541
   75MOL    H7616504   5.281   7.524   1.977 -2.5396 -1.3896  0.2138
   75MOL    H7716505   5.401   7.397   1.989 -0.0310 -1.1738  0.3839
   75MOL    H7816506   5.272   7.401   2.108  0.6277  2.0193  1.8914
   75MOL    C7916507   5.403   7.602   2.387  0.6319  0.8858 -0.6554
   75MOL    C8016508   5.319   7.532   2.504  0.1959  0.2173 -1.3206
   75MOL    C8116509   5.195   7.460   2.458  0.4186  0.3958 -0.5605
   75MOL    O8216510   5.158   7.464   2.342 -0.3022  0.6020 -0.1147
   75MOL    C8316511   5.126   7.378   2.566 -0.1036  0.4501  0.3581
   75MOL    H8416512   5.332   7.675   2.347 -1.1745 -0.5496 -0.1112
   75MOL    H8516513   5.486   7.663   2.423  0.8192  0.3174 -0.1062
   75MOL    H8616514   5.382   7.463   2.560 -0.8562  0.5631  0.3125
   75MOL    H8716515   5.108   7.277   2.529 -1.2135  1.0506 -0.7326
   75MOL    H8816516   5.033   7.426   2.596 -0.4253 -0.6863  1.2093
   75MOL    H8916517   5.191   7.360   2.652  2.6568  0.0819 -1.7365
   75MOL    C9016518   5.273   7.641   2.610  1.3831  0.2508 -0.6151
   75MOL    C9116519   5.375   7.687   2.711 -0.3973  0.5845 -0.0525
   75MOL    C9216520   5.365   7.840   2.745 -1.0105 -0.1682 -0.0115
   75MOL    O9316521   5.366   0.023   2.858 -0.4134  0.1817 -0.3512
   75MOL    C9416522   5.349   0.084   2.632 -0.6063 -0.0909  0.3334
   75MOL    H9516523   5.225   7.729   2.567 -1.1766  1.2259  3.9294
   75MOL    H9616524   5.189   7.605   2.669  2.0529 -0.3419 -0.0221
   75MOL    H9716525   5.467   7.685   2.652 -0.1445  0.3423  0.3412
   75MOL    H9816526   5.379   0.034   2.540  1.9129  2.4258 -0.2781
   75MOL    H9916527   5.247   0.122   2.624 -0.1236  1.0202 -0.5863
   75MOL   H10016528   5.420   0.166   2.640  0.7252 -1.3527  1.7025
   75MOL   C10116529   5.366   7.594   2.831 -0.3821  1.2072 -0.3439
   75MOL   C10216530   5.501   7.604   2.912  0.0489  0.2736  1.3179
   75MOL   C10316531   5.609   7.528   2.840  0.1762  0.5723  0.0445
   75MOL   O10416532   5.594   7.427   2.771  0.2781 -0.2184 -0.1612
   75MOL   C10516533   5.749   7.582   2.861 -0.0043 -0.1342 -0.5201
   75MOL   H10616534   5.287   7.638   2.893 -1.0189  0.0249 -0.2917
   75MOL   H10716535   5.345   7.488   2.814  0.8615  0.7000  1.1440
   75MOL   H10816536   5.534   7.708   2.914 -0.0414  0.3163  0.3919
   75MOL   H10916537   5.761   7.594   2.968 -0.3505  0.0620 -0.5030
   75MOL   H11016538   5.824   7.517   2.816  0.1920  0.6757 -1.3736
   75MOL   H11116539   5.750   7.680   2.814  1.4133 -0.4539 -1.1693
   75MOL   C11216540   5.480   7.551   3.058  0.5264  0.1298  0.0368
   75MOL   C11316541   5.417   7.657   3.156  0.3134 -1.4699  0.7077
   75MOL   C11416542   5.497   7.789   3.164  0.2253 -0.6181 -0.6864
   75MOL   O11516543   5.619   7.774   3.167  0.1296  0.6486 -0.5057
   75MOL   C11616544   5.427   0.064   3.180 -0.4271 -0.3965  0.0579
   75MOL   H11716545   5.573   7.520   3.105  0.1217 -0.1581  0.6583
   75MOL   H11816546   5.417   7.463   3.059  0.6126  0.0628  1.9320
   75MOL   H11916547   5.329   7.700   3.108 -1.0221 -3.2251  1.5203
   75MOL   H12016548   5.401   0.083   3.284  0.1745 -1.4559  0.4080
   75MOL   H12116549   5.494   0.137   3.133 -3.9050  1.4105 -2.3391
   75MOL   H12216550   5.330   0.074   3.130  0.5073  0.5863 -1.6073
   75MOL   C12316551   5.391   7.595   3.303 -0.1339 -0.3109 -0.7950
   75MOL   C12416552   5.296   7.478   3.300 -0.7338  0.9129 -0.1292
   75MOL   C12516553   5.168   7.513   3.227 -0.3807  0.2174  0.4380
   75MOL   O12616554   5.125   7.626   3.215 -0.7905  0.1212 -0.6866
   75MOL   C12716555   5.093   7.394   3.165 -0.3307  0.2267  0.0953
   75MOL   H12816556   5.347   7.671   3.367 -0.8512 -0.3067 -1.2857
   75MOL   H12916557   5.484   7.558   3.346 -0.7489  0.6195  1.4225
   75MOL   H13016558   5.343   7.399   3.240 -1.0572 -0.9795  2.0567
   75MOL   H13116559   5.165   7.314   3.143 -2.8151 -2.3238  1.0489
   75MOL   H13216560   5.052   7.416   3.066  0.6381  0.0310 -0.3580
   75MOL   H13316561   5.022   7.359   3.239 -1.1083 -0.3068 -0.8857
   75MOL   C13416562   5.262   7.429   3.445 -0.5601 -0.1949 -0.8221
   75MOL   C13516563   5.203   7.283   3.451 -0.1386  0.2415  0.5576
   75MOL   C13616564   5.314   7.175   3.471  0.1989 -0.1241 -0.6086
   75MOL   O13716565   5.399   7.189   3.556  0.8127 -0.2770 -0.3171
   75MOL   C13816566   5.317   7.050   3.385 -0.0029  0.6632  0.4260
   75MOL   H13916567   5.213   7.505   3.505 -1.5324 -0.2477 -1.5351
   75MOL   H14016568   5.354   7.440   3.502 -1.3076  1.7991  0.0177
   75MOL   H14116569   5.151   7.259   3.358 -0.5665 -1.2745  1.1783
   75MOL   H14216570   5.303   6.976   3.464 -0.0059  1.2385  0.9688
   75MOL   H14316571   5.411   7.036   3.332  1.4244 -0.0899  3.0406
   75MOL   H14416572   5.230   7.065   3.321 -0.0168 -0.4781  0.1748
   75MOL   C14516573   5.097   7.280   3.563  0.5083  0.7934  0.2078
   75MOL   C14616574   5.000   7.156   3.575  0.3126  0.4069  0.4915
   75MOL   C14716575   5.071   7.027   3.625 -0.0412  0.0046 -0.2609
   75MOL   O14816576   5.067   6.921   3.562  0.4260  0.6451 -0.3629
   75MOL   C14916577   5.130   7.036   3.769 -0.1914  0.5272  0.4387
   75MOL   H15016578   5.031   7.362   3.536 -1.4209 -0.8706 -0.1827
   75MOL   H15116579   5.131   7.302   3.665 -0.6394  0.9081  0.5702
   75MOL   H15216580   4.962   7.144   3.474  0.8985 -1.4468  0.4833
   75MOL   H15316581   5.084   7.125   3.813 -0.6584  0.1608  0.6867
   75MOL   H15416582   5.108   6.941   3.816 -2.4097  0.3852 -0.8019
   75MOL   H15516583   5.235   7.064   3.761  0.4575 -1.0916  2.9112
   75MOL   C15616584   4.878   7.192   3.661  0.3443 -0.1982 -0.8142
   75MOL   C15716585   4.748   7.243   3.592 -0.0172  0.0584 -0.1293
   75MOL   C15816586   4.768   7.378   3.527 -0.6214 -0.2448  0.2896
   75MOL   O15916587   4.763   7.384   3.402  0.4564 -0.7336  0.1721
   75MOL   C16016588   4.799   7.509   3.614 -0.0202  0.3244 -0.1092
   75MOL   H16116589   4.845   7.109   3.724  3.3450  0.1147  1.2154
   75MOL   H16216590   4.888   7.259   3.746  0.8360  1.3932 -2.1086
   75MOL   H16316591   4.719   7.176   3.511 -0.4221  0.5280 -0.3760
   75MOL   H16416592   4.862   7.578   3.558  1.4167 -0.5274  0.4113
   75MOL   H16516593   4.859   7.481   3.701  0.5986  1.4301 -0.1736
   75MOL   H16616594   4.707   7.561   3.642  0.5082  1.4224 -0.3856
   75MOL   C16716595   4.624   7.248   3.678 -0.1274  0.6537  0.0092
   75MOL   C16816596   4.490   7.253   3.595  0.3196  0.5301 -0.5433
   75MOL   C16916597   4.376   7.330   3.663 -0.4378  0.1035  0.5695
   75MOL   O17016598   4.314   7.279   3.745  0.1307  0.2111 -0.7901
   75MOL   C17116599   4.343   7.469   3.623  0.7545  0.2222 -0.6393
   75MOL   H17216600   4.619   7.157   3.738 -0.6445 -0.3513 -1.5437
   75MOL   H17316601   4.633   7.332   3.748  0.0726  3.0739 -2.8165
   75MOL   H17416602   4.504   7.313   3.505  0.4313  0.4017 -0.6127
   75MOL   H17516603   4.408   7.537   3.678 -0.9442  0.8251  0.6927
   75MOL   H17616604   4.242   7.493   3.658  0.5076 -1.7041  0.0140
   75MOL   H17716605   4.339   7.492   3.516  1.1840  0.0314 -0.6939
   75MOL   C17816606   4.457   7.101   3.554  0.5307 -0.2945 -0.5506
   75MOL   C17916607   4.326   7.094   3.472  0.2565 -0.2073  1.0204
   75MOL   C18016608   4.256   6.959   3.482 -0.5509 -0.4873 -0.7043
   75MOL   O18116609   4.253   6.877   3.394 -0.1173  0.0581  0.4042
   75MOL   C18216610   4.198   6.939   3.618 -0.6216 -0.3839 -0.1667
   75MOL   H18316611   4.546   7.068   3.500  1.1399  0.1912  0.1343
   75MOL   H18416612   4.444   7.046   3.647 -3.6281 -0.9098 -1.3851
   75MOL   H18516613   4.246   7.160   3.505 -1.1870 -0.5532 -1.6791
   75MOL   H18616614   4.101   6.894   3.596 -0.6213 -0.4002 -0.1343
   75MOL   H18716615   4.202   7.041   3.657 -0.1399 -1.0851  1.6687
   75MOL   H18816616   4.263   6.878   3.680  0.0034  0.5966  0.1513
   75MOL   C18916617   4.345   7.144   3.323  0.8269  0.5457 -0.0987
   75MOL   C19016618   4.443   7.076   3.228  0.4569  0.0985  0.0869
   75MOL   C19116619   4.383   7.037   3.085 -0.0738 -0.4554 -0.9080
   75MOL   O19216620   4.405   6.931   3.035  0.2368 -0.1481  0.0514
   75MOL   C19316621   4.306   7.150   3.005 -0.6623  0.2112 -0.5683
   75MOL   H19416622   4.246   7.134   3.279  1.6570 -0.0587 -1.8873
   75MOL   H19516623   4.373   7.249   3.332 -2.4319  1.3876  1.0381
   75MOL   H19616624   4.473   6.987   3.282  1.7926  0.1531 -0.5286
   75MOL   H19716625   4.371   7.197   2.931  0.0867  1.9032  1.1327
   75MOL   H19816626   4.218   7.105   2.960  0.2198 -0.8453 -1.2748
   75MOL   H19916627   4.270   7.237   3.059 -0.7648  0.4647 -1.0466
   75MOL   C20016628   4.563   7.165   3.195 -0.4498  0.3120 -1.5229
   75MOL   C20116629   4.695   7.098   3.131 -0.3629 -0.3250 -0.5091
   75MOL   C20216630   4.750   6.975   3.208 -0.7908 -0.0822  0.1586
   75MOL   O20316631   4.809   6.989   3.316  0.5762  0.6344  0.2542
   75MOL   C20416632   4.742   6.839   3.138  0.5807 -0.2601 -0.1682
   75MOL   H20516633   4.524   7.249   3.138 -0.3694 -0.1051 -2.1945
   75MOL   H20616634   4.607   7.202   3.288 -1.6254  0.2601 -0.9361
   75MOL   H20716635   4.675   7.070   3.027 -2.7868 -0.1598 -0.1286
   75MOL   H20816636   4.827   6.779   3.172  1.0985  1.3357  1.4257
   75MOL   H20916637   4.657   6.773   3.154  0.6598 -0.0993  0.9446
   75MOL   H21016638   4.751   6.840   3.029 -0.9432  1.6088 -0.2841
   75MOL   C21116639   4.813   7.191   3.108 -0.0116 -0.1115  0.2612
   75MOL   C21216640   4.914   7.144   2.998 -0.1478 -0.4704  0.8914
   75MOL   C21316641   4.881   7.185   2.855 -0.0502 -0.0471  0.2407
   75MOL   O21416642   4.784   7.257   2.834 -0.3131  0.1456 -0.2162
   75MOL   C21516643   4.963   7.123   2.742 -0.0241  0.1766 -0.0774
   75MOL   H21616644   4.765   7.283   3.072 -0.1322  0.5923  2.1849
   75MOL   H21716645   4.860   7.223   3.201 -0.5818 -2.3516  1.3663
   75MOL   H21816646   4.939   7.039   3.008 -1.4003 -0.9105 -0.5226
   75MOL   H21916647   4.960   7.016   2.761 -0.5706  0.4518  1.4986
   75MOL   H22016648   4.914   7.162   2.653 -2.5896  3.1128  2.4775
   75MOL   H22116649   5.061   7.170   2.749 -1.3688  3.1288 -0.4597
   75MOL   H22216650   5.004   7.201   3.021 -0.0004 -0.5492  0.5079
   76MOL     C116651   6.504   4.205   4.984  0.0873  0.2591 -0.4288
   76MOL     C216652   6.370   4.274   4.994 -0.3046  0.0183 -0.5475
   76MOL     C316653   6.324   4.320   4.858  0.1161 -0.0347 -0.3722
   76MOL     O416654   6.214   4.291   4.807 -0.3210  0.1885  0.7661
   76MOL     C516655   6.422   4.405   4.782  0.3951  0.2044 -0.2523
   76MOL     H616656   6.551   4.194   4.887  1.3704 -1.0340  0.3140
   76MOL     H716657   6.502   4.103   5.022 -0.2638  0.8052  1.0658
   76MOL     H816658   6.393   4.369   5.044 -1.1687 -0.1017  0.0815
   76MOL     H916659   6.379   4.480   4.716  1.7686  0.9796 -0.3044
   76MOL    H1016660   6.491   4.450   4.854 -0.2432 -1.2763  1.2947
   76MOL    H1116661   6.477   4.341   4.713  2.0714 -1.1523  2.2994
   76MOL    H1216662   6.572   4.255   5.053 -3.4551  1.3477  2.4227
   76MOL    C1316663   6.258   4.197   5.070  0.5035  0.4093  0.0421
   76MOL    C1416664   6.117   4.273   5.092  0.3356 -0.6293 -0.2740
   76MOL    C1516665   6.138   4.378   5.207  0.0393 -0.5893 -0.3947
   76MOL    O1616666   6.124   4.342   5.321  0.6197  0.2107 -0.6405
   76MOL    C1716667   6.190   4.517   5.177 -0.4817  0.1021 -0.1566
   76MOL    H1816668   6.252   4.103   5.015  0.5375  0.5963 -0.2863
   76MOL    H1916669   6.301   4.176   5.168 -0.2287  0.4979  0.3877
   76MOL    H2016670   6.080   4.320   5.001  2.5741 -3.1053 -2.5394
   76MOL    H2116671   6.224   4.532   5.075  2.1636 -2.3348  0.3005
   76MOL    H2216672   6.130   4.596   5.223 -1.5540 -1.0968  0.5285
   76MOL    H2316673   6.281   4.527   5.236  0.1172  0.4491 -1.1372
   76MOL    C2416674   6.016   4.167   5.129 -0.3933  0.2150 -0.6878
   76MOL    C2516675   5.872   4.214   5.133  0.3559  0.0805 -0.4566
   76MOL    C2616676   5.803   4.240   4.998  0.2435  0.0031 -0.5549
   76MOL    O2716677   5.763   4.352   4.969  0.5787  0.3681 -0.1084
   76MOL    C2816678   5.777   4.127   4.900  0.4128 -0.0709 -0.2399
   76MOL    H2916679   6.031   4.080   5.065 -0.3646 -0.7632  0.6426
   76MOL    H3016680   6.039   4.126   5.227 -1.5166 -1.8520 -1.2577
   76MOL    H3116681   5.878   4.318   5.167 -0.8429 -0.2244  0.7166
   76MOL    H3216682   5.869   4.072   4.878  1.1790  1.1415 -0.1243
   76MOL    H3316683   5.705   4.052   4.933 -1.8404  2.0003 -0.2836
   76MOL    H3416684   5.742   4.166   4.805  1.3622  4.2270  1.0559
   76MOL    C3516685   5.789   4.124   5.232 -0.3919  0.4400  0.6037
   76MOL    C3616686   5.644   4.166   5.264 -0.3481 -0.1467 -0.6136
   76MOL    C3716687   5.545   4.044   5.271  0.0438  0.1031  0.0530
   76MOL    O3816688   5.499   4.005   5.379 -0.1686 -0.0346 -0.2513
   76MOL    C3916689   5.493   4.005   5.138  0.2637  0.3285  0.1810
   76MOL    H4016690   5.848   4.125   5.324  0.5488  1.1685 -0.0041
   76MOL    H4116691   5.790   4.017   5.208  0.9575  0.7137 -0.6760
   76MOL    H4216692   5.600   4.223   5.182  0.6866  1.8143  0.1560
   76MOL    H4316693   5.538   4.062   5.056  0.8128  1.0214  0.9588
   76MOL    H4416694   5.391   4.042   5.146  0.6700  1.5310 -0.2021
   76MOL    H4516695   5.483   3.899   5.111  0.5682  0.1408  0.7997
   76MOL    C4616696   5.639   4.267   5.386 -0.0106 -0.3446 -0.5725
   76MOL    C4716697   5.501   4.333   5.410  0.6938  0.1329 -0.0615
   76MOL    C4816698   5.427   4.289   5.537 -0.1824 -0.4344 -0.0877
   76MOL    O4916699   5.485   4.286   5.644 -0.1307 -1.0009 -0.3951
   76MOL    C5016700   5.273   4.269   5.521 -0.1714 -0.4510 -0.2554
   76MOL    H5116701   5.705   4.351   5.365 -0.0549 -0.1833 -0.0726
   76MOL    H5216702   5.680   4.218   5.474 -1.3308 -0.6146 -0.0834
   76MOL    H5316703   5.426   4.314   5.333  0.3466 -1.1883  0.5883
   76MOL    H5416704   5.228   4.256   5.619 -2.0167  1.2085 -0.8568
   76MOL    H5516705   5.241   4.367   5.485 -1.5917 -0.3245  1.3072
   76MOL    H5616706   5.256   4.196   5.442  2.9289 -1.8017  0.2583
   76MOL    C5716707   5.508   4.486   5.428 -0.1695  0.5027 -0.1446
   76MOL    C5816708   5.547   4.563   5.303 -0.0085 -0.5692  0.6697
   76MOL    C5916709   5.459   4.530   5.182 -0.1380 -0.0740  0.3115
   76MOL    O6016710   5.341   4.511   5.204  0.1880  0.4315 -0.7561
   76MOL    C6116711   5.515   4.530   5.043 -0.5906  0.0355  0.5373
   76MOL    H6216712   5.582   4.511   5.504 -0.6760 -0.1210  0.5449
   76MOL    H6316713   5.410   4.520   5.461 -1.1517 -0.3748 -2.0748
   76MOL    H6416714   5.648   4.533   5.276  0.0959 -0.0456  0.4715
   76MOL    H6516715   5.623   4.525   5.054 -0.6563 -0.0731  1.1608
   76MOL    H6616716   5.480   4.442   4.990  1.3190 -0.5880  0.2711
   76MOL    H6716717   5.491   4.623   4.992 -0.0552 -0.1663 -0.0793
   76MOL    C6816718   5.557   4.713   5.326  0.2404  0.0601  0.3007
   76MOL    C6916719   5.664   4.777   5.235 -0.3135  0.0668 -0.5971
   76MOL    C7016720   5.803   4.728   5.270 -0.3364  0.2207  0.2098
   76MOL    O7116721   5.878   4.666   5.197  0.7973  0.5889  0.3982
   76MOL    C7216722   5.852   4.766   5.414 -0.7064 -0.1413  0.1245
   76MOL    H7316723   5.468   4.774   5.306  0.9372  0.7597 -0.6962
   76MOL    H7416724   5.582   4.726   5.431  0.3427 -2.1649  0.5770
   76MOL    H7516725   5.648   4.755   5.130  0.0650  0.8837 -0.8284
   76MOL    H7616726   5.918   4.853   5.411 -0.4135 -0.4051 -1.6341
   76MOL    H7716727   5.780   4.776   5.495  0.7408  1.8859  1.1887
   76MOL    H7816728   5.913   4.682   5.446  0.1586 -0.9330 -3.3709
   76MOL    C7916729   5.648   4.932   5.234 -0.6101  0.7212  0.1726
   76MOL    C8016730   5.746   5.023   5.150 -1.1867 -0.5616  0.0372
   76MOL    C8116731   5.887   5.056   5.207  0.1874 -0.3568 -0.0936
   76MOL    O8216732   5.903   5.105   5.321  0.3683 -0.2807 -0.0913
   76MOL    C8316733   6.001   5.061   5.110  0.1288  0.1809  0.3538
   76MOL    H8416734   5.640   4.964   5.338 -4.0799  0.4547  0.0515
   76MOL    H8516735   5.546   4.956   5.204 -0.9911 -0.2061  0.6893
   76MOL    H8616736   5.777   4.961   5.066  0.3509  0.3281 -0.0797
   76MOL    H8716737   5.964   5.034   5.012  0.7783  1.4548 -0.2626
   76MOL    H8816738   6.085   5.001   5.146 -0.9628 -0.5844  1.6702
   76MOL    H8916739   6.039   5.163   5.100  0.2937  0.0808 -0.0440
   76MOL    C9016740   5.675   5.149   5.102 -0.7477  0.4523 -0.0611
   76MOL    C9116741   5.623   5.246   5.217  0.5281  0.3724 -0.7947
   76MOL    C9216742   5.704   5.376   5.233 -0.0233 -0.5195  0.4241
   76MOL    O9316743   5.689   5.455   5.144 -0.1856  0.4275  0.0961
   76MOL    C9416744   5.794   5.391   5.360  0.2466 -0.5417  0.4892
   76MOL    H9516745   5.741   5.205   5.035 -1.3904  0.5078 -0.6587
   76MOL    H9616746   5.592   5.111   5.042 -1.6519 -0.4313  1.7031
   76MOL    H9716747   5.641   5.189   5.309  1.3053  0.4664 -0.8868
   76MOL    H9816748   5.747   5.338   5.442  1.6192 -1.7691  0.5030
   76MOL    H9916749   5.887   5.340   5.336 -2.0800 -4.8196  0.0274
   76MOL   H10016750   5.800   5.495   5.391  1.0206 -0.3435 -0.2842
   76MOL   C10116751   5.470   5.279   5.189 -0.2617 -0.2374 -0.1424
   76MOL   C10216752   5.385   5.327   5.307 -0.6321  0.0151 -0.5513
   76MOL   C10316753   5.414   5.239   5.434  0.6058  0.6657  0.2255
   76MOL   O10416754   5.414   5.116   5.419 -0.0258 -0.6213  0.4058
   76MOL   C10516755   5.418   5.301   5.575  0.1040 -0.3483 -0.3786
   76MOL   H10616756   5.460   5.346   5.104  0.3973 -0.1746 -0.1723
   76MOL   H10716757   5.421   5.186   5.163 -0.5822 -0.4560  1.2020
   76MOL   H10816758   5.413   5.430   5.330  0.0394 -0.1428 -0.6391
   76MOL   H10916759   5.352   5.388   5.572  0.3910 -0.1610 -1.5560
   76MOL   H11016760   5.361   5.238   5.644  0.8778 -0.0245  0.5588
   76MOL   H11116761   5.517   5.302   5.619  0.1958  0.9804 -0.6021
   76MOL   C11216762   5.236   5.331   5.276 -0.2043  0.0729 -0.4594
   76MOL   C11316763   5.185   5.440   5.174  0.6292 -0.6100 -0.7166
   76MOL   C11416764   5.254   5.573   5.192 -0.1132  0.1075 -0.0489
   76MOL   O11516765   5.226   5.642   5.288  0.1438 -0.3470 -0.2475
   76MOL   C11616766   5.352   5.626   5.089 -0.0584 -0.6273  0.1102
   76MOL   H11716767   5.180   5.358   5.365 -1.5893 -2.4578 -0.5172
   76MOL   H11816768   5.203   5.229   5.258  2.7150 -0.8079 -1.1022
   76MOL   H11916769   5.215   5.404   5.076 -1.1580 -4.2031 -0.0535
   76MOL   H12016770   5.432   5.556   5.065  0.0359 -0.5830  0.2982
   76MOL   H12116771   5.302   5.629   4.992  0.4225  2.0940 -0.1130
   76MOL   H12216772   5.394   5.725   5.111 -0.9672 -0.0827 -0.5357
   76MOL   C12316773   5.036   5.469   5.174 -0.1964  0.6943 -0.4529
   76MOL   C12416774   4.978   5.575   5.071 -0.8644 -0.0071 -0.9175
   76MOL   C12516775   4.830   5.602   5.087  0.4067  0.1265  0.0620
   76MOL   O12616776   4.754   5.508   5.076 -0.8858  0.2451 -0.3480
   76MOL   C12716777   4.781   5.743   5.111  0.4511  0.3668 -0.7376
   76MOL   H12816778   5.001   5.475   5.277  0.8181  0.3513 -0.0750
   76MOL   H12916779   4.989   5.373   5.153 -0.2122  0.6050 -0.0233
   76MOL   H13016780   5.025   5.671   5.092  0.7355 -0.9614  0.0330
   76MOL   H13116781   4.693   5.737   5.046 -0.0170  0.8977 -0.1509
   76MOL   H13216782   4.843   5.828   5.084  1.1672  0.4477  1.1092
   76MOL   H13316783   4.756   5.756   5.216 -1.5343 -1.0743 -0.9873
   76MOL   C13416784   5.018   5.531   4.924 -0.4258 -0.1570  0.9160
   76MOL   C13516785   4.986   5.638   4.814 -1.1150 -0.4773 -0.3241
   76MOL   C13616786   5.042   5.774   4.839  0.7570 -0.3364 -0.7552
   76MOL   O13716787   5.151   5.800   4.889 -0.3419 -0.0335  0.1164
   76MOL   C13816788   4.969   5.894   4.778 -0.1778  0.0844  0.0030
   76MOL   H13916789   4.960   5.440   4.908  2.5605 -2.1070  0.8837
   76MOL   H14016790   5.124   5.505   4.919 -0.2130  0.4444  2.2074
   76MOL   H14116791   4.880   5.660   4.822 -0.5110  1.9922  1.6730
   76MOL   H14216792   5.042   5.966   4.742  1.1241 -0.5206  1.3836
   76MOL   H14316793   4.911   5.941   4.858  1.6334  0.3274  1.1908
   76MOL   H14416794   4.905   5.864   4.695  2.0208 -0.6784 -1.4347
   76MOL   C14516795   5.034   5.575   4.685 -0.6769 -0.4639 -0.1927
   76MOL   C14616796   4.927   5.491   4.620  0.2011  0.1584 -0.2802
   76MOL   C14716797   4.801   5.565   4.584 -0.3054 -0.2372 -0.4790
   76MOL   O14816798   4.794   5.687   4.584  0.1938  0.2663  0.0693
   76MOL   C14916799   4.676   5.479   4.560  0.6952 -0.2616 -0.0730
   76MOL   H15016800   5.125   5.517   4.693 -2.9796 -4.0141  1.4562
   76MOL   H15116801   5.070   5.656   4.620 -0.9448 -0.4198 -0.2891
   76MOL   H15216802   4.881   5.431   4.698  0.6740  1.8560  1.3378
   76MOL   H15316803   4.688   5.414   4.473 -0.7960 -0.3673 -0.2188
   76MOL   H15416804   4.659   5.418   4.649 -0.5098  0.7393  0.4019
   76MOL   H15516805   4.587   5.542   4.554  0.6619 -0.3782 -0.8730
   76MOL   C15616806   4.971   5.395   4.507 -0.4742 -0.9205 -0.2913
   76MOL   C15716807   5.024   5.472   4.377 -0.0749  0.0455 -0.3215
   76MOL   C15816808   4.945   5.444   4.252  0.0996 -0.8392 -0.3320
   76MOL   O15916809   4.956   5.341   4.194 -0.2721 -0.6047 -0.5654
   76MOL   C16016810   4.850   5.546   4.207 -0.1941 -0.0216  0.5924
   76MOL   H16116811   5.057   5.332   4.531  1.1935  1.9699  1.6405
   76MOL   H16216812   4.888   5.328   4.486 -1.1572 -0.2522  0.2536
   76MOL   H16316813   5.002   5.574   4.408 -1.9176 -0.8760  1.4973
   76MOL   H16416814   4.746   5.515   4.205  0.5979 -2.7633 -0.4655
   76MOL   H16516815   4.883   5.580   4.108 -2.9417  1.2335  0.0569
   76MOL   H16616816   4.849   5.631   4.276  0.3471  2.6240 -2.5248
   76MOL   C16716817   5.179   5.451   4.357  0.4566  0.2049  0.1072
   76MOL   C16816818   5.257   5.587   4.357  0.5971  0.6041 -0.4019
   76MOL   C16916819   5.213   5.680   4.248 -0.1249  0.3858  0.2400
   76MOL   O17016820   5.152   5.782   4.276  0.0477 -0.2913  0.2831
   76MOL   C17116821   5.235   5.644   4.109 -0.0386 -0.3454  0.3359
   76MOL   H17216822   5.224   5.400   4.442  0.0896 -1.6094 -0.7567
   76MOL   H17316823   5.210   5.395   4.268  1.5018  1.9716 -0.6808
   76MOL   H17416824   5.230   5.639   4.449 -0.0193  0.1879 -0.3406
   76MOL   H17516825   5.232   5.729   4.040  0.0159 -0.2100  0.5013
   76MOL   H17616826   5.172   5.563   4.070 -0.0083 -0.2953  0.1816
   76MOL   H17716827   5.334   5.601   4.093  0.8583  0.8721  2.5541
   76MOL   C17816828   5.409   5.582   4.349 -0.5201  0.0730  0.3104
   76MOL   C17916829   5.478   5.593   4.492 -0.1001 -0.0421  0.3017
   76MOL   C18016830   5.456   5.726   4.568 -0.5458 -0.3143 -0.5272
   76MOL   O18116831   5.433   5.826   4.499 -0.0901 -0.2948 -0.0274
   76MOL   C18216832   5.465   5.727   4.717  0.5450  0.0136  0.0900
   76MOL   H18316833   5.420   5.486   4.300 -0.8162  1.0857 -1.7905
   76MOL   H18416834   5.457   5.662   4.293 -0.1112  1.3440  2.3880
   76MOL   H18516835   5.428   5.515   4.549  1.1544 -1.5771 -0.6690
   76MOL   H18616836   5.384   5.786   4.761 -0.4410 -1.5359  0.3677
   76MOL   H18716837   5.555   5.775   4.755 -0.6969  0.6569  2.3011
   76MOL   H18816838   5.457   5.628   4.761 -0.9328 -0.5197 -1.3090
   76MOL   C18916839   5.629   5.559   4.484 -0.0981  0.4526 -0.0803
   76MOL   C19016840   5.704   5.517   4.617 -0.1843  0.0410  0.1102
   76MOL   C19116841   5.632   5.394   4.681  0.0130 -0.0249  0.6532
   76MOL   O19216842   5.567   5.309   4.616 -0.5830 -0.2048 -0.3592
   76MOL   C19316843   5.668   5.363   4.829  0.5528 -0.2931  0.2584
   76MOL   H19416844   5.645   5.487   4.404  2.3535  0.5121  0.2896
   76MOL   H19516845   5.679   5.648   4.447 -1.0916  0.2821 -1.8323
   76MOL   H19616846   5.698   5.607   4.678  1.6759  2.1151 -2.6514
   76MOL   H19716847   5.716   5.444   4.884 -2.9042  0.2598  2.6738
   76MOL   H19816848   5.588   5.314   4.886  0.0468 -1.8662 -1.7608
   76MOL   H19916849   5.738   5.280   4.818 -0.5416 -0.8885 -2.6267
   76MOL   C20016850   5.855   5.471   4.591 -0.6685 -0.5682  0.5851
   76MOL   C20116851   5.953   5.580   4.533 -0.4667 -0.2606 -0.0066
   76MOL   C20216852   6.034   5.524   4.415 -0.1035  0.4040  0.5141
   76MOL   O20316853   6.157   5.526   4.419  0.5547  0.1392  0.1979
   76MOL   C20416854   5.949   5.482   4.288 -0.7678 -0.2799  0.2962
   76MOL   H20516855   5.891   5.430   4.685 -1.3373 -0.2924  0.9696
   76MOL   H20616856   5.862   5.385   4.525  1.3365  0.0060  0.0041
   76MOL   H20716857   5.881   5.649   4.489 -1.0444 -0.1138  1.1430
   76MOL   H20816858   5.905   5.575   4.252 -0.1773  0.6283  1.8151
   76MOL   H20916859   5.998   5.440   4.201 -2.1215  0.1228 -0.6764
   76MOL   H21016860   5.855   5.432   4.311 -1.6326  1.4965  0.7665
   76MOL   C21116861   6.033   5.660   4.649  0.3344  0.3311  0.2299
   76MOL   C21216862   6.118   5.778   4.605  0.5274 -0.6290  0.0772
   76MOL   C21316863   6.189   5.859   4.723 -0.8751  0.2404  1.0772
   76MOL   O21416864   6.134   5.938   4.794 -0.3284 -0.4275 -0.1259
   76MOL   C21516865   6.346   5.834   4.733  0.7158  0.1592  0.3335
   76MOL   H21616866   5.959   5.678   4.727 -1.2964 -0.3282 -1.1229
   76MOL   H21716867   6.094   5.582   4.693  0.9001  1.5475  1.6391
   76MOL   H21816868   6.055   5.846   4.548  2.2886  0.8979 -0.1012
   76MOL   H21916869   6.398   5.897   4.805 -0.7170 -0.7373  2.1902
   76MOL   H22016870   6.369   5.729   4.754  1.4600  0.6031  1.8171
   76MOL   H22116871   6.399   5.858   4.641  0.0267  0.2492 -0.0384
   76MOL   H22216872   6.193   5.742   4.534 -0.1028 -1.3388 -0.2351
   77MOL     C116873   0.812   3.501   7.566  0.3456 -0.0371 -0.0727
   77MOL     C216874   0.832   3.484   7.417 -0.6157 -0.6597  0.6592
   77MOL     C316875   0.856   3.340   7.375 -0.0853 -0.5817  0.7038
   77MOL     O416876   0.789   3.250   7.412  0.5730 -0.0087 -0.2675
   77MOL     C516877   0.965   3.314   7.269  0.5464  0.2858  0.0648
   77MOL     H616878   0.900   3.463   7.619 -0.2121  0.6957  1.4114
   77MOL     H716879   0.723   3.441   7.587  0.0212  0.3966 -0.2126
   77MOL     H816880   0.923   3.540   7.395 -2.1205  0.6220 -2.6876
   77MOL     H916881   0.969   3.390   7.190  1.6469  0.7756  0.5800
   77MOL    H1016882   1.047   3.324   7.339 -0.3740 -0.0536  1.2079
   77MOL    H1116883   0.947   3.214   7.229 -1.3550  0.1173  1.2738
   77MOL    H1216884   0.793   3.599   7.608  2.7674 -0.2667  1.7163
   77MOL    C1316885   0.714   3.543   7.326  0.3017  0.4249  0.2942
   77MOL    C1416886   0.745   3.677   7.267  0.5841 -0.3207 -0.3003
   77MOL    C1516887   0.861   3.677   7.167 -0.3656 -0.1710 -0.0760
   77MOL    O1616888   0.968   3.730   7.196 -0.5069 -0.3501  0.0857
   77MOL    C1716889   0.851   3.593   7.043 -0.5782  0.6627  0.2115
   77MOL    H1816890   0.690   3.480   7.241 -1.0536  0.8596  0.3456
   77MOL    H1916891   0.621   3.532   7.381  0.3138 -1.7637 -0.1107
   77MOL    H2016892   0.662   3.718   7.208  1.2028  3.2075  1.1443
   77MOL    H2116893   0.952   3.561   7.016 -0.7536  0.7572 -0.5888
   77MOL    H2216894   0.803   3.497   7.063  2.3100 -1.1818 -1.2891
   77MOL    H2316895   0.798   3.641   6.960 -1.8182 -0.2316  0.4725
   77MOL    C2416896   0.754   3.795   7.375 -0.0332  0.0864 -0.1508
   77MOL    C2516897   0.708   3.929   7.328  0.1836  0.2751 -0.5854
   77MOL    C2616898   0.555   3.949   7.292 -0.2031  0.1527 -0.5081
   77MOL    O2716899   0.472   3.903   7.370  0.1996 -0.6832 -0.4162
   77MOL    C2816900   0.524   4.024   7.163 -0.2111  0.0191 -0.2767
   77MOL    H2916901   0.693   3.751   7.454  0.1569 -0.2863 -0.2089
   77MOL    H3016902   0.855   3.801   7.415 -0.9856  1.9154  2.0573
   77MOL    H3116903   0.765   3.960   7.240  0.4325  1.6855  0.0464
   77MOL    H3216904   0.502   4.130   7.175 -1.7967 -0.2456 -0.6816
   77MOL    H3316905   0.609   4.027   7.095 -0.1162  0.4568 -0.1396
   77MOL    H3416906   0.437   3.981   7.114 -0.5394  0.9545 -0.5296
   77MOL    C3516907   0.747   4.027   7.437 -0.4588  0.3737 -0.6133
   77MOL    C3616908   0.897   4.055   7.461 -0.5737 -0.4677 -0.4405
   77MOL    C3716909   0.944   4.127   7.335 -0.4526  0.8310  0.6441
   77MOL    O3816910   0.911   4.242   7.320  0.0736  0.6470  0.3097
   77MOL    C3916911   1.028   4.049   7.243 -0.6521 -0.1741  0.3999
   77MOL    H4016912   0.702   3.989   7.529  0.4930  0.7445  0.0120
   77MOL    H4116913   0.690   4.118   7.421 -1.6229 -0.0122  1.1095
   77MOL    H4216914   0.954   3.965   7.486 -1.5579 -0.5642  1.5291
   77MOL    H4316915   1.086   4.106   7.170 -0.2561 -0.6099  0.3698
   77MOL    H4416916   0.954   3.993   7.186 -1.6768  2.4992 -0.9650
   77MOL    H4516917   1.093   3.976   7.293  0.7710  1.1216  0.4853
   77MOL    C4616918   0.923   4.159   7.583  0.7941  0.4927  0.3545
   77MOL    C4716919   0.885   4.099   7.719  0.3447  0.2543 -0.5911
   77MOL    C4816920   0.951   3.957   7.745 -0.5912 -0.9368 -0.3277
   77MOL    O4916921   1.065   3.941   7.755 -0.3350 -0.3895 -0.7538
   77MOL    C5016922   0.856   3.846   7.772  0.4064  0.1927 -0.1191
   77MOL    H5116923   0.860   4.244   7.559  1.5014  1.0228  0.3665
   77MOL    H5216924   1.023   4.203   7.582  1.2098 -0.2903  3.7179
   77MOL    H5316925   0.777   4.084   7.713  0.3532 -2.5528  3.8275
   77MOL    H5416926   0.907   3.750   7.759 -0.1277 -0.2439  0.9288
   77MOL    H5516927   0.825   3.859   0.017  2.7012 -1.4338  0.8388
   77MOL    H5616928   0.767   3.860   7.711  0.2576  1.5750  0.4210
   77MOL    C5716929   0.899   4.195   7.843 -0.0456  0.5457 -1.0719
   77MOL    C5816930   0.771   4.245   0.059  0.3074 -0.4191 -0.4091
   77MOL    C5916931   0.690   4.340   7.835 -0.1383  0.4227 -0.4133
   77MOL    O6016932   0.584   4.311   7.784 -0.0515  0.3720  0.6786
   77MOL    C6116933   0.746   4.473   7.799  0.4650  0.9225 -0.6440
   77MOL    H6216934   0.956   4.276   7.798  0.9049  0.9583  0.8143
   77MOL    H6316935   0.976   4.153   0.050  1.0696  0.0945 -2.6820
   77MOL    H6416936   0.807   4.309   0.140  0.6887 -0.2325 -0.7217
   77MOL    H6516937   0.679   4.552   7.834  0.5491  0.7970 -0.2001
   77MOL    H6616938   0.839   4.490   7.853  0.5729  0.5987 -0.7316
   77MOL    H6716939   0.762   4.472   7.691  2.1999 -0.5434 -0.3874
   77MOL    C6816940   0.695   4.126   0.117 -0.0669  0.0598  0.0796
   77MOL    C6916941   0.551   4.123   0.169  0.4073 -0.2684  0.1258
   77MOL    C7016942   0.538   4.198   0.307 -0.1896  0.2202  0.3456
   77MOL    O7116943   0.631   4.206   0.382  0.1895  0.1888 -0.0455
   77MOL    C7216944   0.403   4.260   0.345  0.4892 -0.2142 -0.4525
   77MOL    H7316945   0.703   4.041   0.049 -0.2092  0.4112 -0.3810
   77MOL    H7416946   0.758   4.083   0.195  1.3180 -0.9911 -1.5685
   77MOL    H7516947   0.487   4.179   0.101  1.5373  1.9171  0.8192
   77MOL    H7616948   0.342   4.250   0.256  1.2232  2.8990 -1.3567
   77MOL    H7716949   0.352   4.193   0.414 -1.2168  1.0767 -0.4558
   77MOL    H7816950   0.408   4.364   0.377 -0.2995 -0.6539  1.1698
   77MOL    C7916951   0.489   3.983   0.186  0.1013 -0.9147  0.1529
   77MOL    C8016952   0.443   3.904   0.059 -1.0890 -0.1293 -0.6250
   77MOL    C8116953   0.327   3.973   7.850 -0.0651  0.6013 -0.4735
   77MOL    O8216954   0.230   4.007   0.061 -0.2585  0.4862 -0.0660
   77MOL    C8316955   0.324   3.980   7.703 -0.4475  0.0066 -0.3143
   77MOL    H8416956   0.424   3.972   0.272  0.2421  0.6937  0.4745
   77MOL    H8516957   0.572   3.924   0.224 -0.6374 -1.2108  1.3090
   77MOL    H8616958   0.534   3.910   7.855  0.8357 -1.0924  2.0496
   77MOL    H8716959   0.359   4.080   7.678  0.7268 -0.6827 -1.4538
   77MOL    H8816960   0.227   3.953   7.660 -0.2410  1.4508 -1.7346
   77MOL    H8916961   0.403   3.927   7.650  1.2269  1.8063  0.3145
   77MOL    C9016962   0.408   3.755   0.094  0.0507 -0.3168 -0.3311
   77MOL    C9116963   0.361   3.658   7.839  0.2795 -0.0433  0.0211
   77MOL    C9216964   0.474   3.649   7.734 -0.0114 -0.4510  0.3040
   77MOL    O9316965   0.590   3.674   7.765  0.3430 -0.3548  0.3576
   77MOL    C9416966   0.433   3.629   7.587  0.0620 -0.0144  0.1360
   77MOL    H9516967   0.484   3.704   0.155  0.9022  0.4767 -0.7147
   77MOL    H9616968   0.325   3.766   0.164  1.2557 -0.9233  1.2297
   77MOL    H9716969   0.273   3.702   7.792 -0.2285 -1.7264 -0.6477
   77MOL    H9816970   0.473   3.716   7.535  1.3506  0.1031  1.3150
   77MOL    H9916971   0.478   3.544   7.536 -0.5660 -0.4789  0.3494
   77MOL   H10016972   0.325   3.613   7.583 -0.1387  0.9443  1.4858
   77MOL   C10116973   0.328   3.518   0.032 -0.4465  0.5937 -0.5832
   77MOL   C10216974   0.232   3.442   7.800 -0.1769  0.3330  0.6672
   77MOL   C10316975   0.090   3.516   7.793 -0.4470 -0.1583  0.7962
   77MOL   O10416976   0.001   3.497   0.019  0.3719 -0.7534  0.2148
   77MOL   C10516977   0.057   3.592   7.667 -0.7278 -0.5295 -1.0038
   77MOL   H10616978   0.423   3.466   0.042 -0.6869  0.3836  0.6329
   77MOL   H10716979   0.272   3.534   0.124 -0.6775  0.3681 -0.6842
   77MOL   H10816980   0.271   3.446   7.698  1.9711  0.9767  1.4720
   77MOL   H10916981   0.121   3.680   7.668 -0.1906 -0.9212 -0.4988
   77MOL   H11016982   0.077   3.536   7.576  0.7205 -2.1905  0.2864
   77MOL   H11116983   7.814   3.632   7.675 -0.3737  0.5299 -1.6953
   77MOL   C11216984   0.205   3.294   7.847  0.7059 -0.1693  0.1434
   77MOL   C11316985   0.148   3.193   7.745  0.5901 -0.0983  0.4697
   77MOL   C11416986   0.249   3.185   7.630 -0.1896 -0.2221  0.4274
   77MOL   O11516987   0.234   3.229   7.514 -0.0610  0.0527 -0.5030
   77MOL   C11616988   0.373   3.107   7.653 -0.3989  0.3874  1.0593
   77MOL   H11716989   0.143   3.293   0.079  1.0499 -0.4781  0.3764
   77MOL   H11816990   0.299   3.253   0.024  0.4877 -0.1366  0.7709
   77MOL   H11916991   0.148   3.097   7.796 -0.2363 -0.4393 -0.1726
   77MOL   H12016992   0.461   3.155   7.611 -1.3328 -0.7810 -2.4429
   77MOL   H12116993   0.393   3.079   7.756 -2.1978 -0.6129  1.1629
   77MOL   H12216994   0.367   3.015   7.594  0.1304  1.4699 -0.7420
   77MOL   C12316995   0.009   3.229   7.686 -0.4656 -0.4168 -0.1906
   77MOL   C12416996   7.799   3.117   7.605 -0.1636 -0.6399  0.0371
   77MOL   C12516997   7.676   3.171   7.535 -0.3918  0.8205  0.2166
   77MOL   O12616998   7.576   3.102   7.520 -0.0851  0.1129 -0.3793
   77MOL   C12716999   7.683   3.297   7.454 -0.0854  1.1575 -0.3295
   77MOL   H12817000   0.017   3.320   7.627 -2.9957  0.9868  1.5491
   77MOL   H12917001   7.798   3.254   7.767 -1.5585 -0.3678 -1.1186
   77MOL   H13017002   0.015   3.081   7.533  0.9299  1.2683  0.1610
   77MOL   H13117003   7.618   3.290   7.366 -1.3695  1.0490  0.6194
   77MOL   H13217004   7.783   3.326   7.422 -0.1018  3.1719  1.3547
   77MOL   H13317005   7.648   3.378   7.518 -0.9348  1.0906 -0.6987
   77MOL   C13417006   7.748   2.998   7.695 -0.5683 -0.7575  0.4521
   77MOL   C13517007   7.742   2.853   7.636  0.1720  0.0801  0.0722
   77MOL   C13617008   0.030   2.801   7.595 -0.0074 -0.4281  1.2002
   77MOL   O13717009   0.133   2.848   7.651  0.5441 -0.3576 -0.2766
   77MOL   C13817010   0.043   2.706   7.483 -0.0432 -0.3857  0.8977
   77MOL   H13917011   7.656   3.023   7.748 -0.7764 -0.2549 -0.1364
   77MOL   H14017012   7.816   2.990   7.780 -1.1535 -1.8126  0.8272
   77MOL   H14117013   7.672   2.861   7.552  0.6059 -1.0676 -0.4182
   77MOL   H14217014   0.041   2.750   7.383  0.5933 -2.0604  0.1100
   77MOL   H14317015   7.813   2.641   7.493 -0.6830  0.0514 -1.5624
   77MOL   H14417016   0.135   2.649   7.496 -0.6018 -1.4653  0.2388
   77MOL   C14517017   7.693   2.746   7.734  0.2708  0.0805  0.0159
   77MOL   C14617018   7.553   2.766   7.794 -0.1297  0.9878  0.7263
   77MOL   C14717019   7.443   2.734   7.688 -0.1300  0.7145 -0.2195
   77MOL   O14817020   7.391   2.620   7.672  0.5435  0.5350  0.1152
   77MOL   C14917021   7.391   2.853   7.592 -0.0562  0.4263  0.0702
   77MOL   H15017022   7.771   2.743   7.810 -0.2505  0.4440  0.5680
   77MOL   H15117023   7.698   2.650   7.682  1.4630  0.1618 -0.0162
   77MOL   H15217024   7.556   2.869   7.830 -0.6268  1.5675 -0.8351
   77MOL   H15317025   7.291   2.887   7.616 -0.0115  1.0089 -0.5728
   77MOL   H15417026   7.459   2.934   7.619 -1.5275  1.6291  0.1982
   77MOL   H15517027   7.396   2.821   7.488  0.2101  1.4934 -0.2429
   77MOL   C15617028   7.524   2.679   0.059  0.1059  0.3607  0.5449
   77MOL   C15717029   7.399   2.713   0.153  0.2011  0.4027  0.1918
   77MOL   C15817030   7.410   2.849   0.235 -0.0021 -0.1428 -0.7586
   77MOL   O15917031   7.513   2.912   0.250 -0.0881  0.1419  0.0551
   77MOL   C16017032   7.284   2.894   0.293  0.6284  0.3908  0.1327
   77MOL   H16117033   7.518   2.574   0.032 -1.4338  0.6200 -0.2284
   77MOL   H16217034   7.612   2.673   0.122  1.2289 -2.5023 -1.1798
   77MOL   H16317035   7.310   2.739   0.096  0.9137 -0.1390 -1.1821
   77MOL   H16417036   7.296   2.992   0.339 -0.7094  0.2264  0.8746
   77MOL   H16517037   7.258   2.827   0.376  2.6538  0.6435  0.9873
   77MOL   H16617038   7.214   2.898   0.210  1.4200 -1.3391 -0.6463
   77MOL   C16717039   7.354   2.596   0.245 -0.2860 -0.8014 -0.0559
   77MOL   C16817040   7.408   2.592   0.388 -0.1380  0.8758  0.1933
   77MOL   C16917041   7.556   2.539   0.397 -0.2288 -0.5866  0.0380
   77MOL   O17017042   7.589   2.423   0.406  0.0265  0.4203  0.3973
   77MOL   C17117043   7.661   2.649   0.413  0.1011 -0.4141 -0.2064
   77MOL   H17217044   7.245   2.594   0.238 -0.2708  1.8075 -1.8088
   77MOL   H17317045   7.378   2.505   0.189  1.3666  1.1752 -2.6533
   77MOL   H17417046   7.404   2.693   0.430  0.9475  1.1791 -0.4070
   77MOL   H17517047   7.716   2.662   0.320 -0.9640  0.3418 -0.7437
   77MOL   H17617048   7.748   2.627   0.475 -0.3677  1.0782  1.0080
   77MOL   H17717049   7.616   2.746   0.436 -3.7335 -2.5005  1.5390
   77MOL   C17817050   7.313   2.503   0.472 -0.1054 -0.8192  0.1630
   77MOL   C17917051   7.332   2.500   0.628 -0.2096  0.3547 -0.4152
   77MOL   C18017052   7.256   2.387   0.689 -0.1499  0.5034 -0.2607
   77MOL   O18117053   7.311   2.305   0.761  0.8442  0.3560  0.2324
   77MOL   C18217054   7.102   2.376   0.663  0.0963  0.6304 -0.1360
   77MOL   H18317055   7.209   2.530   0.455  0.1147 -0.0888 -0.0381
   77MOL   H18417056   7.316   2.399   0.438 -1.4953 -1.5936  2.3152
   77MOL   H18517057   7.437   2.494   0.656 -0.6231 -0.0779  1.1154
   77MOL   H18617058   7.059   2.474   0.639  0.4776  0.9026  0.2834
   77MOL   H18717059   7.056   2.334   0.752 -1.4640 -1.2970 -1.8070
   77MOL   H18817060   7.088   2.311   0.577  3.1006 -2.0424  1.2858
   77MOL   C18917061   7.292   2.639   0.682  0.9482 -0.3056  0.2226
   77MOL   C19017062   7.404   2.717   0.751  0.7320 -0.2936  0.5168
   77MOL   C19117063   7.367   2.866   0.744 -0.5596  0.2751 -0.0601
   77MOL   O19217064   7.269   2.916   0.796  0.3170 -0.7897  0.9935
   77MOL   C19317065   7.468   2.944   0.667 -1.0875  0.2426 -0.2781
   77MOL   H19417066   7.250   2.696   0.599  1.0347  0.2356  0.5445
   77MOL   H19517067   7.205   2.649   0.747  1.6150 -2.5435  1.5151
   77MOL   H19617068   7.484   2.692   0.681  0.7891 -1.1147  0.8644
   77MOL   H19717069   7.465   3.038   0.722 -3.4498 -0.2758  0.5545
   77MOL   H19817070   7.565   2.896   0.663 -1.2882 -0.3153  1.2030
   77MOL   H19917071   7.438   2.964   0.564 -0.1816  0.1080 -0.5739
   77MOL   C20017072   7.438   2.654   0.886 -0.3947  0.4323  0.0382
   77MOL   C20117073   7.576   2.683   0.947 -0.2401  0.0680 -0.3677
   77MOL   C20217074   7.688   2.640   0.852  0.6357 -0.1453  0.2885
   77MOL   O20317075   7.722   2.706   0.750  0.4930  0.0879 -0.7926
   77MOL   C20417076   7.738   2.499   0.864 -0.2912  0.0931  0.5112
   77MOL   H20517077   7.367   2.696   0.957 -2.9789  0.6587 -2.5482
   77MOL   H20617078   7.421   2.547   0.891  2.5063 -0.1581 -1.8459
   77MOL   H20717079   7.580   2.792   0.951  1.9026  0.0150 -0.7014
   77MOL   H20817080   7.806   2.497   0.949  2.2089 -0.3161 -1.4460
   77MOL   H20917081   7.651   2.435   0.876 -0.5124  0.1889 -0.5373
   77MOL   H21017082   7.804   2.479   0.779  1.9580  1.4727  1.8802
   77MOL   C21117083   7.590   2.621   1.093  0.2590  0.3074  0.2503
   77MOL   C21217084   7.691   2.697   1.181 -0.1021  0.3150 -0.1837
   77MOL   C21317085   7.842   2.678   1.156 -0.1635  0.3604 -0.6529
   77MOL   O21417086   0.044   2.751   1.076 -0.3403 -0.0810  0.2357
   77MOL   C21517087   0.063   2.585   1.248 -0.6434 -0.1398 -0.3218
   77MOL   H21617088   7.497   2.634   1.148 -0.7882 -0.4528 -1.3175
   77MOL   H21717089   7.610   2.515   1.082  1.4304  0.5708 -0.2544
   77MOL   H21817090   7.666   2.700   1.287  2.9333  2.4655  0.5329
   77MOL   H21917091   0.166   2.621   1.241 -0.1473 -0.8699  2.5145
   77MOL   H22017092   0.045   2.609   1.353  2.0429  0.7239 -0.0025
   77MOL   H22117093   0.044   2.479   1.231 -0.8189 -0.0855 -0.4678
   77MOL   H22217094   7.668   2.803   1.167  1.4225  0.6561 -0.1961
   78MOL     C117095   6.309   7.457   4.030 -0.2691  0.3582  0.2803
   78MOL     C217096   6.446   7.386   4.031  0.9781 -0.4060  0.6592
   78MOL     C317097   6.442   7.232   4.021  0.9541  0.3671 -0.4441
   78MOL     O417098   6.352   7.162   3.969  0.3665  0.1419  0.1748
   78MOL     C517099   6.562   7.164   4.086  0.1376  0.5692  0.4856
   78MOL     H617100   6.311   7.564   4.050 -1.4505  0.4165  0.1306
   78MOL     H717101   6.244   7.410   4.104  0.3315  2.9587  2.5190
   78MOL     H817102   6.488   7.400   4.130  1.1462  2.6079  0.2353
   78MOL     H917103   6.644   7.233   4.109  1.4777 -0.7516 -0.2810
   78MOL    H1017104   6.532   7.135   4.187  0.4177 -0.7735  0.1875
   78MOL    H1117105   6.611   7.086   4.028 -2.5143 -1.6667  1.1531
   78MOL    H1217106   6.254   7.456   3.936 -0.3228 -0.3927  0.3099
   78MOL    C1317107   6.541   7.457   3.924 -0.5442 -0.2738  0.0291
   78MOL    C1417108   6.654   7.550   3.980 -0.2177  0.1268  0.2863
   78MOL    C1517109   6.743   7.459   4.076  0.4747 -0.3115  0.2383
   78MOL    O1617110   6.710   7.443   4.194 -0.3471 -0.0646  0.0511
   78MOL    C1717111   6.870   7.398   4.013 -0.5239  0.4396 -0.0511
   78MOL    H1817112   6.581   7.382   3.856  2.0491  1.4956 -0.4956
   78MOL    H1917113   6.479   7.532   3.874 -2.0520 -1.4693  0.0817
   78MOL    H2017114   6.706   7.586   3.891  1.1879 -1.7694  0.3131
   78MOL    H2117115   6.947   7.474   4.021  0.1432 -0.3106  0.7863
   78MOL    H2217116   6.903   7.307   4.064 -0.2585 -0.9343 -2.6020
   78MOL    H2317117   6.846   7.380   3.908 -1.1638 -0.3980  0.2341
   78MOL    C2417118   6.606   7.676   4.050 -0.3867 -0.0876 -0.0855
   78MOL    C2517119   6.720   7.775   4.109  0.7524 -0.6204  0.4038
   78MOL    C2617120   6.815   7.826   3.992  0.6829  0.1992  0.8389
   78MOL    O2717121   6.781   0.068   3.927  0.3476  0.4992  0.1804
   78MOL    C2817122   6.936   7.745   3.950 -0.1477 -0.0436 -0.2843
   78MOL    H2917123   6.543   7.730   3.979  0.7062 -1.0392 -1.8200
   78MOL    H3017124   6.555   7.653   4.143 -1.1562  1.9849  0.0287
   78MOL    H3117125   6.784   7.724   4.181 -0.1483  0.1116  1.7608
   78MOL    H3217126   7.016   7.810   3.915  0.0905 -0.8889 -1.3419
   78MOL    H3317127   6.957   7.682   4.036  2.5091  0.4898 -0.5021
   78MOL    H3417128   6.914   7.673   3.871 -1.0122  1.0715 -1.0784
   78MOL    C3517129   6.661   0.039   4.182 -0.0921 -0.0368 -0.0785
   78MOL    C3617130   6.580   0.016   4.314  0.1674  0.4826 -0.6106
   78MOL    C3717131   6.629   7.770   4.408 -0.5340  0.4764  0.0852
   78MOL    O3817132   6.734   7.789   4.468  0.1022  0.7587 -0.0534
   78MOL    C3917133   6.533   7.654   4.449 -0.9023  0.3365  0.4027
   78MOL    H4017134   6.601   0.108   4.121 -0.0834  0.0159 -0.0276
   78MOL    H4117135   6.742   0.105   4.214  0.6722 -0.3585 -1.3049
   78MOL    H4217136   6.486   7.829   4.282  0.4953  0.1686 -1.1370
   78MOL    H4317137   6.440   7.702   4.478 -0.8801  0.6398 -0.0227
   78MOL    H4417138   6.572   7.604   4.537  1.3888  0.5992 -0.4254
   78MOL    H4517139   6.511   7.583   4.369  0.6827  0.3932 -0.1043
   78MOL    C4617140   6.555   0.151   4.384 -0.9131 -0.1313 -0.0880
   78MOL    C4717141   6.408   0.150   4.440 -0.2538 -0.3193  0.0138
   78MOL    C4817142   6.404   0.216   4.577  0.0662  0.1161  0.3487
   78MOL    O4917143   6.366   0.332   4.591  0.0546  0.1626  0.0034
   78MOL    C5017144   6.450   0.127   4.696  0.1480  0.0601  0.3351
   78MOL    H5117145   6.554   0.229   4.307  1.0945 -1.3943 -1.4393
   78MOL    H5217146   6.627   0.177   4.460 -3.4046  0.6202  2.0964
   78MOL    H5317147   6.386   0.046   4.463 -1.7945  0.4529  2.2319
   78MOL    H5417148   6.369   0.114   4.767  1.8905 -3.2590  1.8434
   78MOL    H5517149   6.486   0.031   4.658  0.6533  0.9446 -1.4371
   78MOL    H5617150   6.539   0.158   4.752 -1.3053 -0.2606  2.8922
   78MOL    C5717151   6.303   0.224   4.354  0.7737 -0.0991 -0.2917
   78MOL    C5817152   6.272   0.162   4.220 -0.0124 -0.0198 -0.4604
   78MOL    C5917153   6.202   0.025   4.233 -0.2225 -0.4091  0.1289
   78MOL    O6017154   6.261   7.784   4.197 -0.2741 -0.0751  0.0415
   78MOL    C6117155   6.070   0.017   4.304 -0.5144  0.0887 -0.3497
   78MOL    H6217156   6.333   0.327   4.336  0.6940  0.3026  1.7405
   78MOL    H6317157   6.212   0.232   4.414  0.1209 -1.3215 -1.0891
   78MOL    H6417158   6.366   0.142   4.169  1.2734  1.7782  1.1399
   78MOL    H6517159   6.004   0.100   4.277 -0.2635  0.6134  0.6409
   78MOL    H6617160   6.019   7.780   4.285 -2.2591  1.3092 -1.8932
   78MOL    H6717161   6.081   0.038   4.410  0.8392 -0.2197 -0.4188
   78MOL    C6817162   6.192   0.258   4.132 -0.2321 -0.1657 -0.5500
   78MOL    C6917163   6.185   0.223   3.978 -0.9775 -0.4573  0.1453
   78MOL    C7017164   6.325   0.232   3.915  0.2197 -0.6260 -0.2883
   78MOL    O7117165   6.378   0.342   3.902 -0.2142 -0.1364  0.1619
   78MOL    C7217166   6.388   0.106   3.874  0.3127  0.2161  0.3592
   78MOL    H7317167   6.087   0.263   4.160 -0.7108  0.3287 -2.4031
   78MOL    H7417168   6.227   0.359   4.152  0.9241 -0.8035  0.7580
   78MOL    H7517169   6.149   0.122   3.959 -1.9523  0.3797 -2.5798
   78MOL    H7617170   6.366   0.091   3.768  3.1373 -0.3827 -0.1794
   78MOL    H7717171   6.496   0.111   3.881  0.5871 -2.9141 -0.9735
   78MOL    H7817172   6.362   0.014   3.926 -0.7934  0.8262  0.8985
   78MOL    C7917173   6.083   0.315   3.897  0.2226  0.0769  0.4733
   78MOL    C8017174   5.937   0.314   3.955  0.2195  0.0084 -0.4523
   78MOL    C8117175   5.881   0.172   3.971 -0.0311 -0.7249 -0.8098
   78MOL    O8217176   5.923   0.079   3.907  0.0789 -0.1711  0.0637
   78MOL    C8317177   5.781   0.153   4.084  0.4458  0.0236 -0.0696
   78MOL    H8417178   6.083   0.281   3.793  1.9287  0.5563  0.2984
   78MOL    H8517179   6.126   0.415   3.885 -0.7346  0.3328 -0.8902
   78MOL    H8617180   5.942   0.353   4.057  0.3173 -1.6801  0.2079
   78MOL    H8717181   5.814   0.076   4.154  0.2913 -1.8253 -1.9672
   78MOL    H8817182   5.683   0.124   4.046  0.2141 -3.7441  3.0275
   78MOL    H8917183   5.764   0.247   4.136 -0.7817 -0.5049  0.5037
   78MOL    C9017184   5.847   0.392   3.858 -0.0734 -0.1446  0.0325
   78MOL    C9117185   5.697   0.427   3.898  0.2924 -0.4330 -0.3076
   78MOL    C9217186   5.690   0.506   4.028 -0.0126  0.4410  0.2542
   78MOL    O9317187   5.628   0.465   4.129  0.0628 -0.4177  0.7837
   78MOL    C9417188   5.790   0.630   4.040  0.2545  0.1549 -0.5722
   78MOL    H9517189   5.900   0.484   3.836  0.6599 -0.9029 -1.4071
   78MOL    H9617190   5.828   0.344   3.762  0.5063 -3.0085  1.2885
   78MOL    H9717191   5.643   0.333   3.907 -1.3966  0.6161  1.0908
   78MOL    H9817192   5.756   0.699   4.118 -0.6087  0.1557 -0.9417
   78MOL    H9917193   5.892   0.599   4.060  0.3415  0.0825 -1.1420
   78MOL   H10017194   5.771   0.680   3.946  1.4634  0.4113 -0.6803
   78MOL   C10117195   5.623   0.497   3.780  0.1317  0.3753  0.4190
   78MOL   C10217196   5.476   0.542   3.813 -0.5775  0.4088  0.6374
   78MOL   C10317197   5.374   0.422   3.828  0.3154  0.6644 -0.2556
   78MOL   O10417198   5.393   0.312   3.773 -0.1956  0.1394  0.3118
   78MOL   C10517199   5.259   0.452   3.922 -0.0254 -0.3417  0.5174
   78MOL   H10617200   5.679   0.590   3.768  0.4176  0.1746  0.2312
   78MOL   H10717201   5.628   0.431   3.694  1.8038  1.3497 -0.2502
   78MOL   H10817202   5.485   0.595   3.908 -0.8043 -1.3611  1.6685
   78MOL   H10917203   5.167   0.439   3.864  0.0241 -1.6582  0.7303
   78MOL   H11017204   5.276   0.377   3.999  2.6605  3.7912  4.2356
   78MOL   H11117205   5.264   0.546   3.978  0.8458  0.2014 -0.4520
   78MOL   C11217206   5.432   0.654   3.725 -1.0758  0.1655 -0.3801
   78MOL   C11317207   5.392   0.630   3.578 -0.0912 -1.1183 -0.1635
   78MOL   C11417208   5.493   0.562   3.491  0.2844 -0.6562 -0.1802
   78MOL   O11517209   5.590   0.619   3.449  0.1635 -0.4546  0.3546
   78MOL   C11617210   5.460   0.422   3.445 -0.4304  1.0361  0.2017
   78MOL   H11717211   5.501   0.738   3.738 -1.3247  0.0758  1.5426
   78MOL   H11817212   5.345   0.700   3.772 -1.9498 -0.8630 -0.9833
   78MOL   H11917213   5.309   0.561   3.594 -1.2039 -0.2390 -1.8463
   78MOL   H12017214   5.428   0.352   3.522  0.1464  0.7884  0.2205
   78MOL   H12117215   5.386   0.428   3.365 -0.4095  1.2045  0.1955
   78MOL   H12217216   5.542   0.360   3.409 -0.5500  1.3160 -0.5594
   78MOL   C12317217   5.329   0.762   3.516  0.0822 -0.3596  0.4307
   78MOL   C12417218   5.406   0.882   3.462  0.4235 -0.1128  0.0847
   78MOL   C12517219   5.445   0.962   3.586  0.3264  0.4558 -0.1274
   78MOL   O12617220   5.357   1.013   3.652  0.5083 -0.1806  0.6203
   78MOL   C12717221   5.592   0.976   3.623  0.4493 -0.3380  0.5924
   78MOL   H12817222   5.240   0.796   3.569 -0.9149 -2.5106  0.1863
   78MOL   H12917223   5.275   0.718   3.432 -0.0822 -0.6129  0.6656
   78MOL   H13017224   5.492   0.852   3.402 -0.6102 -0.0890 -1.4125
   78MOL   H13117225   5.622   1.080   3.618  1.1024 -0.5473  0.1012
   78MOL   H13217226   5.650   0.902   3.568 -0.3468 -0.3963 -0.1784
   78MOL   H13317227   5.599   0.963   3.731  0.7205 -2.3468  0.3612
   78MOL   C13417228   5.329   0.980   3.364  0.1997 -0.2724  0.0232
   78MOL   C13517229   5.422   1.093   3.294 -0.0628 -0.1017  0.1688
   78MOL   C13617230   5.524   1.027   3.204  0.2580  0.0598  0.3954
   78MOL   O13717231   5.515   0.917   3.156  0.2439  0.2821 -0.5262
   78MOL   C13817232   5.647   1.106   3.159  0.3789  0.4841 -0.4559
   78MOL   H13917233   5.256   1.030   3.428  1.1117  0.7780  0.2457
   78MOL   H14017234   5.270   0.936   3.283  0.2276 -0.2157 -0.0287
   78MOL   H14117235   5.478   1.134   3.378 -0.7357 -0.1017  0.6229
   78MOL   H14217236   5.638   1.140   3.056 -0.4846 -2.3928 -1.4002
   78MOL   H14317237   5.737   1.045   3.147 -1.0267 -1.5859 -0.7145
   78MOL   H14417238   5.659   1.196   3.219 -0.3290  0.7081 -0.6441
   78MOL   C14517239   5.363   1.221   3.218 -0.4285  0.4778 -0.1045
   78MOL   C14617240   5.275   1.317   3.304  0.2590 -0.8448 -0.1360
   78MOL   C14717241   5.133   1.266   3.327  0.3209 -0.0831 -0.0703
   78MOL   O14817242   5.088   1.274   3.437  0.0377 -0.3748  0.0396
   78MOL   C14917243   5.042   1.223   3.210 -0.1755  0.4275 -0.1974
   78MOL   H15017244   5.302   1.196   3.132 -0.0478 -3.8872  0.7580
   78MOL   H15117245   5.444   1.283   3.180  0.8816 -0.6675  0.7294
   78MOL   H15217246   5.254   1.397   3.233 -1.4573 -0.3131  0.9293
   78MOL   H15317247   5.094   1.256   3.120  1.0399 -0.1562  0.2854
   78MOL   H15417248   5.032   1.115   3.203  0.6570  0.4318 -1.5748
   78MOL   H15517249   4.941   1.264   3.206 -1.3138 -2.2208  0.4833
   78MOL   C15617250   5.354   1.380   3.425 -0.3811 -0.2396  0.1266
   78MOL   C15717251   5.277   1.498   3.498  0.1727  1.1401  0.5313
   78MOL   C15817252   5.280   1.620   3.407 -0.4592 -0.2795  0.1437
   78MOL   O15917253   5.366   1.709   3.413  0.4416  0.0187 -0.0338
   78MOL   C16017254   5.157   1.641   3.306  0.8774  0.4911 -0.3087
   78MOL   H16117255   5.372   1.296   3.492 -0.0632 -1.1400 -1.0596
   78MOL   H16217256   5.455   1.407   3.394  0.0852 -2.4752 -0.4020
   78MOL   H16317257   5.170   1.485   3.512  0.2057  2.1766  1.8392
   78MOL   H16417258   5.196   1.675   3.210  0.4297  1.4566 -0.1513
   78MOL   H16517259   5.088   1.716   3.345 -1.6674 -1.4057 -1.0267
   78MOL   H16617260   5.100   1.549   3.297 -2.8406  2.5616  1.2291
   78MOL   C16717261   5.347   1.504   3.641  0.3316 -0.8234  0.4104
   78MOL   C16817262   5.296   1.392   3.741 -0.1822  0.2525  0.2548
   78MOL   C16917263   5.149   1.404   3.780  0.1159  0.0767  0.7565
   78MOL   O17017264   5.095   1.516   3.783  0.8207  0.1938 -0.2889
   78MOL   C17117265   5.076   1.288   3.830  0.3154  0.3440  0.1102
   78MOL   H17217266   5.452   1.488   3.617 -0.2694  0.4843 -3.4328
   78MOL   H17317267   5.347   1.601   3.691 -0.5426 -0.7936  0.3483
   78MOL   H17417268   5.302   1.295   3.692 -1.5773 -0.0738  0.7077
   78MOL   H17517269   5.090   1.271   3.936  3.2904  1.2412 -0.1102
   78MOL   H17617270   5.122   1.209   3.770  2.6559  2.1717 -0.5722
   78MOL   H17717271   4.971   1.300   3.802  0.6375  0.5500 -1.0267
   78MOL   C17817272   5.386   1.372   3.862 -0.4693  0.3766  0.4234
   78MOL   C17917273   5.417   1.490   3.958  0.2858  0.1455 -0.3878
   78MOL   C18017274   5.526   1.579   3.900 -0.3118  0.4017  0.1287
   78MOL   O18117275   5.614   1.528   3.831 -0.5989 -0.3358  0.4721
   78MOL   C18217276   5.524   1.728   3.929 -0.2541  0.6988  0.4855
   78MOL   H18317277   5.345   1.286   3.915  0.3808 -0.9883 -1.1096
   78MOL   H18417278   5.480   1.331   3.825 -0.9428  0.2262 -0.6422
   78MOL   H18517279   5.333   1.558   3.947  1.5728  1.3779 -2.9883
   78MOL   H18617280   5.454   1.775   3.861 -1.5250 -1.1686  0.4727
   78MOL   H18717281   5.628   1.762   3.927  0.0780 -0.3624 -0.5272
   78MOL   H18817282   5.488   1.744   4.031 -1.0812  0.0520  0.2956
   78MOL   C18917283   5.452   1.443   4.099  0.8282 -0.3287 -0.4560
   78MOL   C19017284   5.354   1.484   4.211  0.5929  0.1103  0.4280
   78MOL   C19117285   5.217   1.409   4.204  1.0894 -0.7343  0.5370
   78MOL   O19217286   5.203   1.289   4.217 -0.5530 -0.5742 -1.1139
   78MOL   C19317287   5.095   1.494   4.167  0.5833  0.5114  0.5512
   78MOL   H19417288   5.443   1.334   4.099 -1.1911 -0.1897 -0.4961
   78MOL   H19517289   5.555   1.466   4.127  0.3742 -0.2831  1.2131
   78MOL   H19617290   5.328   1.589   4.199 -0.1877 -0.0282  0.8926
   78MOL   H19717291   5.036   1.515   4.256  0.2191 -0.8391  0.6329
   78MOL   H19817292   5.118   1.587   4.115  1.4964 -0.1490 -0.2567
   78MOL   H19917293   5.025   1.436   4.106  2.9250  0.8595 -2.6217
   78MOL   C20017294   5.409   1.458   4.353 -0.4273  1.2229  0.3286
   78MOL   C20117295   5.311   1.504   4.469  0.5901 -0.4353 -0.8690
   78MOL   C20217296   5.262   1.648   4.454 -0.0678  0.0114 -1.1743
   78MOL   O20317297   5.142   1.666   4.453  0.1471 -0.2697  0.3378
   78MOL   C20417298   5.363   1.761   4.456 -0.0682  0.4457 -0.2089
   78MOL   H20517299   5.423   1.350   4.361 -2.8734  0.8640  0.2389
   78MOL   H20617300   5.507   1.505   4.357  0.1665  0.2638 -1.8835
   78MOL   H20717301   5.215   1.454   4.459  0.5672 -0.6251  0.3060
   78MOL   H20817302   5.327   1.847   4.400 -0.3527 -0.8492 -2.0809
   78MOL   H20917303   5.378   1.820   4.546  2.6434 -0.8915  0.2711
   78MOL   H21017304   5.459   1.724   4.418 -0.7096 -2.3722  0.8147
   78MOL   C21117305   5.386   1.474   4.606 -0.5240  0.0043  0.4278
   78MOL   C21217306   5.307   1.509   4.732 -0.5390  0.4013  0.5090
   78MOL   C21317307   5.384   1.479   4.860 -0.3411 -0.0641 -0.5025
   78MOL   O21417308   5.499   1.434   4.864 -0.5362  0.6975 -1.1182
   78MOL   C21517309   5.310   1.513   4.990 -0.0304 -0.1216 -0.5575
   78MOL   H21617310   5.415   1.369   4.609 -1.8061 -0.3221  2.4774
   78MOL   H21717311   5.473   1.539   4.611  1.5196 -2.5196 -0.5306
   78MOL   H21817312   5.213   1.454   4.727 -0.9945  1.2715 -0.9435
   78MOL   H21917313   5.256   1.606   4.971  0.1149 -0.3440 -2.1562
   78MOL   H22017314   5.244   1.433   5.023  0.8396 -0.0195  1.4867
   78MOL   H22117315   5.392   1.521   5.061  0.1035 -1.4392 -0.5489
   78MOL   H22217316   5.287   1.616   4.729  2.2010  0.9229 -0.7973
   79MOL     C117317   0.913   6.404   6.632 -0.0702  0.6255 -0.1270
   79MOL     C217318   0.991   6.270   6.659  0.3552 -0.9992 -0.0656
   79MOL     C317319   1.061   6.287   6.795 -0.3383  0.3005  0.5227
   79MOL     O417320   1.020   6.365   6.876  0.4414 -0.1294 -0.3118
   79MOL     C517321   1.177   6.193   6.825 -0.0320 -0.7893 -0.5878
   79MOL     H617322   0.991   6.474   6.601 -0.3126  0.4187 -1.2265
   79MOL     H717323   0.860   6.442   6.720  0.7476 -1.9136  1.5211
   79MOL     H817324   1.063   6.250   6.579  0.2261  0.2301 -0.4925
   79MOL     H917325   1.145   6.102   6.875  0.2767  0.4966  2.0054
   79MOL    H1017326   1.218   6.143   6.737  2.0238 -2.3610  1.2251
   79MOL    H1117327   1.256   6.240   6.883  0.4579 -1.6109 -0.5799
   79MOL    H1217328   0.849   6.397   6.544 -0.4254 -1.2357  0.2635
   79MOL    C1317329   0.869   6.170   6.668  0.2679  0.0838 -0.1913
   79MOL    C1417330   0.901   6.019   6.648 -0.1155 -0.1482 -0.0204
   79MOL    C1517331   0.926   5.979   6.504 -0.5058 -0.8076 -0.0321
   79MOL    O1617332   0.843   6.003   6.416  0.1722  0.2213 -0.6353
   79MOL    C1717333   1.056   5.894   6.479  0.3851  1.3769 -0.4326
   79MOL    H1817334   0.820   6.192   6.764  2.7248  1.7956  0.7289
   79MOL    H1917335   0.787   6.200   6.602 -0.1799  0.9563  0.7377
   79MOL    H2017336   0.985   5.996   6.713 -0.9648 -0.6726  0.8961
   79MOL    H2117337   1.041   5.832   6.391 -1.4143  2.3801 -0.8690
   79MOL    H2217338   1.143   5.959   6.467 -0.6945  2.7681 -0.9544
   79MOL    H2317339   1.076   5.827   6.562  3.0490  2.6869  0.0550
   79MOL    C2417340   0.786   5.932   6.703  0.0788  0.1131  0.0432
   79MOL    C2517341   0.823   5.782   6.715 -0.3270  0.3649 -0.1690
   79MOL    C2617342   0.920   5.761   6.830 -0.5400 -0.1973 -0.1513
   79MOL    O2717343   0.900   5.818   6.940  0.4516  0.5363  0.0710
   79MOL    C2817344   1.047   5.685   6.807  0.0992  0.1977  0.6819
   79MOL    H2917345   0.744   5.972   6.795 -1.8074 -3.1105  0.6571
   79MOL    H3017346   0.698   5.926   6.639  0.3426 -1.3478 -0.2052
   79MOL    H3117347   0.876   5.757   6.623  0.8901  0.8125  0.4015
   79MOL    H3217348   1.102   5.662   6.898  0.1403 -2.0549  0.1147
   79MOL    H3317349   1.017   5.590   6.762  0.5089  1.0764 -1.4912
   79MOL    H3417350   1.116   5.735   6.739  0.6666 -1.4900  0.0035
   79MOL    C3517351   0.692   5.697   6.726  0.0233  0.3454 -0.5692
   79MOL    C3617352   0.605   5.709   6.862  0.0848  0.7239 -0.7440
   79MOL    C3717353   0.518   5.829   6.879  0.8203 -0.2943  0.2697
   79MOL    O3817354   0.472   5.887   6.785  0.4156  0.3682  0.0124
   79MOL    C3917355   0.494   5.878   7.025  0.1816  0.7886 -0.2819
   79MOL    H4017356   0.734   5.596   6.726 -0.1047  0.2582  1.7112
   79MOL    H4117357   0.629   5.703   6.637  1.3342  0.5817 -1.4943
   79MOL    H4217358   0.671   5.728   6.947 -1.8682  2.5881  0.3928
   79MOL    H4317359   0.501   5.791   7.091  1.5438  2.7081  2.1527
   79MOL    H4417360   0.404   5.936   7.041  1.3803  3.1243 -1.7265
   79MOL    H4517361   0.579   5.944   7.039 -0.6340  2.5555 -3.1939
   79MOL    C4617362   0.536   5.569   6.878 -0.4739  0.3376  0.5791
   79MOL    C4717363   0.484   5.521   7.019 -0.3621  0.2754  0.4019
   79MOL    C4817364   0.386   5.408   7.006  0.4510 -0.3484 -0.2383
   79MOL    O4917365   0.420   5.311   6.944 -0.1696 -0.4479  0.4100
   79MOL    C5017366   0.246   5.427   7.055 -0.0937 -0.5162  0.3773
   79MOL    H5117367   0.603   5.496   6.833  1.0081  2.3214 -0.4887
   79MOL    H5217368   0.450   5.566   6.811 -1.1683  1.2266  1.4112
   79MOL    H5317369   0.429   5.609   7.053 -0.5885  0.1731  0.3091
   79MOL    H5417370   0.174   5.438   6.974  0.9937  0.7603 -0.4493
   79MOL    H5517371   0.209   5.336   7.101  1.6651 -0.1756  2.5569
   79MOL    H5617372   0.225   5.506   7.127 -3.2673 -0.0022 -0.9962
   79MOL    C5717373   0.591   5.496   7.126 -1.0512  0.8211  0.1172
   79MOL    C5817374   0.687   5.377   7.114  0.1047 -0.8364  0.2968
   79MOL    C5917375   0.817   5.410   7.035  0.2294 -0.4729 -0.1957
   79MOL    O6017376   0.914   5.472   7.081 -0.5084 -0.4845  0.2870
   79MOL    C6117377   0.830   5.360   6.893 -0.5097  0.3839 -0.0420
   79MOL    H6217378   0.530   5.485   7.216 -0.6416 -0.7464  0.1985
   79MOL    H6317379   0.644   5.591   7.131 -0.2531  0.3372  0.7610
   79MOL    H6417380   0.636   5.301   7.054  0.2064 -0.7829  0.1421
   79MOL    H6517381   0.913   5.291   6.884 -0.8801 -0.0851  0.1124
   79MOL    H6617382   0.742   5.301   6.869 -2.4943  2.7641  1.1201
   79MOL    H6717383   0.835   5.449   6.830  1.1785  1.2086  1.2317
   79MOL    C6817384   0.704   5.300   7.249 -0.2215 -0.2197 -0.1049
   79MOL    C6917385   0.797   5.360   7.358  0.0783 -0.0862  0.1139
   79MOL    C7017386   0.877   5.245   7.419 -0.1159  0.0046 -0.5915
   79MOL    O7117387   0.846   5.190   7.527  0.0667 -0.6202  0.0076
   79MOL    C7217388   1.000   5.190   7.346 -0.5748  0.1727 -0.4224
   79MOL    H7317389   0.607   5.278   7.294  0.7424 -0.6788  1.8166
   79MOL    H7417390   0.727   5.195   7.227  0.4952  0.5431 -3.2724
   79MOL    H7517391   0.862   5.427   7.303  0.9048 -1.4274 -0.5544
   79MOL    H7617392   0.988   5.199   7.238 -1.8165 -0.4042 -0.3422
   79MOL    H7717393   1.094   5.237   7.376 -0.2559  0.6649 -2.1757
   79MOL    H7817394   1.011   5.084   7.366  0.5110  0.3520 -0.0529
   79MOL    C7917395   0.725   5.453   7.455  0.6623  0.1671 -0.7756
   79MOL    C8017396   0.815   5.573   7.502  0.2447 -0.2436 -0.2309
   79MOL    C8117397   0.865   5.539   7.639 -1.1631 -1.3363 -0.0254
   79MOL    O8217398   0.981   5.514   7.655  0.0585  0.2444 -0.1671
   79MOL    C8317399   0.756   5.532   7.757 -0.1364 -0.5965  0.4835
   79MOL    H8417400   0.680   5.394   7.534  0.9989  0.8063 -0.1032
   79MOL    H8517401   0.634   5.493   7.410  0.0424 -0.3045  0.0457
   79MOL    H8617402   0.898   5.577   7.432 -0.7918  1.3090 -1.4124
   79MOL    H8717403   0.788   5.464   7.837  1.1214  0.2118  0.6791
   79MOL    H8817404   0.669   5.492   7.706 -0.2520 -1.0227  1.0078
   79MOL    H8917405   0.726   5.628   7.799  2.9887 -0.1475  1.8282
   79MOL    C9017406   0.743   5.710   7.493 -0.3186  0.1598  0.6338
   79MOL    C9117407   0.837   5.836   7.473  0.3044 -0.1121  0.1307
   79MOL    C9217408   0.921   5.876   7.599  0.9430  0.4912 -0.0860
   79MOL    O9317409   1.042   5.853   7.614 -0.1368  0.0220  0.7466
   79MOL    C9417410   0.843   5.920   7.720 -0.4471  0.1569  0.6210
   79MOL    H9517411   0.690   5.714   7.398  1.3831 -0.4241 -0.3678
   79MOL    H9617412   0.662   5.714   7.566 -0.9510 -2.4745  0.1488
   79MOL    H9717413   0.777   5.923   7.447  0.4786  0.2028  0.7640
   79MOL    H9817414   0.741   5.934   7.683  0.5869  3.8142 -1.0591
   79MOL    H9917415   0.863   5.846   7.798 -0.8305  1.5334  2.0405
   79MOL   H10017416   0.888   6.015   7.748  1.2872 -0.4713  0.0060
   79MOL   C10117417   0.936   5.812   7.346 -0.6059  0.9699  0.1803
   79MOL   C10217418   1.000   5.941   7.276  0.0214  0.3889  0.1069
   79MOL   C10317419   0.897   6.034   7.220 -0.0906 -0.0785  0.7192
   79MOL   O10417420   0.778   6.004   7.195 -0.1855  0.0633  0.2436
   79MOL   C10517421   0.944   6.174   7.182  0.2188  0.4470 -0.9327
   79MOL   H10617422   1.021   5.754   7.381  0.1355  1.7012 -0.3747
   79MOL   H10717423   0.892   5.745   7.272  3.2557 -0.7344 -0.6904
   79MOL   H10817424   1.045   6.006   7.351 -2.1016  2.7006 -0.5852
   79MOL   H10917425   0.999   6.163   7.088 -0.3039 -0.2689 -1.1668
   79MOL   H11017426   0.856   6.237   7.170  0.3531  0.5615 -1.3324
   79MOL   H11117427   1.013   6.206   7.260 -0.7422 -0.8012  0.4416
   79MOL   C11217428   1.104   5.903   7.167  0.2665 -0.2839 -0.2487
   79MOL   C11317429   1.254   5.904   7.225 -0.0943 -0.0123 -0.4237
   79MOL   C11417430   1.306   6.046   7.247 -0.4196  0.4501 -0.6585
   79MOL   O11517431   1.331   6.130   7.160 -0.3819  0.1045 -0.7021
   79MOL   C11617432   1.335   6.070   7.396  0.6881  0.2181 -0.3715
   79MOL   H11717433   1.099   5.973   7.083  0.2889  1.1098  0.8793
   79MOL   H11817434   1.078   5.804   7.130  0.0966 -0.3902  0.1539
   79MOL   H11917435   1.249   5.855   7.322 -0.1420 -1.2048 -1.0226
   79MOL   H12017436   1.415   6.004   7.428  0.0109 -0.8315 -0.7967
   79MOL   H12117437   1.354   6.176   7.407 -0.4212  0.4915 -1.0149
   79MOL   H12217438   1.248   6.054   7.460  3.1990 -2.3235  2.5673
   79MOL   C12317439   1.351   5.831   7.131  0.1032 -0.5020  0.3196
   79MOL   C12417440   1.349   5.679   7.142 -1.2904 -0.4218  0.1983
   79MOL   C12517441   1.421   5.634   7.273  0.3376  0.1562  0.2914
   79MOL   O12617442   1.542   5.617   7.275  0.4921 -0.1152  0.3296
   79MOL   C12717443   1.340   5.600   7.393 -0.0898 -0.3695 -0.9485
   79MOL   H12817444   1.455   5.862   7.132 -0.6052  1.9476  1.2862
   79MOL   H12917445   1.327   5.866   7.031 -3.3715  2.2941  2.0234
   79MOL   H13017446   1.244   5.647   7.139 -1.7757  1.1964 -0.9795
   79MOL   H13117447   1.396   5.616   7.485 -0.6005 -1.4017 -0.4471
   79MOL   H13217448   1.294   5.501   7.387 -0.6590 -0.0795 -1.4186
   79MOL   H13317449   1.253   5.665   7.406  1.8952  2.1217  0.3333
   79MOL   C13417450   1.405   5.606   7.017 -0.2110 -0.0110  0.2235
   79MOL   C13517451   1.413   5.451   7.030 -0.3828 -0.1941 -0.2500
   79MOL   C13617452   1.272   5.388   7.023 -0.9769  0.1102  0.2678
   79MOL   O13717453   1.210   5.395   6.917 -0.3687 -0.0225  0.1693
   79MOL   C13817454   1.224   5.305   7.148 -0.1717  0.3373  0.0458
   79MOL   H13917455   1.503   5.647   6.992 -0.0282 -0.1427  0.7139
   79MOL   H14017456   1.343   5.622   6.929 -1.5316 -0.8261  0.9956
   79MOL   H14117457   1.454   5.425   7.128 -2.3876 -2.7095 -0.0333
   79MOL   H14217458   1.133   5.246   7.137  0.2747 -0.3813  0.1861
   79MOL   H14317459   1.195   5.387   7.213 -3.0148 -0.7107  0.1598
   79MOL   H14417460   1.298   5.246   7.202 -0.0074  0.6044  0.1147
   79MOL   C14517461   1.494   5.385   6.915 -0.3225 -0.3649 -0.6065
   79MOL   C14617462   1.647   5.363   6.946  0.4724  0.0262  0.5064
   79MOL   C14717463   1.679   5.267   7.062  0.9453  0.8780 -0.3601
   79MOL   O14817464   1.625   5.158   7.071 -0.3048  0.9846  0.1362
   79MOL   C14917465   1.778   5.315   7.174 -1.0007 -0.0866  0.1119
   79MOL   H15017466   1.507   5.451   6.829  0.3032  2.7401  1.7724
   79MOL   H15117467   1.447   5.295   6.876 -0.0071  0.0587 -1.9663
   79MOL   H15217468   1.696   5.455   6.977  0.5121 -0.1116  0.8531
   79MOL   H15317469   1.716   5.350   7.257  0.6253  2.5911  0.2661
   79MOL   H15417470   1.840   5.227   7.196 -1.8123 -1.0407 -1.3501
   79MOL   H15517471   1.846   5.394   7.144 -0.0721 -0.3646  1.4218
   79MOL   C15617472   1.733   5.308   6.831 -0.5570  0.9780 -0.4733
   79MOL   C15717473   1.892   5.310   6.835 -0.5875  0.2860  0.3998
   79MOL   C15817474   1.944   5.456   6.847 -0.2588  0.3508 -0.3135
   79MOL   O15917475   1.943   5.504   6.958  0.1200  0.2168  0.5232
   79MOL   C16017476   1.983   5.537   6.723 -0.4317 -0.4221  0.7824
   79MOL   H16117477   1.701   5.207   6.803 -2.0298  1.3715 -0.2489
   79MOL   H16217478   1.700   5.369   6.747  1.1176 -0.6303 -2.3557
   79MOL   H16317479   1.920   5.271   6.933 -1.1192  1.5610  1.0862
   79MOL   H16417480   2.008   5.638   6.755  1.1383  0.2226 -2.2789
   79MOL   H16517481   1.894   5.564   6.665 -0.9669 -0.8083  1.4216
   79MOL   H16617482   2.069   5.499   6.668 -0.9035  0.5631 -0.6836
   79MOL   C16717483   1.966   5.225   6.724  0.4916  0.0126  1.0128
   79MOL   C16817484   1.954   5.073   6.737  0.0673 -0.0903  0.5064
   79MOL   C16917485   1.982   5.019   6.874  0.4411  0.1515 -0.5125
   79MOL   O17017486   2.085   5.051   6.940  0.0329 -0.2201 -0.4756
   79MOL   C17117487   1.889   4.910   6.931  0.1267 -0.0467 -0.1309
   79MOL   H17217488   1.910   5.255   6.635  2.0137  0.9631  0.3557
   79MOL   H17317489   2.071   5.252   6.712  0.2698  0.1778 -0.6180
   79MOL   H17417490   1.850   5.043   6.726  0.1049  0.4189 -1.5998
   79MOL   H17517491   1.936   4.881   7.025  1.2920 -0.2621 -0.7706
   79MOL   H17617492   1.888   4.830   6.858  0.0525 -0.6398  0.5201
   79MOL   H17717493   1.793   4.951   6.963 -1.6128 -3.9061 -0.2107
   79MOL   C17817494   2.044   5.000   6.626 -0.2905 -0.2312 -0.6289
   79MOL   C17917495   1.965   4.952   6.502  0.1671  0.6025 -0.5103
   79MOL   C18017496   1.892   5.067   6.434  0.1281  0.2335 -0.6339
   79MOL   O18117497   1.773   5.067   6.419 -0.0865 -0.0903 -0.1111
   79MOL   C18217498   1.973   5.176   6.365 -0.4419 -0.4924 -0.0316
   79MOL   H18317499   2.131   5.057   6.594  0.4846 -1.1714 -0.2193
   79MOL   H18417500   2.094   4.916   6.675  1.6404  0.6755 -0.9933
   79MOL   H18517501   2.037   4.929   6.424  2.9540  0.7568  1.9470
   79MOL   H18617502   2.044   5.233   6.425 -0.2009 -1.6748  0.8118
   79MOL   H18717503   1.900   5.245   6.322  1.6571  2.1168  0.4184
   79MOL   H18817504   2.040   5.132   6.291 -1.2318  0.5821 -1.4212
   79MOL   C18917505   1.877   4.823   6.528 -0.2463 -0.1188 -0.6349
   79MOL   C19017506   1.834   4.740   6.404 -0.0086  0.6833 -0.3357
   79MOL   C19117507   1.968   4.697   6.338  0.9752 -0.0371  0.5853
   79MOL   O19217508   2.066   4.670   6.406  0.5033 -0.0848  0.4790
   79MOL   C19317509   1.971   4.678   6.185  0.1039  0.0690 -0.0017
   79MOL   H19417510   1.926   4.758   6.600 -2.8321 -0.1632  1.1463
   79MOL   H19517511   1.784   4.850   6.579  0.0863  1.9138 -1.0587
   79MOL   H19617512   1.791   4.812   6.334 -0.8236  0.6915  0.1767
   79MOL   H19717513   1.900   4.745   6.136  0.9914 -0.5809 -2.2556
   79MOL   H19817514   2.072   4.692   6.147  0.4773  0.5979  1.1738
   79MOL   H19917515   1.932   4.582   6.153  0.2814 -0.1407  0.4109
   79MOL   C20017516   1.736   4.621   6.448  0.3910 -0.6557 -0.3683
   79MOL   C20117517   1.647   4.576   6.335  0.0365 -0.0958  0.2531
   79MOL   C20217518   1.526   4.680   6.292  0.2975 -0.0267  0.4167
   79MOL   O20317519   1.442   4.635   6.218  0.5783 -0.1335 -0.1614
   79MOL   C20417520   1.524   4.812   6.360  0.6111 -0.3421 -0.0239
   79MOL   H20517521   1.797   4.534   6.474 -1.8034 -2.2949 -0.5077
   79MOL   H20617522   1.692   4.643   6.545 -0.6683 -1.9183 -0.5487
   79MOL   H20717523   1.701   4.591   6.241 -0.2566 -2.5227 -0.3394
   79MOL   H20817524   1.574   4.814   6.456 -1.7378 -0.0290  1.2440
   79MOL   H20917525   1.568   4.882   6.288 -1.8153  1.2934  0.0088
   79MOL   H21017526   1.425   4.859   6.367  0.3010 -0.8512 -0.9655
   79MOL   C21117527   1.620   4.426   6.335  0.6036 -0.2697  0.1175
   79MOL   C21217528   1.548   4.377   6.454 -0.0176 -0.1119 -0.4097
   79MOL   C21317529   1.401   4.415   6.466 -0.2055 -0.5054  0.4366
   79MOL   O21417530   1.369   4.486   6.561 -0.2132 -0.5968  0.1720
   79MOL   C21517531   1.299   4.364   6.359 -0.1962 -0.9699  0.1312
   79MOL   H21617532   1.558   4.410   6.247  0.9815 -2.3254  0.2137
   79MOL   H21717533   1.718   4.380   6.321  1.7771  2.3025 -0.5100
   79MOL   H21817534   1.605   4.416   6.538 -0.8377 -0.6017  0.3764
   79MOL   H21917535   1.332   4.375   6.256 -2.7767 -1.0694 -0.7308
   79MOL   H22017536   1.276   4.259   6.374  3.1484 -1.5790  1.6759
   79MOL   H22117537   1.205   4.419   6.357  0.0918 -0.5158 -0.9406
   79MOL   H22217538   1.565   4.270   6.460  1.2859  0.1821  1.6544
   80MOL     C117539   0.735   5.391   6.522 -0.1641  0.3589 -0.3860
   80MOL     C217540   0.737   5.381   6.361 -0.0187 -0.2612  0.2938
   80MOL     C317541   0.790   5.522   6.305 -0.0652  0.1151 -0.0269
   80MOL     O417542   0.889   5.528   6.240  0.1094 -0.0294  0.2503
   80MOL     C517543   0.706   5.644   6.322  0.0375 -0.0509  0.0156
   80MOL     H617544   0.834   5.384   6.567  0.0849  1.7712 -0.7039
   80MOL     H717545   0.686   5.309   6.575  3.3579 -0.4889  1.7638
   80MOL     H817546   0.630   5.369   6.343  0.0788  1.9715 -2.0167
   80MOL     H917547   0.735   5.724   6.253 -0.7633 -1.1991 -1.6758
   80MOL    H1017548   0.598   5.642   6.307 -0.3212  2.6527  1.7813
   80MOL    H1117549   0.723   5.679   6.424 -1.7497 -0.0348  0.3257
   80MOL    H1217550   0.683   5.484   6.544 -1.4492 -0.5157  0.3648
   80MOL    C1317551   0.819   5.257   6.309 -0.6045  0.5305  0.3883
   80MOL    C1417552   0.824   5.227   6.156  0.5112 -0.4940  0.0946
   80MOL    C1517553   0.691   5.236   6.094  1.2151  0.5634  1.0828
   80MOL    O1617554   0.676   5.315   5.995 -0.0654  1.2179  0.0971
   80MOL    C1717555   0.568   5.157   6.152 -0.0553  0.4385  0.0680
   80MOL    H1817556   0.924   5.266   6.338 -0.8086  0.1270  1.2737
   80MOL    H1917557   0.776   5.174   6.364 -0.6177  0.2122 -0.1075
   80MOL    H2017558   0.890   5.305   6.118 -0.0277  1.5249  3.1226
   80MOL    H2117559   0.559   5.055   6.113  2.0968 -0.0553  0.7910
   80MOL    H2217560   0.574   5.131   6.258 -0.1138 -0.5425 -0.1574
   80MOL    H2317561   0.486   5.227   6.134  0.9462  1.1453 -1.8731
   80MOL    C2417562   0.891   5.090   6.121 -0.4329  0.0061 -0.2560
   80MOL    C2517563   0.937   5.057   5.978 -0.0209 -0.4963 -0.2893
   80MOL    C2617564   1.042   5.146   5.915  0.2811  0.0651 -0.5661
   80MOL    O2717565   1.162   5.104   5.898  0.5332 -0.4003 -0.0329
   80MOL    C2817566   0.998   5.279   5.848 -0.2984 -0.1209  0.3701
   80MOL    H2917567   0.974   5.079   6.190  2.0127  2.2963 -2.7097
   80MOL    H3017568   0.824   5.005   6.136 -0.4648 -0.1108 -1.0438
   80MOL    H3117569   0.857   5.067   5.905 -0.4951 -2.1452 -0.0282
   80MOL    H3217570   1.033   5.283   5.744 -2.1693 -0.8122 -0.3035
   80MOL    H3317571   0.890   5.286   5.850 -0.2827  1.5082 -1.7980
   80MOL    H3417572   1.032   5.368   5.901 -1.0620  0.3140  0.1472
   80MOL    C3517573   0.978   4.909   5.960 -0.0476 -0.3701  0.3557
   80MOL    C3617574   1.093   4.843   6.045  0.3180  0.3832  0.0569
   80MOL    C3717575   1.060   4.824   6.195 -0.2419  0.7442 -0.0439
   80MOL    O3817576   0.944   4.805   6.230 -0.3713 -0.2415 -0.8748
   80MOL    C3917577   1.176   4.807   6.294  0.0038 -0.4811 -0.3732
   80MOL    H4017578   1.006   4.891   5.856  0.7724  0.4784  0.4147
   80MOL    H4117579   0.889   4.848   5.971 -0.5729  0.7635  2.5925
   80MOL    H4217580   1.162   4.928   6.051 -2.0051  2.5113 -1.9798
   80MOL    H4317581   1.250   4.882   6.267  0.3261 -1.4384 -2.1902
   80MOL    H4417582   1.218   4.708   6.280 -1.2540 -0.7350 -2.4649
   80MOL    H4517583   1.136   4.811   6.395  0.7118 -1.3489 -0.0562
   80MOL    C4617584   1.171   4.723   5.985  0.4945 -0.2658 -0.0834
   80MOL    C4717585   1.093   4.591   5.953  0.1343 -0.3716  0.3357
   80MOL    C4817586   1.019   4.595   5.824  0.8942  0.1644  0.2616
   80MOL    O4917587   0.895   4.586   5.830  0.3678  0.3471  0.2910
   80MOL    C5017588   1.099   4.593   5.692  0.1187  0.6673 -0.0462
   80MOL    H5117589   1.249   4.690   6.053 -1.5331 -1.6023  1.6731
   80MOL    H5217590   1.222   4.759   5.896  1.6502  1.7277  1.3440
   80MOL    H5317591   1.014   4.579   6.028 -0.3628 -0.2883 -0.1727
   80MOL    H5417592   1.191   4.651   5.695  0.6994 -0.2554  0.3184
   80MOL    H5517593   1.104   4.491   5.653 -1.4251  0.4010  0.4409
   80MOL    H5617594   1.035   4.644   5.619 -0.2629  0.3291  0.0481
   80MOL    C5717595   1.188   4.464   5.952  0.1424  0.4180  0.0508
   80MOL    C5817596   1.111   4.325   5.918 -0.3423 -0.5120 -0.2148
   80MOL    C5917597   1.210   4.209   5.899  0.4155  0.3984 -0.4644
   80MOL    O6017598   1.298   4.190   5.981  0.0916  0.0338  0.0290
   80MOL    C6117599   1.192   4.120   5.775 -0.4487 -0.2339 -0.7014
   80MOL    H6217600   1.229   4.450   6.052 -0.6738 -0.9969  0.1991
   80MOL    H6317601   1.269   4.482   5.881  0.1571 -0.1165 -0.0702
   80MOL    H6417602   1.057   4.342   5.824  1.3513 -1.8735 -1.4725
   80MOL    H6517603   1.238   4.025   5.800  0.7102  0.8978  1.5516
   80MOL    H6617604   1.087   4.106   5.748 -0.1114 -3.1233 -0.6088
   80MOL    H6717605   1.239   4.163   5.686  0.0032 -2.2392 -1.4467
   80MOL    C6817606   1.008   4.289   6.022 -0.3474  0.9005  0.0347
   80MOL    C6917607   0.926   4.160   5.994 -0.4519 -0.0887  0.2300
   80MOL    C7017608   0.807   4.188   5.903  0.6316 -0.5038  0.2612
   80MOL    O7117609   0.698   4.211   5.947 -0.0143 -0.4743 -0.2710
   80MOL    C7217610   0.817   4.172   5.752  0.1200  0.0885  0.6476
   80MOL    H7317611   1.056   4.268   6.118  1.7167  0.7165 -1.0005
   80MOL    H7417612   0.935   4.367   6.040  0.6209  1.7163  0.4687
   80MOL    H7517613   0.983   4.078   5.952 -1.9710 -1.6143  1.0765
   80MOL    H7617614   0.893   4.239   5.711 -1.0434  0.6775 -0.5745
   80MOL    H7717615   0.841   4.066   5.736  0.5166  0.3898 -0.8074
   80MOL    H7817616   0.716   4.199   5.722  0.4200 -0.9123 -1.3664
   80MOL    C7917617   0.886   4.102   6.128 -0.0240  0.2898 -0.2224
   80MOL    C8017618   0.814   3.967   6.115 -0.4051  0.2188  0.2815
   80MOL    C8117619   0.735   3.934   6.239 -0.1406 -0.1890  0.4370
   80MOL    O8217620   0.786   3.914   6.349 -0.0042 -0.9442  0.2860
   80MOL    C8317621   0.581   3.918   6.222  0.2805 -0.2899  0.1691
   80MOL    H8417622   0.821   4.171   6.181  0.4514 -0.1555  0.9735
   80MOL    H8517623   0.968   4.084   6.198 -0.0021  0.3427 -0.2353
   80MOL    H8617624   0.746   3.965   6.030  1.0565 -1.2327 -0.8895
   80MOL    H8717625   0.543   4.014   6.189 -2.5895 -1.9895 -1.6325
   80MOL    H8817626   0.532   3.885   6.314  0.7348  0.4508  0.6818
   80MOL    H8917627   0.551   3.849   6.144 -1.3894 -0.6463  1.1078
   80MOL    C9017628   0.919   3.851   6.076 -0.4561 -0.1398 -0.1921
   80MOL    C9117629   0.843   3.737   6.003 -0.3333 -0.5755 -0.4838
   80MOL    C9217630   0.830   3.750   5.846  0.2915  0.0116 -0.0700
   80MOL    O9317631   0.891   3.841   5.791 -0.0370 -0.5576 -0.0967
   80MOL    C9417632   0.734   3.654   5.773 -0.4459  0.2721 -0.0731
   80MOL    H9517633   1.006   3.887   6.022 -0.6091  2.6671  1.3687
   80MOL    H9617634   0.975   3.813   6.161 -0.7152  0.8711  0.4313
   80MOL    H9717635   0.745   3.723   6.050  0.3643  3.1122  2.3133
   80MOL    H9817636   0.633   3.679   5.807 -0.3179 -1.2497  1.4526
   80MOL    H9917637   0.759   3.657   5.667  4.0096 -0.3877  0.8604
   80MOL   H10017638   0.750   3.550   5.799  0.1020 -0.2299 -2.3083
   80MOL   C10117639   0.934   3.607   6.028 -0.4048 -0.1756  0.8778
   80MOL   C10217640   0.867   3.515   6.138  0.1425  0.1430 -0.3711
   80MOL   C10317641   0.914   3.551   6.281 -0.4049 -0.1084 -0.2080
   80MOL   O10417642   1.036   3.564   6.314 -0.2986 -0.1035 -0.2847
   80MOL   C10517643   0.809   3.557   6.393  0.4057  0.4722  0.1092
   80MOL   H10617644   0.947   3.552   5.935  1.2013 -0.5280  1.2945
   80MOL   H10717645   1.038   3.610   6.062 -0.4048 -1.6977  1.0510
   80MOL   H10817646   0.762   3.544   6.144  0.5416  1.6190 -0.3020
   80MOL   H10917647   0.808   3.462   6.446 -1.2199  0.6026  0.3654
   80MOL   H11017648   0.829   3.644   6.456  0.1792  0.9755 -0.5001
   80MOL   H11117649   0.707   3.568   6.355  1.0316 -0.7016 -1.9586
   80MOL   C11217650   0.889   3.372   6.107  0.0993 -0.7764  0.1585
   80MOL   C11317651   0.807   3.271   6.192 -0.6574  0.4870 -0.0572
   80MOL   C11417652   0.886   3.140   6.211  0.2949 -0.3705  0.4166
   80MOL   O11517653   0.872   3.042   6.139  0.0994 -0.1257 -0.5353
   80MOL   C11617654   0.979   3.133   6.335 -0.1121  0.4122  0.2607
   80MOL   H11717655   0.995   3.347   6.114  0.2393 -0.5109 -0.8942
   80MOL   H11817656   0.866   3.347   6.003  1.2809  0.0524 -0.3072
   80MOL   H11917657   0.789   3.302   6.295 -1.8698  1.4243 -0.5416
   80MOL   H12017658   1.055   3.060   6.307  0.0212  0.4977  0.4004
   80MOL   H12117659   1.024   3.226   6.370 -1.6278  1.8243 -1.3972
   80MOL   H12217660   0.918   3.089   6.415 -1.3331  2.8848  0.7453
   80MOL   C12317661   0.678   3.251   6.121 -0.6174  0.0586  0.0971
   80MOL   C12417662   0.560   3.186   6.204  0.5510  0.2566  0.6077
   80MOL   C12517663   0.458   3.144   6.101  0.2555  0.3955 -0.1724
   80MOL   O12617664   0.360   3.213   6.078  0.3313 -0.4870  0.5534
   80MOL   C12717665   0.489   3.020   6.017  0.5281 -0.4220 -0.4331
   80MOL   H12817666   0.694   3.198   6.027 -1.7952  2.7880 -1.7029
   80MOL   H12917667   0.642   3.347   6.085 -1.7759  0.0995  1.3359
   80MOL   H13017668   0.587   3.094   6.258  0.8364 -0.3109 -0.4923
   80MOL   H13117669   0.395   2.988   5.974 -0.5691  2.0022  0.1148
   80MOL   H13217670   0.544   2.942   6.071 -2.1441 -0.7955  1.8408
   80MOL   H13317671   0.552   3.053   5.934 -0.0766 -1.5085 -1.3517
   80MOL   C13417672   0.506   3.290   6.305  0.7042  0.1519  0.4099
   80MOL   C13517673   0.417   3.230   6.415  0.0395  0.1573 -0.5475
   80MOL   C13617674   0.476   3.133   6.511  0.1214 -0.1479 -0.8064
   80MOL   O13717675   0.599   3.121   6.525  0.1578  0.2423  0.1226
   80MOL   C13817676   0.375   3.048   6.589 -0.2742  0.3931 -0.6152
   80MOL   H13917677   0.456   3.368   6.248  0.9719 -1.0160 -1.4948
   80MOL   H14017678   0.597   3.336   6.344  1.2212  2.9864 -3.7455
   80MOL   H14117679   0.347   3.168   6.361  0.9095  0.2170 -1.7686
   80MOL   H14217680   0.379   3.058   6.698  1.2719  1.0976 -0.7210
   80MOL   H14317681   0.410   2.947   6.570  0.9985  0.7849 -0.3660
   80MOL   H14417682   0.271   3.060   6.557 -0.3697  0.7898 -0.1699
   80MOL   C14517683   0.340   3.334   6.493  0.4782 -0.0298  0.2954
   80MOL   C14617684   0.421   3.431   6.589  0.0883 -0.8145  0.8859
   80MOL   C14717685   0.360   3.572   6.571 -0.3200  0.2520  0.0462
   80MOL   O14817686   0.297   3.623   6.664  0.4739 -0.0704 -0.0066
   80MOL   C14917687   0.399   3.652   6.446 -0.0338 -0.2352  0.1628
   80MOL   H15017688   0.258   3.292   6.553 -0.0186 -1.9336 -1.6503
   80MOL   H15117689   0.295   3.395   6.415 -0.4601 -0.3605  0.5582
   80MOL   H15217690   0.524   3.436   6.555 -0.1649  1.5516  0.3624
   80MOL   H15317691   0.314   3.717   6.428 -0.7081 -1.3003 -0.5841
   80MOL   H15417692   0.481   3.718   6.472 -0.5647  0.0649  1.1015
   80MOL   H15517693   0.440   3.591   6.365  2.9585  0.0251  1.4139
   80MOL   C15617694   0.419   3.383   6.742  0.7287 -0.3628  0.1203
   80MOL   C15717695   0.508   3.459   6.843  0.0753 -0.4488 -0.1301
   80MOL   C15817696   0.643   3.391   6.831  0.2960 -0.0398  0.0350
   80MOL   O15917697   0.670   3.288   6.892 -0.1891  0.2070 -0.0169
   80MOL   C16017698   0.744   3.424   6.722 -0.6189  0.7902  0.8138
   80MOL   H16117699   0.313   3.376   6.768  0.0644  0.6934 -2.1838
   80MOL   H16217700   0.448   3.278   6.747  1.0469 -0.2638  0.3772
   80MOL   H16317701   0.532   3.559   6.806 -1.3050 -0.5036 -1.2492
   80MOL   H16417702   0.838   3.408   6.774 -1.6201  2.2269  3.1198
   80MOL   H16517703   0.733   3.528   6.690 -0.8271  0.5292  0.0258
   80MOL   H16617704   0.733   3.358   6.636 -3.5800 -1.6065  2.9538
   80MOL   C16717705   0.449   3.467   6.985 -0.8518 -0.3639 -0.2616
   80MOL   C16817706   0.347   3.594   7.016 -0.0737  0.5756 -0.4708
   80MOL   C16917707   0.402   3.726   6.967 -0.0794 -0.8813  0.1928
   80MOL   O17017708   0.520   3.759   6.986  0.3441 -0.6706 -0.5073
   80MOL   C17117709   0.309   3.823   6.903 -0.0484 -0.1867  0.2819
   80MOL   H17217710   0.402   3.372   7.007  0.3485 -1.2105 -1.2646
   80MOL   H17317711   0.537   3.483   7.048 -1.8664  1.7009  0.6927
   80MOL   H17417712   0.258   3.567   6.958 -0.3157  2.2810 -0.9118
   80MOL   H17517713   0.207   3.791   6.924  0.2687 -1.5857 -0.2601
   80MOL   H17617714   0.319   3.829   6.795 -0.0503  0.9178  0.3441
   80MOL   H17717715   0.308   3.923   6.947  0.3925 -0.0461 -0.0208
   80MOL   C17817716   0.304   3.610   7.167 -0.1278 -0.2026 -0.6735
   80MOL   C17917717   0.160   3.678   7.194 -0.0520  0.0708  0.2106
   80MOL   C18017718   0.175   3.785   7.304  0.2928 -0.4885 -0.1314
   80MOL   O18117719   0.194   3.760   7.427 -0.3080  0.0292  0.0173
   80MOL   C18217720   0.176   3.930   7.252  0.1945  0.4320 -0.1221
   80MOL   H18317721   0.308   3.513   7.217  0.5831  0.8170  1.3480
   80MOL   H18417722   0.375   3.668   7.226 -0.5438 -0.4070  0.0487
   80MOL   H18517723   0.119   3.734   7.110  0.8935 -0.2561 -0.4750
   80MOL   H18617724   0.266   3.989   7.267 -0.2571  1.4427 -1.3235
   80MOL   H18717725   0.092   3.984   7.297 -0.4970 -1.2248  0.5927
   80MOL   H18817726   0.165   3.933   7.144  0.2753  1.2003 -0.1177
   80MOL   C18917727   0.058   3.566   7.232  0.0730  0.1354  0.1710
   80MOL   C19017728   7.767   3.588   7.191  0.2862 -0.1634  0.0293
   80MOL   C19117729   7.697   3.701   7.265  0.4829 -0.3562  0.0636
   80MOL   O19217730   7.672   3.812   7.212 -0.0620  0.2682  0.6779
   80MOL   C19317731   7.661   3.683   7.411 -0.0062  0.0319 -1.0963
   80MOL   H19417732   0.086   3.479   7.172  0.0414  1.9251 -2.5004
   80MOL   H19517733   0.063   3.536   7.337 -2.2393  0.7915  0.4802
   80MOL   H19617734   7.714   3.496   7.216  1.4121 -0.8382 -0.0600
   80MOL   H19717735   7.746   3.636   7.462  0.1351  1.5246  0.0427
   80MOL   H19817736   7.641   3.776   7.463  1.7551 -0.0593 -0.2082
   80MOL   H19917737   7.569   3.625   7.413  0.4888 -0.7464  1.4348
   80MOL   C20017738   7.748   3.605   7.038  0.1408 -0.1327 -1.3341
   80MOL   C20117739   7.605   3.569   6.993 -0.0594 -0.4886  0.6345
   80MOL   C20217740   7.570   3.420   7.027  0.1464  0.3121 -0.4181
   80MOL   O20317741   7.653   3.335   6.998 -0.1577  0.8390 -0.2359
   80MOL   C20417742   7.437   3.372   7.095 -0.2743  0.0261 -0.5013
   80MOL   H20517743   7.780   3.701   6.999  1.4287  0.5021  1.1873
   80MOL   H20617744   7.820   3.544   6.983  1.7179  0.0469  0.4867
   80MOL   H20717745   7.548   3.635   7.057 -0.3280 -1.1618  1.0871
   80MOL   H20817746   7.359   3.445   7.073 -2.1917 -1.7914  0.1686
   80MOL   H20917747   7.412   3.274   7.056 -2.4663  0.3625 -0.0114
   80MOL   H21017748   7.457   3.360   7.202  2.0856 -1.3108 -1.0452
   80MOL   C21117749   7.578   3.588   6.840 -0.4400 -0.8963 -0.1402
   80MOL   C21217750   7.601   3.734   6.785 -0.0547  0.0726 -0.3238
   80MOL   C21317751   7.505   3.836   6.849 -0.1570  0.0568  0.0210
   80MOL   O21417752   7.390   3.818   6.859  0.0816 -0.3581  0.6489
   80MOL   C21517753   7.567   3.958   6.914  0.8806 -0.9409 -0.0577
   80MOL   H21617754   7.645   3.517   6.792 -0.3903 -0.6257 -0.4735
   80MOL   H21717755   7.476   3.552   6.827 -0.8977  0.2699  0.0738
   80MOL   H21817756   7.586   3.738   6.677  0.0750 -0.3259 -0.3561
   80MOL   H21917757   7.662   3.938   6.963 -0.9267 -0.1816  3.9774
   80MOL   H22017758   7.578   4.041   6.845 -1.0756  0.6454  1.4591
   80MOL   H22117759   7.503   4.004   6.990 -1.4733 -1.3279 -1.7631
   80MOL   H22217760   7.702   3.773   6.799  0.4472 -0.5119 -2.1761
   81MOL     C117761   1.818   3.330   3.183  0.2950  0.3641  0.2624
   81MOL     C217762   1.734   3.233   3.270 -0.3342 -0.0612 -0.9525
   81MOL     C317763   1.601   3.197   3.199  0.1104  0.2076  0.3970
   81MOL     O417764   1.571   3.083   3.158 -0.3823  0.3363  0.2285
   81MOL     C517765   1.491   3.306   3.189  0.4903 -0.1953  0.1177
   81MOL     H617766   1.881   3.390   3.248  1.4596  1.0001 -1.4196
   81MOL     H717767   1.755   3.411   3.147  0.1784  0.0805 -0.1834
   81MOL     H817768   1.706   3.295   3.355  0.3556 -0.2144 -0.6031
   81MOL     H917769   1.391   3.272   3.217  0.2683 -1.2845 -1.8994
   81MOL    H1017770   1.515   3.390   3.254 -0.4783  0.8046 -0.8071
   81MOL    H1117771   1.490   3.343   3.087 -2.3017  0.1939  0.2438
   81MOL    H1217772   1.877   3.292   3.099  1.5102  2.1186  0.2998
   81MOL    C1317773   1.813   3.105   3.299 -0.3201  0.6642  0.1266
   81MOL    C1417774   1.777   3.026   3.429 -0.3303  0.6082  0.0051
   81MOL    C1517775   1.805   3.123   3.555 -0.1219 -0.8628  0.5303
   81MOL    O1617776   1.923   3.151   3.594  0.3254  0.1422  0.1508
   81MOL    C1717777   1.686   3.202   3.619  0.7518 -0.0150  0.4132
   81MOL    H1817778   1.820   3.042   3.211 -1.3109  0.3089  0.2956
   81MOL    H1917779   1.916   3.139   3.311  0.4881 -1.8033  0.3636
   81MOL    H2017780   1.670   3.008   3.422 -0.5903  2.6319 -1.6568
   81MOL    H2117781   1.693   3.309   3.598 -1.9882  0.6235  2.4177
   81MOL    H2217782   1.592   3.176   3.569  1.8417 -1.3789 -0.9393
   81MOL    H2317783   1.681   3.186   3.727  0.5016 -3.2799 -0.0284
   81MOL    C2417784   1.876   2.903   3.429 -0.7957 -0.1808 -0.0618
   81MOL    C2517785   1.853   2.783   3.520  0.8222 -0.0778  0.2116
   81MOL    C2617786   1.713   2.729   3.487 -0.1393  0.7785  0.5188
   81MOL    O2717787   1.691   2.688   3.375  0.5127 -0.1280  0.0884
   81MOL    C2817788   1.602   2.719   3.595 -0.2344  0.0583 -0.4729
   81MOL    H2917789   1.902   2.866   3.330 -0.7318  2.1209 -0.9441
   81MOL    H3017790   1.975   2.938   3.461 -1.1050  0.3866  0.2742
   81MOL    H3117791   1.853   2.815   3.624 -2.0469 -0.7107  0.4683
   81MOL    H3217792   1.622   2.794   3.671 -3.1829 -0.0836  0.5309
   81MOL    H3317793   1.507   2.749   3.551  0.4733 -0.0755 -2.1134
   81MOL    H3417794   1.589   2.622   3.643  2.5990 -0.0372  0.2024
   81MOL    C3517795   1.976   2.694   3.501 -0.2915  0.6222  0.6581
   81MOL    C3617796   1.987   2.564   3.586 -0.1728  0.4649  0.0031
   81MOL    C3717797   2.090   2.468   3.531 -0.8837  0.0306  0.2398
   81MOL    O3817798   2.204   2.500   3.511  0.5078 -0.1120 -0.5724
   81MOL    C3917799   2.034   2.333   3.489  0.3276 -0.0167  0.3749
   81MOL    H4017800   2.073   2.743   3.504 -0.2610  0.5203  1.4545
   81MOL    H4117801   1.968   2.648   3.402  0.4956  0.3742  0.7109
   81MOL    H4217802   1.889   2.519   3.598  0.1370 -0.5310 -1.1110
   81MOL    H4317803   2.101   2.280   3.420  2.0080  0.3857  1.6647
   81MOL    H4417804   1.947   2.349   3.426  1.3555 -1.7462 -1.5659
   81MOL    H4517805   2.009   2.258   3.564  0.6569 -0.8404 -0.3175
   81MOL    C4617806   2.034   2.611   3.729  0.2467  0.5496 -0.7536
   81MOL    C4717807   2.009   2.516   3.855 -0.1030  0.3531  0.2267
   81MOL    C4817808   1.859   2.491   3.873 -0.2013  0.2711  0.3948
   81MOL    O4917809   1.801   2.391   3.825  0.2505  0.9850  0.5252
   81MOL    C5017810   1.766   2.603   3.934 -0.3109  0.5985  0.4219
   81MOL    H5117811   1.987   2.707   3.750  0.6137  0.5484  0.0712
   81MOL    H5217812   2.141   2.632   3.732  0.2592  0.5037 -0.8522
   81MOL    H5317813   2.047   2.569   3.942  0.2639  0.5066 -0.0226
   81MOL    H5417814   1.822   2.658   4.009  0.8390  0.2403 -0.1624
   81MOL    H5517815   1.736   2.672   3.855  0.9065  1.9786  1.1482
   81MOL    H5617816   1.677   2.556   3.977  0.1426 -0.1681  0.5454
   81MOL    C5717817   2.086   2.381   3.852 -0.7192 -0.8096  0.7755
   81MOL    C5817818   2.244   2.396   3.830 -0.1050 -0.2723  0.1809
   81MOL    C5917819   2.303   2.480   3.941  0.4512  0.1807 -0.1689
   81MOL    O6017820   2.325   2.427   4.052  0.2996 -0.3660  1.0577
   81MOL    C6117821   2.312   2.633   3.928  0.1343  0.8615 -0.0581
   81MOL    H6217822   2.038   2.314   3.781  1.6670 -1.2446 -0.4938
   81MOL    H6317823   2.075   2.316   3.938  1.7240  0.8213  2.4032
   81MOL    H6417824   2.264   2.457   3.742 -3.6134  0.3716 -0.2647
   81MOL    H6517825   2.389   2.669   3.996 -1.0362 -0.5028  2.0281
   81MOL    H6617826   2.342   2.672   3.830 -2.0414  3.1497  0.1361
   81MOL    H6717827   2.214   2.675   3.950 -0.4766 -1.2610  1.4895
   81MOL    C6817828   2.305   2.256   3.816  0.2469  0.4119 -0.7158
   81MOL    C6917829   2.307   2.160   3.938  0.5737  0.5040 -0.6652
   81MOL    C7017830   2.445   2.142   3.997  0.1106 -0.5493  0.0275
   81MOL    O7117831   2.541   2.141   3.927  0.1378 -0.6520 -0.0978
   81MOL    C7217832   2.462   2.117   4.146  0.1813  0.0082  0.7368
   81MOL    H7317833   2.233   2.210   3.749 -0.7023 -2.2332  1.9977
   81MOL    H7417834   2.394   2.251   3.754  1.6462 -2.0564  1.3650
   81MOL    H7517835   2.253   2.205   4.021  2.7183 -1.8292  2.0771
   81MOL    H7617836   2.376   2.138   4.210 -1.4378  0.2102 -1.4498
   81MOL    H7717837   2.502   2.017   4.164  1.3699  0.5192  1.0064
   81MOL    H7817838   2.526   2.199   4.177  0.0254  0.7859 -0.9678
   81MOL    C7917839   2.249   2.023   3.898 -0.7424 -0.1705 -0.2599
   81MOL    C8017840   2.093   2.017   3.900 -0.7314 -0.3822 -0.2186
   81MOL    C8117841   2.031   2.054   4.041 -0.3424  0.6327 -0.5231
   81MOL    O8217842   2.084   2.023   4.144  0.5438 -0.3782  0.0883
   81MOL    C8317843   1.887   2.108   4.040 -0.6124  0.2823 -0.0742
   81MOL    H8417844   2.294   1.949   3.963  1.3134  1.3727  0.1417
   81MOL    H8517845   2.282   1.999   3.797 -0.0913  1.6306 -0.5048
   81MOL    H8617846   2.045   2.082   3.827 -0.3902  0.1463  0.0305
   81MOL    H8717847   1.879   2.192   3.971 -1.2508  1.4500  1.4043
   81MOL    H8817848   1.854   2.165   4.127  0.2711  1.2564 -0.3641
   81MOL    H8917849   1.818   2.024   4.033 -0.3985  0.2736 -2.3002
   81MOL    C9017850   2.053   1.874   3.855  0.2875 -0.2807 -0.1404
   81MOL    C9117851   1.979   1.856   3.717  0.0680  0.0478 -0.0012
   81MOL    C9217852   1.839   1.917   3.744  0.2682  0.5989 -0.5663
   81MOL    O9317853   1.803   2.024   3.688 -0.4913 -0.1297  0.1533
   81MOL    C9417854   1.734   1.840   3.824  0.1668  0.1074  0.0456
   81MOL    H9517855   2.149   1.822   3.847  0.1882 -0.7328  1.5047
   81MOL    H9617856   1.996   1.820   3.930 -0.7540  1.4718  0.3656
   81MOL    H9717857   1.971   1.748   3.700  0.6088 -0.1471  0.9815
   81MOL    H9817858   1.645   1.903   3.831  0.9955  1.1489  1.4166
   81MOL    H9917859   1.704   1.742   3.787  2.6731 -0.8490  0.4586
   81MOL   H10017860   1.768   1.825   3.926 -0.4350 -0.5688  0.1510
   81MOL   C10117861   2.047   1.915   3.591 -0.2707  0.3512  0.5042
   81MOL   C10217862   2.015   1.828   3.461  0.5365 -0.0752 -0.4812
   81MOL   C10317863   2.115   1.713   3.434 -0.4524 -0.2269  0.5829
   81MOL   O10417864   2.146   1.682   3.322 -0.5965  0.2653 -0.4129
   81MOL   C10517865   2.167   1.623   3.544 -0.3017  0.3025 -0.1768
   81MOL   H10617866   2.026   2.018   3.565 -2.2357  0.0676  0.8703
   81MOL   H10717867   2.153   1.924   3.616 -0.5132  1.9082  1.0089
   81MOL   H10817868   1.922   1.774   3.475 -0.6932  1.6492 -1.8131
   81MOL   H10917869   2.091   1.559   3.589  1.5168 -2.0822 -0.4050
   81MOL   H11017870   2.245   1.562   3.499 -0.2476  0.4372 -0.2657
   81MOL   H11117871   2.214   1.677   3.627  0.7171 -1.0715  0.1682
   81MOL   C11217872   1.992   1.913   3.337  0.3490 -0.0736 -0.2179
   81MOL   C11317873   1.841   1.966   3.341  0.0763  0.0481 -0.7776
   81MOL   C11417874   1.733   1.862   3.299 -0.2443 -0.4486  0.2786
   81MOL   O11517875   1.693   1.847   3.182 -0.2570 -0.7018  0.4463
   81MOL   C11617876   1.677   1.764   3.403 -0.4983 -0.9130 -0.2317
   81MOL   H11717877   1.996   1.865   3.239 -1.1149  0.6568 -0.6560
   81MOL   H11817878   2.059   1.998   3.337  2.1153 -1.4153 -1.4966
   81MOL   H11917879   1.826   2.001   3.443  2.9733  0.9269 -0.5923
   81MOL   H12017880   1.664   1.662   3.367 -0.4103 -0.5258 -1.3711
   81MOL   H12117881   1.738   1.757   3.493  1.3192 -0.9454 -1.4406
   81MOL   H12217882   1.580   1.805   3.433 -0.5393  0.0803 -1.6719
   81MOL   C12317883   1.830   2.103   3.258  0.3715  0.4487 -0.1427
   81MOL   C12417884   1.696   2.177   3.283 -0.6788  0.3301 -0.3569
   81MOL   C12517885   1.688   2.293   3.185 -0.1096  0.0058  0.0266
   81MOL   O12617886   1.584   2.313   3.120 -0.0307  0.2939  0.5710
   81MOL   C12717887   1.803   2.383   3.167  0.2533 -0.4924 -0.1613
   81MOL   H12817888   1.840   2.085   3.151 -0.6017  0.3316 -0.2152
   81MOL   H12917889   1.904   2.173   3.299 -2.5390  2.9606  1.0292
   81MOL   H13017890   1.623   2.099   3.259 -0.1218 -0.3025 -0.0295
   81MOL   H13117891   1.827   2.398   3.272  0.3014  0.3771 -0.2921
   81MOL   H13217892   1.777   2.483   3.132  1.0120 -0.9517 -2.1066
   81MOL   H13317893   1.889   2.334   3.121 -0.9721 -1.5857 -1.3475
   81MOL   C13417894   1.678   2.239   3.424  0.0914  0.1979 -0.1412
   81MOL   C13517895   1.530   2.247   3.474  0.3015  0.3632  0.2370
   81MOL   C13617896   1.459   2.113   3.474 -0.4441  0.4754 -0.1924
   81MOL   O13717897   1.511   2.021   3.526  0.3763  0.0630  0.2311
   81MOL   C13817898   1.322   2.105   3.411 -0.2492 -0.4005  0.5421
   81MOL   H13917899   1.716   2.340   3.437  0.7987 -0.2875  1.7569
   81MOL   H14017900   1.743   2.192   3.498  1.8740 -0.0276 -1.8032
   81MOL   H14117901   1.473   2.322   3.419 -0.3272 -0.3303 -0.0788
   81MOL   H14217902   1.306   2.004   3.375 -0.0438 -0.2732  0.0894
   81MOL   H14317903   1.312   2.166   3.321  2.5668  0.6467  0.8852
   81MOL   H14417904   1.244   2.134   3.481  0.6645 -1.5125  2.0556
   81MOL   C14517905   1.531   2.305   3.614 -0.1916  0.2072  0.7060
   81MOL   C14617906   1.390   2.332   3.673  0.1483  0.0128 -0.2824
   81MOL   C14717907   1.403   2.336   3.828  0.0974  0.0786 -0.2499
   81MOL   O14817908   1.379   2.441   3.893 -0.1093  0.1140  0.2807
   81MOL   C14917909   1.440   2.213   3.898  0.2926 -0.6546 -0.5192
   81MOL   H15017910   1.575   2.404   3.600 -1.5904  0.6866 -0.6230
   81MOL   H15117911   1.590   2.247   3.683 -2.6768 -1.6071  1.3884
   81MOL   H15217912   1.322   2.250   3.651  1.0779 -0.7651 -0.2625
   81MOL   H15317913   1.520   2.233   3.969 -0.9672 -1.2271  1.0914
   81MOL   H15417914   1.358   2.176   3.960  1.9361 -0.6419  1.7160
   81MOL   H15517915   1.474   2.138   3.827  1.1738 -1.4298  0.7076
   81MOL   C15617916   1.318   2.457   3.615 -0.5382 -0.2546 -1.0282
   81MOL   C15717917   1.183   2.492   3.675 -0.0858  0.2935  0.0509
   81MOL   C15817918   1.070   2.400   3.639  0.4499 -0.2393  0.1741
   81MOL   O15917919   1.078   2.317   3.550  0.6259  0.0339  0.4437
   81MOL   C16017920   0.947   2.406   3.729 -0.2133  0.0142 -0.3386
   81MOL   H16117921   1.382   2.544   3.604  0.1911 -0.8818 -1.8820
   81MOL   H16217922   1.296   2.427   3.512  0.3978 -0.6544 -1.1179
   81MOL   H16317923   1.174   2.498   3.784 -1.0490 -0.8007  0.0406
   81MOL   H16417924   0.948   2.496   3.791 -0.4505  0.2851 -0.7242
   81MOL   H16517925   0.934   2.323   3.797 -0.7014 -0.7376 -1.3410
   81MOL   H16617926   0.851   2.400   3.678 -2.0672  0.7918  2.9045
   81MOL   C16717927   1.142   2.629   3.626  0.3297 -0.5655 -0.0725
   81MOL   C16817928   1.220   2.756   3.673 -0.5066  0.3830  0.0267
   81MOL   C16917929   1.215   2.762   3.824 -0.5712 -0.4826  0.0392
   81MOL   O17017930   1.113   2.741   3.887 -0.2982 -0.1440  0.4516
   81MOL   C17117931   1.343   2.794   3.901 -0.0675  0.1886  0.2402
   81MOL   H17217932   1.158   2.623   3.518 -0.9225 -0.4345 -0.2759
   81MOL   H17317933   1.036   2.653   3.636  0.7784  1.6636 -0.2958
   81MOL   H17417934   1.326   2.755   3.649 -0.4281 -2.6048  0.3116
   81MOL   H17517935   1.331   2.859   3.987 -1.5663  0.8476 -0.4518
   81MOL   H17617936   1.414   2.843   3.835 -0.7481 -0.4735 -0.9992
   81MOL   H17717937   1.397   2.701   3.922  0.2047 -0.2573 -2.3270
   81MOL   C17817938   1.160   2.896   3.620  0.0092 -0.1257 -0.1022
   81MOL   C17917939   1.190   2.939   3.468  0.2751 -0.3774 -0.5025
   81MOL   C18017940   1.338   2.945   3.445 -0.1525  0.0831 -0.3052
   81MOL   O18117941   1.423   2.980   3.526  0.6283  0.1670  0.1664
   81MOL   C18217942   1.381   2.898   3.304  0.3659  0.1791  0.5482
   81MOL   H18317943   1.056   2.898   3.651  0.3570  0.6042  1.0597
   81MOL   H18417944   1.197   2.978   3.682 -1.0151  0.5487 -0.3900
   81MOL   H18517945   1.153   2.859   3.404  0.3175  0.1319 -1.1603
   81MOL   H18617946   1.343   2.954   3.219  1.6848 -0.6404 -0.5965
   81MOL   H18717947   1.354   2.792   3.299  0.7357  0.0072  1.9209
   81MOL   H18817948   1.489   2.896   3.297  0.1931 -0.8641 -2.4880
   81MOL   C18917949   1.111   3.069   3.443  0.7234  0.3846  0.2674
   81MOL   C19017950   1.069   3.089   3.294  0.0662 -0.0318 -0.3137
   81MOL   C19117951   0.943   3.004   3.267 -0.1588  0.3797 -0.4300
   81MOL   O19217952   0.835   3.024   3.325  0.1048 -0.0859  0.1631
   81MOL   C19317953   0.963   2.876   3.186 -0.3102 -0.4414 -0.6342
   81MOL   H19417954   1.021   3.077   3.503  0.2399 -2.1727 -0.0828
   81MOL   H19517955   1.186   3.146   3.463  1.8587 -0.1007 -1.9422
   81MOL   H19617956   1.154   3.052   3.237 -1.9085 -0.4314 -3.1022
   81MOL   H19717957   1.060   2.875   3.137  0.6953  1.2352  1.2611
   81MOL   H19817958   0.972   2.785   3.247 -0.5321  2.2134  3.5754
   81MOL   H19917959   0.875   2.860   3.123 -0.1233  2.3260 -1.6465
   81MOL   C20017960   1.040   3.241   3.264 -0.1363 -0.4129 -0.1240
   81MOL   C20117961   0.986   3.272   3.126 -0.0674  1.0762  0.1155
   81MOL   C20217962   1.102   3.271   3.022 -0.7581  0.8523 -0.1120
   81MOL   O20317963   1.199   3.344   3.029 -0.1472  0.4623 -0.3860
   81MOL   C20417964   1.092   3.174   2.909  0.3219  0.3360  0.6000
   81MOL   H20517965   0.954   3.260   3.329  0.4062  2.2569 -0.1547
   81MOL   H20617966   1.127   3.304   3.283 -1.0096  0.9962 -0.7387
   81MOL   H20717967   0.925   3.185   3.101  0.5185  0.7611 -0.2469
   81MOL   H20817968   1.189   3.141   2.871  1.3117  3.4124  0.3781
   81MOL   H20917969   1.040   3.084   2.943 -2.4874  1.7433  0.1126
   81MOL   H21017970   1.022   3.205   2.831  0.3726  1.1774  0.8877
   81MOL   C21117971   0.910   3.407   3.124 -0.0907  0.1156  0.3858
   81MOL   C21217972   0.782   3.413   3.204  0.1584  0.1858 -0.3967
   81MOL   C21317973   0.684   3.304   3.148 -0.0627 -0.1473  0.8386
   81MOL   O21417974   0.680   3.268   3.030 -0.6124  0.6422 -0.3740
   81MOL   C21517975   0.569   3.271   3.243 -0.6382 -0.0129 -0.2952
   81MOL   H21617976   0.968   3.498   3.139 -1.1484  0.5049  2.2637
   81MOL   H21717977   0.875   3.417   3.021 -4.2101 -1.3258  1.5312
   81MOL   H21817978   0.757   3.519   3.201 -2.2406 -0.3424 -0.3425
   81MOL   H21917979   0.485   3.308   3.185 -0.4467 -0.4020 -0.8296
   81MOL   H22017980   0.558   3.164   3.261 -1.1011  0.4696  2.3954
   81MOL   H22117981   0.572   3.322   3.339 -0.9550 -1.8206  0.6881
   81MOL   H22217982   0.799   3.395   3.310  0.2166 -1.0811 -0.6063
   82MOL     C117983   0.420   4.211   1.826  0.1350  0.1603 -0.0201
   82MOL     C217984   0.566   4.187   1.863  0.9105 -0.2294  0.0725
   82MOL     C317985   0.635   4.322   1.853  0.4752  0.6752 -0.2245
   82MOL     O417986   0.617   4.415   1.936  0.4055 -0.2860 -0.2973
   82MOL     C517987   0.733   4.338   1.737 -0.1420 -1.0254 -0.2825
   82MOL     H617988   0.405   4.217   1.718  1.2149 -0.8583 -0.2296
   82MOL     H717989   0.392   4.309   1.864  0.9719  1.4783 -2.6352
   82MOL     H817990   0.615   4.137   1.779  2.3714  0.2593  0.6167
   82MOL     H917991   0.707   4.287   1.644 -1.3551  1.8044 -1.5322
   82MOL    H1017992   0.744   4.445   1.720 -0.0161 -0.8998  0.5879
   82MOL    H1117993   0.833   4.308   1.768  0.9027  2.2469 -0.3658
   82MOL    H1217994   0.351   4.137   1.864  1.1103 -0.4405  0.5859
   82MOL    C1317995   0.587   4.101   1.993  0.1965 -0.7161 -0.1372
   82MOL    C1417996   0.719   4.041   2.041 -0.6016  0.0555  0.4122
   82MOL    C1517997   0.817   4.151   2.076  0.4380 -0.1210 -0.6712
   82MOL    O1617998   0.901   4.192   2.000  0.2778  0.7183  0.0826
   82MOL    C1717999   0.816   4.191   2.220 -0.3864 -0.9728 -0.5524
   82MOL    H1818000   0.568   4.176   2.070  1.1015 -0.0525 -0.5474
   82MOL    H1918001   0.512   4.023   2.004  2.2585 -3.2507 -3.1128
   82MOL    H2018002   0.715   3.978   2.130  0.8181 -0.1141  0.3704
   82MOL    H2118003   0.779   4.111   2.284 -1.1652  1.7766  2.5482
   82MOL    H2218004   0.923   4.214   2.227 -0.5496 -0.0149 -1.0320
   82MOL    H2318005   0.754   4.280   2.228 -0.1362 -0.7376 -1.1526
   82MOL    C2418006   0.770   3.935   1.937  0.6329  0.3205 -0.1821
   82MOL    C2518007   0.908   3.880   1.938 -0.3719  0.4791 -0.3170
   82MOL    C2618008   0.919   3.775   2.055 -0.0373 -0.3768 -0.2580
   82MOL    O2718009   0.939   3.810   2.172  0.1168 -0.4115  0.3409
   82MOL    C2818010   0.920   3.621   2.035  0.5867 -0.8741 -0.1928
   82MOL    H2918011   0.696   3.856   1.922  2.0620 -0.9360 -0.6569
   82MOL    H3018012   0.749   3.980   1.840 -1.8720 -1.4303 -0.5029
   82MOL    H3118013   0.985   3.954   1.959 -0.7127  1.4383 -2.3195
   82MOL    H3218014   0.831   3.569   2.072 -1.8236  1.1524 -2.8364
   82MOL    H3318015   0.912   3.597   1.929 -0.0000  0.5849 -0.4841
   82MOL    H3418016   1.007   3.562   2.061  0.4813 -0.6331  0.7178
   82MOL    C3518017   0.954   3.828   1.799  0.0858 -0.0813 -0.5266
   82MOL    C3618018   0.988   3.945   1.698 -0.2743 -0.1257  0.4315
   82MOL    C3718019   1.105   4.041   1.723 -0.4883 -0.2202 -0.6141
   82MOL    O3818020   1.223   3.997   1.724  0.3078  0.2857  0.0205
   82MOL    C3918021   1.072   4.187   1.724  0.0566 -0.3148  0.2034
   82MOL    H4018022   0.874   3.763   1.763  0.0819 -1.1956  1.3993
   82MOL    H4118023   1.031   3.751   1.803  1.1080  0.9918  0.8587
   82MOL    H4218024   0.898   4.003   1.685  1.3384  2.1415 -0.9540
   82MOL    H4318025   0.978   4.203   1.673 -0.0850  1.5375  1.0079
   82MOL    H4418026   1.150   4.232   1.663 -1.7572  0.7893 -1.3236
   82MOL    H4518027   1.079   4.236   1.822  2.1436 -1.6560  0.7621
   82MOL    C4618028   1.000   3.881   1.558  0.2926 -0.1026  0.1270
   82MOL    C4718029   1.023   3.970   1.431 -0.2337  0.0455 -0.8944
   82MOL    C4818030   1.066   3.891   1.306  0.4127 -0.6509 -0.6370
   82MOL    O4918031   1.000   3.809   1.246 -0.2843 -0.1746 -0.9178
   82MOL    C5018032   1.204   3.931   1.252 -0.0759  0.0261  0.0792
   82MOL    H5118033   0.906   3.827   1.545  1.1716 -1.0740 -2.3601
   82MOL    H5218034   1.071   3.798   1.562  1.9473  1.1639 -2.0499
   82MOL    H5318035   1.106   4.040   1.441  1.7604 -1.9383 -3.0216
   82MOL    H5418036   1.289   3.890   1.306  0.5802 -1.5223 -2.0479
   82MOL    H5518037   1.223   3.908   1.147  0.2611 -0.6342  0.2866
   82MOL    H5618038   1.223   4.037   1.268  2.6294 -0.6215  1.4081
   82MOL    C5718039   0.897   4.064   1.409  0.1781 -0.0701 -0.3335
   82MOL    C5818040   0.918   4.175   1.299 -0.7906 -0.0564 -0.5673
   82MOL    C5918041   0.778   4.213   1.239 -0.8600 -0.0473 -0.1874
   82MOL    O6018042   0.672   4.220   1.305 -0.2563 -0.1624  0.0377
   82MOL    C6118043   0.771   4.226   1.085  0.7334  0.7216 -0.3155
   82MOL    H6218044   0.872   4.118   1.501  1.5062 -1.6214  0.9806
   82MOL    H6318045   0.821   3.989   1.386 -0.9057  1.1481 -0.7827
   82MOL    H6418046   0.983   4.147   1.216 -0.1852 -0.6224  0.0876
   82MOL    H6518047   0.730   4.323   1.056 -1.9745 -0.4633 -0.5743
   82MOL    H6618048   0.870   4.216   1.042  0.2986 -0.6114 -1.0104
   82MOL    H6718049   0.715   4.149   1.033 -0.7005  1.5193  0.0024
   82MOL    C6818050   0.993   4.303   1.361 -0.0286  0.3237 -0.3579
   82MOL    C6918051   1.014   4.418   1.261  0.1843 -0.1778 -0.0839
   82MOL    C7018052   1.153   4.399   1.191  0.6469  0.2191 -0.4218
   82MOL    O7118053   1.212   4.294   1.205  0.4427 -0.0523  0.4504
   82MOL    C7218054   1.214   4.516   1.122  0.0351  0.2662  0.1323
   82MOL    H7318055   0.943   4.348   1.447 -0.3497  0.5264 -0.6513
   82MOL    H7418056   1.088   4.268   1.402  0.6373  3.1026  0.6125
   82MOL    H7518057   0.940   4.405   1.183 -0.9360  1.7856  0.6118
   82MOL    H7618058   1.308   4.489   1.074  0.3936  0.7788  0.5426
   82MOL    H7718059   1.148   4.548   1.040 -1.9124 -2.4456  0.5982
   82MOL    H7818060   1.242   4.598   1.188 -1.0980  0.6411  0.1691
   82MOL    C7918061   0.999   4.559   1.322  0.2219  0.7295 -0.2218
   82MOL    C8018062   0.954   4.666   1.225 -0.0829 -0.5560  0.2441
   82MOL    C8118063   0.989   4.815   1.268  0.0774 -0.3879  0.1699
   82MOL    O8218064   0.906   4.906   1.266  0.2571  0.0577  0.5742
   82MOL    C8318065   1.133   4.842   1.310  0.0455 -0.2847 -0.0404
   82MOL    H8418066   1.074   4.587   1.396  0.8610 -2.2859  0.3564
   82MOL    H8518067   0.917   4.557   1.393 -1.5237 -0.1195 -2.2051
   82MOL    H8618068   1.016   4.653   1.136  1.7715  0.1824  1.3952
   82MOL    H8718069   1.132   4.847   1.419  0.2429  1.3374 -0.0852
   82MOL    H8818070   1.167   4.938   1.271 -0.3955 -0.0237  0.2116
   82MOL    H8918071   1.203   4.764   1.281  0.7389  0.2015  0.2945
   82MOL    C9018072   0.803   4.643   1.201  0.8312 -1.1973 -0.3416
   82MOL    C9118073   0.755   4.686   1.065  0.3059  0.3855  0.6307
   82MOL    C9218074   0.837   4.651   0.947 -0.2686  0.4195 -0.4970
   82MOL    O9318075   0.876   4.533   0.931  0.1138 -0.0876 -0.5323
   82MOL    C9418076   0.869   4.755   0.844 -0.9478  0.0041 -0.3734
   82MOL    H9518077   0.782   4.537   1.219 -0.8090 -0.9773 -0.8938
   82MOL    H9618078   0.744   4.708   1.265 -0.4592  0.7452 -3.4088
   82MOL    H9718079   0.749   4.795   1.062 -3.1965  0.3206  2.8344
   82MOL    H9818080   0.965   4.717   0.809 -1.5017 -1.6098 -0.1658
   82MOL    H9918081   0.804   4.746   0.757  1.0733 -2.4247 -1.7032
   82MOL   H10018082   0.877   4.851   0.894  2.3095  0.9461 -2.5229
   82MOL   C10118083   0.612   4.635   1.042 -0.4178  0.8859  0.0121
   82MOL   C10218084   0.532   4.687   0.918 -0.0253 -0.1018 -0.4060
   82MOL   C10318085   0.498   4.832   0.918 -0.2617  0.1016  0.2364
   82MOL   O10418086   0.423   4.881   1.002  0.3740  0.6354 -0.1619
   82MOL   C10518087   0.550   4.927   0.811  0.5885  0.3118  0.1394
   82MOL   H10618088   0.626   4.528   1.032 -0.7223  0.7528  0.9512
   82MOL   H10718089   0.544   4.643   1.128 -1.3604  1.0346 -0.7385
   82MOL   H10818090   0.589   4.668   0.826 -2.3518  0.5740 -2.0476
   82MOL   H10918091   0.570   4.894   0.709  4.1910 -0.0508  0.9072
   82MOL   H11018092   0.492   5.019   0.809 -0.2727 -0.1435  2.5313
   82MOL   H11118093   0.646   4.971   0.837  1.6982 -1.9197 -0.0007
   82MOL   C11218094   0.391   4.617   0.897 -0.2378 -0.0693 -0.0726
   82MOL   C11318095   0.382   4.473   0.830 -0.1162  0.4200  0.5490
   82MOL   C11418096   0.470   4.466   0.702  0.5724 -0.0504 -0.0597
   82MOL   O11518097   0.425   4.524   0.600  0.3221 -0.3661  0.2416
   82MOL   C11618098   0.595   4.382   0.706 -0.9877  0.7569 -0.9034
   82MOL   H11718099   0.338   4.676   0.822  0.4916  0.5135 -0.1328
   82MOL   H11818100   0.335   4.625   0.990 -3.2178  1.1794 -1.8816
   82MOL   H11918101   0.421   4.395   0.895  0.9620 -0.1356 -0.7272
   82MOL   H12018102   0.679   4.444   0.736  0.0366 -0.7822 -0.5017
   82MOL   H12118103   0.577   4.305   0.781  0.5748 -0.0497 -1.3215
   82MOL   H12218104   0.615   4.319   0.619  3.1597  1.6693 -0.7040
   82MOL   C12318105   0.239   4.427   0.808 -0.5600  0.8498 -0.2269
   82MOL   C12418106   0.229   4.283   0.747 -0.8715  0.0475 -0.1733
   82MOL   C12518107   0.104   4.280   0.653 -0.8299 -0.4218  0.6719
   82MOL   O12618108   7.853   4.231   0.676 -0.4549 -0.5157  0.0997
   82MOL   C12718109   0.114   4.347   0.516  0.4808 -0.5067  0.1081
   82MOL   H12818110   0.192   4.495   0.737 -1.5658 -0.1491 -0.5332
   82MOL   H12918111   0.186   4.436   0.902 -1.0001 -1.3744 -0.2208
   82MOL   H13018112   0.321   4.262   0.692  0.5969 -0.6075  2.4291
   82MOL   H13118113   0.013   4.371   0.480  0.1241 -1.3153  0.5477
   82MOL   H13218114   0.167   4.288   0.441  1.4363 -0.9243  1.1039
   82MOL   H13318115   0.172   4.439   0.510 -0.0900 -0.0360  1.4776
   82MOL   C13418116   0.225   4.177   0.861 -0.5533 -0.2114 -0.4637
   82MOL   C13518117   0.244   4.020   0.821 -0.3855  0.1256 -0.5969
   82MOL   C13618118   0.381   3.993   0.746  0.6123  0.1416 -0.9256
   82MOL   O13718119   0.481   4.061   0.753 -0.3312  0.7528 -0.5422
   82MOL   C13818120   0.385   3.858   0.678 -0.6614  1.0765  0.7260
   82MOL   H13918121   0.141   4.193   0.929  0.7641  0.0577  1.1369
   82MOL   H14018122   0.311   4.189   0.927  0.6615 -0.0789 -2.0590
   82MOL   H14118123   0.159   4.004   0.755 -1.9959  2.2193  0.8942
   82MOL   H14218124   0.289   3.809   0.691 -0.8532  1.7513  1.9820
   82MOL   H14318125   0.458   3.789   0.721 -0.4350  0.7417 -0.1797
   82MOL   H14418126   0.394   3.869   0.570  0.3030 -3.2439  0.2541
   82MOL   C14518127   0.219   3.924   0.940 -0.8352 -0.4197 -0.1345
   82MOL   C14618128   0.338   3.931   1.044  0.1493  1.1074  0.3227
   82MOL   C14718129   0.302   4.016   1.166  0.2521 -0.2659  0.2360
   82MOL   O14818130   0.206   4.005   1.239  0.7882 -0.4179 -0.5520
   82MOL   C14918131   0.403   4.127   1.187 -0.2968  0.2274 -0.7677
   82MOL   H15018132   0.215   3.818   0.918 -1.1909 -1.2198  3.4578
   82MOL   H15118133   0.129   3.933   1.000 -0.1488 -1.2521  1.0397
   82MOL   H15218134   0.425   3.980   0.998 -0.6063  4.2368  2.0966
   82MOL   H15318135   0.490   4.113   1.122  1.0675  0.5196  0.9493
   82MOL   H15418136   0.360   4.226   1.176 -1.3976 -0.1324  0.2579
   82MOL   H15518137   0.438   4.124   1.291 -1.2714  2.1764 -0.3669
   82MOL   C15618138   0.373   3.787   1.098 -0.7065  0.5885 -0.0780
   82MOL   C15718139   0.501   3.773   1.185  0.8620 -0.6367 -0.0206
   82MOL   C15818140   0.629   3.820   1.105 -0.0787  0.4363 -0.0470
   82MOL   O15918141   0.696   3.910   1.148 -0.1634  0.3449  0.2155
   82MOL   C16018142   0.659   3.765   0.962  0.4145 -0.9554  0.2928
   82MOL   H16118143   0.297   3.740   1.160 -0.9436 -0.7362 -1.3625
   82MOL   H16218144   0.385   3.709   1.024  1.8036 -0.5901  1.4999
   82MOL   H16318145   0.478   3.839   1.268  1.4772  1.6881 -1.6614
   82MOL   H16418146   0.654   3.656   0.969 -2.2950 -0.8823  0.0129
   82MOL   H16518147   0.753   3.809   0.930  1.0784 -2.5569 -0.0115
   82MOL   H16618148   0.584   3.791   0.887  0.5801  1.2843  0.8749
   82MOL   C16718149   0.525   3.636   1.245 -0.5071  0.5958 -0.5437
   82MOL   C16818150   0.625   3.637   1.364 -0.2384  0.4239 -0.7363
   82MOL   C16918151   0.742   3.530   1.346 -0.0440 -0.6996 -0.3362
   82MOL   O17018152   0.740   3.433   1.267  0.3865  0.2550  0.1932
   82MOL   C17118153   0.862   3.550   1.437  0.4964  0.1394  1.4465
   82MOL   H17218154   0.435   3.596   1.291 -0.1871  0.0802 -0.3659
   82MOL   H17318155   0.526   3.551   1.177  1.1517  2.5664 -3.0983
   82MOL   H17418156   0.669   3.737   1.366 -0.9246  0.7148 -0.1165
   82MOL   H17518157   0.889   3.467   1.502 -0.1245 -1.3792 -0.1773
   82MOL   H17618158   0.830   3.627   1.506 -1.1364 -0.9454  1.9302
   82MOL   H17718159   0.952   3.579   1.383 -2.9536  1.1597 -4.2318
   82MOL   C17818160   0.552   3.610   1.494  0.6962 -0.3608 -0.5984
   82MOL   C17918161   0.452   3.726   1.535  0.1248 -0.2028 -0.3877
   82MOL   C18018162   0.532   3.862   1.566  0.0919  0.0816  0.7107
   82MOL   O18118163   0.646   3.857   1.612 -0.2691 -0.3132  0.3894
   82MOL   C18218164   0.466   3.995   1.544  0.0746  0.6229  0.0678
   82MOL   H18318165   0.503   3.513   1.500  0.7150 -0.4639 -1.9147
   82MOL   H18418166   0.619   3.592   1.578  1.7533  0.4802 -1.2426
   82MOL   H18518167   0.400   3.721   1.439 -1.2886 -1.8923  0.4350
   82MOL   H18618168   0.447   4.019   1.439  0.2273 -1.8293 -0.5383
   82MOL   H18718169   0.533   4.071   1.585  2.3125 -1.3691  0.2254
   82MOL   H18818170   0.367   3.992   1.590  0.4436 -0.8664  0.7858
   82MOL   C18918171   0.368   3.684   1.660 -0.1562  0.0217 -0.5686
   82MOL   C19018172   0.227   3.751   1.689  0.6040  0.2230 -0.4241
   82MOL   C19118173   0.130   3.737   1.563 -0.6320  0.8091 -0.2824
   82MOL   O19218174   0.051   3.825   1.530 -0.2240  0.0107  0.0133
   82MOL   C19318175   0.134   3.611   1.477  0.4423  0.5107 -0.3046
   82MOL   H19418176   0.367   3.576   1.654  0.7822  0.0143 -0.7091
   82MOL   H19518177   0.431   3.704   1.746 -0.9809  1.1979 -0.2179
   82MOL   H19618178   0.260   3.852   1.713 -0.1862  0.5310 -0.5932
   82MOL   H19718179   0.183   3.635   1.383 -1.2965  1.3121 -1.0277
   82MOL   H19818180   0.195   3.535   1.526  0.3140  0.7616  0.2581
   82MOL   H19918181   0.034   3.568   1.465 -0.2372  1.8022  0.5811
   82MOL   C20018182   0.157   3.690   1.812 -0.8511  0.9553  0.3406
   82MOL   C20118183   0.051   3.776   1.880  0.4410 -0.2254  0.3192
   82MOL   C20218184   0.086   3.922   1.888  0.3688 -0.1303 -0.0087
   82MOL   O20318185   0.129   3.972   1.989  0.4428  0.4749  0.1104
   82MOL   C20418186   0.057   4.020   1.772 -0.1002 -0.4717 -0.4094
   82MOL   H20518187   0.115   3.595   1.779  1.0059 -0.3491  1.6167
   82MOL   H20618188   0.237   3.650   1.875 -1.0215 -0.3125 -0.2378
   82MOL   H20718189   7.826   3.765   1.809 -0.9248  0.9339  1.6850
   82MOL   H20818190   0.145   4.046   1.714 -1.0949  3.3932 -0.3374
   82MOL   H20918191   7.824   3.991   1.719 -0.4489  1.5379 -0.9549
   82MOL   H21018192   0.033   4.112   1.826 -1.0088 -0.9166 -0.0551
   82MOL   C21118193   0.022   3.711   2.015  0.2171 -0.0706  0.7836
   82MOL   C21218194   7.756   3.750   2.089  0.6142  0.1934  0.0483
   82MOL   C21318195   7.615   3.738   2.024  0.0298 -0.5327  0.2059
   82MOL   O21418196   7.594   3.722   1.898  0.1852 -0.2114 -0.5771
   82MOL   C21518197   7.497   3.756   2.123 -0.5211 -0.6987  0.0704
   82MOL   H21618198   0.010   3.605   1.992  0.4860 -0.2947  1.6707
   82MOL   H21718199   0.107   3.728   2.080  0.6315 -0.3234  0.3185
   82MOL   H21818200   7.764   3.851   2.129 -2.1301 -0.3564  2.1507
   82MOL   H21918201   7.502   3.864   2.138  2.9160 -1.1261  2.8075
   82MOL   H22018202   7.403   3.723   2.079  0.1625 -0.5159 -1.5479
   82MOL   H22118203   7.525   3.712   2.219 -0.8620 -0.5248  0.2530
   82MOL   H22218204   7.743   3.686   2.176 -3.5027  2.8631  1.5274
   83MOL     C118205   0.284   0.224   5.724 -0.0479  0.2625 -0.2139
   83MOL     C218206   0.351   0.264   5.584  0.1671 -0.1971 -0.5722
   83MOL     C318207   0.492   0.199   5.561 -0.1869  0.0056 -0.6942
   83MOL     O418208   0.504   0.078   5.582  0.0149 -0.4367  0.2141
   83MOL     C518209   0.593   0.268   5.471 -0.3556 -1.0559  0.2023
   83MOL     H618210   0.216   0.302   5.759 -0.0336  0.1574  0.0422
   83MOL     H718211   0.361   0.203   5.798  0.6142  0.3209 -0.8801
   83MOL     H818212   0.378   0.369   5.582 -0.7727  0.0766  0.4987
   83MOL     H918213   0.655   0.338   5.526 -0.1329 -1.8668  1.0089
   83MOL    H1018214   0.645   0.196   5.407  1.0358  0.9867 -0.9961
   83MOL    H1118215   0.527   0.333   5.413 -0.0976  0.4413  1.5578
   83MOL    H1218216   0.232   0.128   5.724  1.3575 -0.5110  1.0945
   83MOL    C1318217   0.259   0.235   5.466  0.3864 -0.0828 -0.5755
   83MOL    C1418218   0.162   0.357   5.435  0.0571  0.1468 -0.1174
   83MOL    C1518219   0.231   0.489   5.395 -0.0773 -0.7681  0.3633
   83MOL    O1618220   0.226   0.587   5.465 -0.2859 -0.2294  0.4581
   83MOL    C1718221   0.293   0.493   5.254 -0.0711 -0.3035  0.2626
   83MOL    H1818222   0.322   0.204   5.384  1.1586 -0.8794  0.3015
   83MOL    H1918223   0.210   0.139   5.481  0.7083 -0.3347 -1.1677
   83MOL    H2018224   0.112   0.335   5.341  0.5985  0.3770 -0.4558
   83MOL    H2118225   0.374   0.421   5.243  0.4022  0.3676 -0.6415
   83MOL    H2218226   0.223   0.481   5.172  0.2702 -1.2998  0.1148
   83MOL    H2318227   0.332   0.593   5.232 -1.1419  0.0605  0.0120
   83MOL    C2418228   0.043   0.381   5.542 -0.5855 -0.3280 -0.0289
   83MOL    C2518229   7.778   0.454   5.476 -0.1820  0.0957  0.8603
   83MOL    C2618230   7.698   0.359   5.382 -0.1945  0.3167  0.2038
   83MOL    O2718231   7.675   0.244   5.415  0.3595  0.5593 -0.1274
   83MOL    C2818232   7.640   0.427   5.258 -0.1654 -0.4372  0.0073
   83MOL    H2918233   0.018   0.281   5.580 -1.2411 -0.2705 -0.3030
   83MOL    H3018234   0.089   0.433   5.627  0.7375 -2.6506  0.7283
   83MOL    H3118235   7.815   0.539   5.419  0.8979  0.3788  1.9518
   83MOL    H3218236   7.720   0.422   5.185  0.5269  0.6851  0.6638
   83MOL    H3318237   7.552   0.368   5.235 -0.0545 -0.7478  0.3651
   83MOL    H3418238   7.621   0.533   5.274 -1.1422 -0.5574 -0.3390
   83MOL    C3518239   7.683   0.519   5.582 -0.1840  0.1372 -0.2551
   83MOL    C3618240   7.717   0.664   5.623  0.3648 -0.4832 -0.4493
   83MOL    C3718241   7.672   0.767   5.519 -0.1322 -1.0900  0.4821
   83MOL    O3818242   7.759   0.833   5.460  0.0994 -0.2505 -0.1782
   83MOL    C3918243   7.523   0.795   5.488  0.4364 -0.4280  0.0145
   83MOL    H4018244   7.691   0.458   5.672 -0.3872  0.9911  0.3448
   83MOL    H4118245   7.582   0.509   5.545 -0.5167 -1.7937  1.0979
   83MOL    H4218246   7.826   0.674   5.626  0.5726 -2.5852  0.3379
   83MOL    H4318247   7.475   0.703   5.456 -0.7456  0.6392 -1.3429
   83MOL    H4418248   7.517   0.871   5.410  2.6249  0.8449  1.0321
   83MOL    H4518249   7.489   0.838   5.582  1.4976  0.0446  0.1958
   83MOL    C4618250   7.664   0.710   5.761  0.0795  0.3185 -0.3933
   83MOL    C4718251   7.753   0.651   5.872 -0.1638  0.3506 -0.6086
   83MOL    C4818252   0.039   0.701   5.880  0.0357  0.2039 -0.3644
   83MOL    O4918253   0.058   0.819   5.883 -0.1757 -0.4137 -0.0671
   83MOL    C5018254   0.154   0.604   5.879 -0.1915 -0.2922 -0.1932
   83MOL    H5118255   7.564   0.669   5.779  0.3635  0.3594  1.3497
   83MOL    H5218256   7.651   0.818   5.762 -0.7221  0.2188  0.5117
   83MOL    H5318257   7.757   0.542   5.865  0.4336  0.2200  1.4634
   83MOL    H5418258   0.219   0.622   5.965 -0.9114 -3.8758  1.1961
   83MOL    H5518259   0.117   0.501   5.880 -2.5916  0.5365  1.4922
   83MOL    H5618260   0.211   0.605   5.786  0.0126  2.0107 -0.0668
   83MOL    C5718261   7.681   0.669   6.003 -0.2329 -0.4740 -0.2160
   83MOL    C5818262   7.724   0.615   6.137 -0.6419  0.2701 -0.3222
   83MOL    C5918263   7.630   0.674   6.244  0.1603  0.2907  0.3191
   83MOL    O6018264   7.507   0.647   6.242  0.9140 -0.1783 -0.1163
   83MOL    C6118265   7.694   0.755   6.351  0.3367  0.0049 -0.5585
   83MOL    H6218266   7.578   0.635   5.988 -0.5514 -0.3498  1.5612
   83MOL    H6318267   7.668   0.777   6.007 -2.0679 -0.7227  1.9353
   83MOL    H6418268   7.827   0.647   6.150 -0.2822  0.2253 -2.8753
   83MOL    H6518269   7.613   0.814   6.395  0.7471  0.9029 -0.9914
   83MOL    H6618270   7.740   0.687   6.422 -1.1168 -1.1523 -0.7061
   83MOL    H6718271   7.768   0.826   6.315 -0.5262  0.6356 -1.1206
   83MOL    C6818272   7.725   0.461   6.145  0.5580  0.5264 -0.0444
   83MOL    C6918273   0.008   0.388   6.158  0.6434  0.0416 -0.2532
   83MOL    C7018274   7.846   0.248   6.094 -0.2542 -0.1169  0.2714
   83MOL    O7118275   7.855   0.144   6.164  0.5540  0.5528 -0.0361
   83MOL    C7218276   7.838   0.236   5.948  0.2716 -0.1939  0.2931
   83MOL    H7318277   7.670   0.428   6.234 -3.4435  1.9905 -1.8848
   83MOL    H7418278   7.655   0.425   6.070 -1.6829  4.1866  0.1869
   83MOL    H7518279   0.077   0.448   6.098 -0.7180  1.8919 -0.0325
   83MOL    H7618280   0.063   0.183   5.899  1.2956  2.7049 -1.2388
   83MOL    H7718281   7.751   0.172   5.934 -0.7264  0.9908  1.0346
   83MOL    H7818282   7.811   0.326   5.893  0.2233 -0.4872 -0.1650
   83MOL    C7918283   0.062   0.388   6.305  0.2347  0.0706  0.5328
   83MOL    C8018284   0.203   0.331   6.312  0.9585 -0.7480 -0.4064
   83MOL    C8118285   0.211   0.253   6.448  0.2857  0.1072 -0.3982
   83MOL    O8218286   0.263   0.309   6.543 -0.0508 -0.7819 -0.9171
   83MOL    C8318287   0.166   0.107   6.443 -0.0710  1.0592  0.4392
   83MOL    H8418288   7.853   0.341   6.378  0.3498 -2.4507 -0.9410
   83MOL    H8518289   0.057   0.493   6.337 -0.3613 -0.4235  2.1396
   83MOL    H8618290   0.203   0.250   6.239  0.6057 -0.4824 -0.7061
   83MOL    H8718291   0.062   0.105   6.409 -0.3376 -1.4246  1.3535
   83MOL    H8818292   0.179   0.058   6.539  3.6807  3.2008  1.1055
   83MOL    H8918293   0.217   0.057   6.361 -0.6502  1.1810 -0.0041
   83MOL    C9018294   0.311   0.431   6.285 -0.0114  0.1800 -0.2856
   83MOL    C9118295   0.457   0.376   6.266  0.2582  0.2777  0.6857
   83MOL    C9218296   0.531   0.333   6.395  0.4811 -0.6861 -0.4862
   83MOL    O9318297   0.559   0.217   6.416  0.1043 -0.5531 -0.1126
   83MOL    C9418298   0.556   0.435   6.499 -0.1098 -0.2796 -0.3354
   83MOL    H9518299   0.275   0.493   6.204 -0.0380  0.6235  0.0661
   83MOL    H9618300   0.313   0.507   6.363  1.3023  1.7992 -1.8630
   83MOL    H9718301   0.517   0.462   6.235  1.6297  0.5164  3.8067
   83MOL    H9818302   0.539   0.392   6.598  0.7838 -0.5517 -0.2936
   83MOL    H9918303   0.655   0.477   6.479 -0.6244  0.8589 -0.4923
   83MOL   H10018304   0.491   0.522   6.492  0.3276 -0.0821 -2.0981
   83MOL   C10118305   0.459   0.278   6.150  0.0588 -0.0748  0.4560
   83MOL   C10218306   0.585   0.292   6.062  0.1917  0.3318  0.2339
   83MOL   C10318307   0.588   0.418   5.975  0.0317 -0.5266  0.0910
   83MOL   O10418308   0.487   0.448   5.917  0.0402  0.0946  0.4799
   83MOL   C10518309   0.705   0.518   5.984  0.0872  0.3702  0.0333
   83MOL   H10618310   0.439   0.177   6.185 -4.2665 -0.1470 -1.8016
   83MOL   H10718311   0.371   0.300   6.088  0.6526  0.4031 -0.2367
   83MOL   H10818312   0.666   0.313   6.131 -1.2313 -0.6024  2.2222
   83MOL   H10918313   0.671   0.613   5.942  1.3263  0.8943  0.1786
   83MOL   H11018314   0.746   0.547   6.081  0.3935  0.2984 -0.0712
   83MOL   H11118315   0.790   0.481   5.926 -0.4236  1.0258 -1.1584
   83MOL   C11218316   0.613   0.169   5.973 -1.3427  0.3792  0.1789
   83MOL   C11318317   0.708   0.062   6.034 -0.3915  0.4026 -0.1013
   83MOL   C11418318   0.849   0.113   6.073 -0.0001  0.4750 -0.2566
   83MOL   O11518319   0.906   0.201   6.011 -1.0885 -0.0734  0.3474
   83MOL   C11618320   0.925   0.030   6.181 -0.1804 -0.1286  0.3487
   83MOL   H11718321   0.656   0.197   5.876 -1.5356  0.4543  0.1169
   83MOL   H11818322   0.519   0.120   5.946 -0.8001 -0.8577  0.4828
   83MOL   H11918323   0.665   0.033   6.129 -1.4817 -2.3785 -1.4106
   83MOL   H12018324   0.997   0.088   6.239  0.5214 -1.5334  0.9056
   83MOL   H12118325   0.855   7.848   6.255 -1.5080  1.6307  0.0707
   83MOL   H12218326   0.987   7.807   6.143 -0.4302  0.0098 -0.3561
   83MOL   C12318327   0.721   7.786   5.946  0.3877  0.4940 -0.4446
   83MOL   C12418328   0.629   7.676   6.005  0.1307  0.1879 -0.1825
   83MOL   C12518329   0.484   7.726   5.990  0.2827 -0.5706  0.3107
   83MOL   O12618330   0.412   7.757   6.084  0.6537 -0.2940 -0.5379
   83MOL   C12718331   0.422   7.730   5.854 -0.4040 -0.4069  0.0518
   83MOL   H12818332   0.824   7.754   5.934 -0.7915 -2.3982 -3.5564
   83MOL   H12918333   0.701   7.795   5.839  2.7490  0.7915 -0.8922
   83MOL   H13018334   0.636   7.592   5.936  1.3331 -1.0351  1.4093
   83MOL   H13118335   0.402   7.626   5.827 -3.0287  0.3774 -1.1799
   83MOL   H13218336   0.485   7.772   5.776 -0.7725 -0.0263 -0.0458
   83MOL   H13318337   0.326   7.781   5.862  0.1031  0.7962 -1.3530
   83MOL   C13418338   0.659   7.618   6.147 -0.3446 -0.0180 -0.2435
   83MOL   C13518339   0.571   7.495   6.200 -0.8263  0.0560 -0.2201
   83MOL   C13618340   0.580   7.380   6.100 -0.6378 -0.1089  0.2146
   83MOL   O13718341   0.672   7.374   6.023 -0.0519  0.0552 -0.2796
   83MOL   C13818342   0.475   7.270   6.106 -0.2666 -0.1741 -0.0853
   83MOL   H13918343   0.658   7.699   6.221  0.6434  0.6016 -0.8783
   83MOL   H14018344   0.766   7.593   6.145 -0.2076  0.5892 -0.6200
   83MOL   H14118345   0.467   7.528   6.189 -1.1478 -0.2652  1.7020
   83MOL   H14218346   0.409   7.267   6.193 -0.5037  2.6906 -0.1263
   83MOL   H14318347   0.530   7.175   6.103  0.4417  0.2387 -0.2783
   83MOL   H14418348   0.405   7.275   6.023  1.2448 -1.3849 -1.4776
   83MOL   C14518349   0.604   7.440   6.345  0.3135 -1.0134 -0.1943
   83MOL   C14618350   0.545   7.516   6.461  0.6210 -0.3223  0.0806
   83MOL   C14718351   0.397   7.485   6.498 -0.2024  0.6263  0.0231
   83MOL   O14818352   0.374   7.427   6.604  0.3857 -0.1501 -0.4937
   83MOL   C14918353   0.284   7.539   6.421 -1.0181  0.0148  0.3226
   83MOL   H15018354   0.710   7.467   6.350  0.4144 -1.4430 -0.0114
   83MOL   H15118355   0.578   7.334   6.342 -1.0871 -0.7481  1.9783
   83MOL   H15218356   0.530   7.618   6.426  1.3146  0.3230  1.6290
   83MOL   H15318357   0.232   7.458   6.369 -1.4782  1.7266 -1.9263
   83MOL   H15418358   0.214   7.589   6.488 -0.5626  2.1289 -0.7511
   83MOL   H15518359   0.324   7.607   6.347 -0.7473 -0.3635  0.1181
   83MOL   C15618360   0.634   7.515   6.589 -0.2078  0.4436 -1.2351
   83MOL   C15718361   0.631   7.644   6.675 -0.4527 -0.2487 -0.4906
   83MOL   C15818362   0.707   7.763   6.611  0.6181  1.1316 -0.4161
   83MOL   O15918363   0.808   7.745   6.541  0.3428  0.1888  0.0830
   83MOL   C16018364   0.659   0.040   6.649 -0.0238  0.6074  0.4576
   83MOL   H16118365   0.612   7.435   6.659 -2.6270  2.9604  0.9866
   83MOL   H16218366   0.740   7.503   6.565 -0.3488 -0.1055 -1.5918
   83MOL   H16318367   0.532   7.688   6.690 -1.3435 -1.1134 -3.5126
   83MOL   H16418368   0.728   0.121   6.624 -1.7427  2.1544  0.6361
   83MOL   H16518369   0.654   0.056   6.757  2.0371  0.1809  0.6427
   83MOL   H16618370   0.562   0.059   6.604  0.3579 -0.1680 -0.7136
   83MOL   C16718371   0.692   7.624   6.819  0.1452 -0.3048 -0.1632
   83MOL   C16818372   0.625   7.516   6.908 -0.3962  0.0665 -0.2620
   83MOL   C16918373   0.463   7.530   6.928 -0.0857  0.2330  0.3223
   83MOL   O17018374   0.416   7.645   6.921 -0.3301  0.1437 -0.1574
   83MOL   C17118375   0.391   7.398   6.961 -0.5997 -0.2530  0.6510
   83MOL   H17218376   0.796   7.593   6.810 -0.4157 -1.8339 -1.4630
   83MOL   H17318377   0.689   7.718   6.876 -0.3323  0.6279 -1.6951
   83MOL   H17418378   0.639   7.415   6.870  2.1324 -0.2324  1.3136
   83MOL   H17518379   0.382   7.387   7.069 -0.1905 -1.4496  0.5751
   83MOL   H17618380   0.442   7.313   6.916  0.2727  0.6143 -0.0291
   83MOL   H17718381   0.289   7.398   6.923 -1.1258 -1.8171  2.0198
   83MOL   C17818382   0.689   7.512   7.045 -0.2296 -0.2386 -0.9954
   83MOL   C17918383   0.822   7.428   7.046 -0.7651  0.6163 -0.3721
   83MOL   C18018384   0.795   7.274   7.045  0.2361  0.4552 -0.5989
   83MOL   O18118385   0.855   7.206   6.962 -0.2155 -0.0536 -0.2812
   83MOL   C18218386   0.697   7.218   7.153  0.5599 -0.5644  0.3101
   83MOL   H18318387   0.709   7.614   7.077 -2.4778 -0.1847  0.3799
   83MOL   H18418388   0.625   7.477   7.126  0.8094 -0.0881 -0.1008
   83MOL   H18518389   0.881   7.463   6.962 -0.1400  3.6010  1.2379
   83MOL   H18618390   0.676   7.295   7.227  0.2024  0.0706 -0.4427
   83MOL   H18718391   0.745   7.138   7.209  1.8679 -0.8651 -1.1794
   83MOL   H18818392   0.609   7.173   7.107 -0.5705  0.7964  1.1059
   83MOL   C18918393   0.903   7.463   7.181  0.4062 -1.2475  0.2576
   83MOL   C19018394   1.048   7.410   7.196 -0.1143 -0.0049  0.0232
   83MOL   C19118395   1.134   7.482   7.085  0.2602  0.0513  0.2486
   83MOL   O19218396   1.200   7.584   7.105  0.5082 -0.3420 -0.2519
   83MOL   C19318397   1.126   7.434   6.942 -0.2371  0.8512 -0.0455
   83MOL   H19418398   0.916   7.571   7.185  2.4389 -1.4862  0.5396
   83MOL   H19518399   0.842   7.438   7.268 -1.0344  0.2964 -0.2712
   83MOL   H19618400   1.060   7.302   7.181  3.3196  0.4568 -0.9116
   83MOL   H19718401   1.228   7.414   6.908  0.8130  2.9337  1.7237
   83MOL   H19818402   1.072   7.340   6.932  0.9978  0.2413 -1.2439
   83MOL   H19918403   1.091   7.509   6.872  3.3205  1.6180 -1.1164
   83MOL   C20018404   1.112   7.436   7.339 -0.0786 -0.2109  0.5678
   83MOL   C20118405   1.258   7.385   7.368  0.4256 -0.0256  0.4167
   83MOL   C20218406   1.276   7.240   7.332 -0.7688 -0.1441  0.6500
   83MOL   O20318407   1.196   7.157   7.361 -0.0382  0.1784  0.0187
   83MOL   C20418408   1.400   7.200   7.250 -0.0471  0.5969 -0.0518
   83MOL   H20518409   1.103   7.541   7.366  0.6391 -0.1319  0.5060
   83MOL   H20618410   1.050   7.390   7.416 -1.8535 -1.0078 -1.2625
   83MOL   H20718411   1.319   7.441   7.297  1.4049  0.1451  1.3875
   83MOL   H20818412   1.396   7.097   7.214  1.2077 -0.0651  1.5866
   83MOL   H20918413   1.401   7.269   7.167  1.6188  1.0556  0.3446
   83MOL   H21018414   1.494   7.201   7.304 -0.3257 -1.0812  0.4981
   83MOL   C21118415   1.312   7.429   7.503 -0.7414  0.3759 -0.3494
   83MOL   C21218416   1.461   7.400   7.535 -0.5232  0.0993 -0.4437
   83MOL   C21318417   1.545   7.497   7.466  0.0495 -0.4487 -0.8739
   83MOL   O21418418   1.592   7.464   7.356 -0.6378  0.7050  0.2918
   83MOL   C21518419   1.579   7.628   7.538 -0.0979 -0.4907 -0.3089
   83MOL   H21618420   1.287   7.531   7.533 -1.2878  0.1551 -0.0465
   83MOL   H21718421   1.251   7.366   7.568 -0.0000 -2.0178 -1.8920
   83MOL   H21818422   1.493   7.301   7.503 -1.1947  0.1309 -1.2406
   83MOL   H21918423   1.661   7.633   7.610 -1.3857 -1.4309  1.2356
   83MOL   H22018424   1.581   7.712   7.469 -2.2783 -1.6328 -1.8180
   83MOL   H22118425   1.491   7.645   7.599 -3.6029 -2.5749 -4.5289
   83MOL   H22218426   1.481   7.397   7.642 -0.9206  0.4037 -0.3613
   84MOL     C118427   7.553   3.390   4.378  0.0634  0.5206 -0.7112
   84MOL     C218428   7.661   3.496   4.360  0.3247  0.1529  0.1346
   84MOL     C318429   7.599   3.633   4.311 -0.1005  0.6470 -0.6362
   84MOL     O418430   7.527   3.699   4.384  0.1566 -0.2750  0.1792
   84MOL     C518431   7.631   3.674   4.172  0.2366 -0.2320 -0.0740
   84MOL     H618432   7.588   3.287   4.379 -0.2052  0.4115 -1.5638
   84MOL     H718433   7.476   3.400   4.301 -0.9926  1.6374  0.4622
   84MOL     H818434   7.730   3.468   4.281  0.7317  0.9592  0.2010
   84MOL     H918435   7.535   3.691   4.122  0.8070  0.9101 -0.7953
   84MOL    H1018436   7.687   3.767   4.174 -2.0608  1.2518 -2.1125
   84MOL    H1118437   7.688   3.595   4.122 -0.2050  0.7172 -2.1140
   84MOL    H1218438   7.508   3.409   4.475  0.9021 -2.0971  0.2101
   84MOL    C1318439   7.730   3.512   4.499 -0.3490 -0.4424 -0.3275
   84MOL    C1418440   7.845   3.419   4.541  0.2705  0.2850  0.7974
   84MOL    C1518441   7.791   3.280   4.589  0.4836 -0.0538  0.5366
   84MOL    O1618442   7.809   3.180   4.516 -0.5400  0.2739 -0.7757
   84MOL    C1718443   7.687   3.269   4.702 -0.6698  0.5416  0.3701
   84MOL    H1818444   7.780   3.609   4.502  0.4516 -0.8099 -1.4439
   84MOL    H1918445   7.647   3.515   4.570 -0.3811  1.3831 -0.4294
   84MOL    H2018446   0.053   3.381   4.463 -1.4729  0.3756 -0.7620
   84MOL    H2118447   7.677   3.356   4.768 -1.0405 -0.0150  1.0588
   84MOL    H2218448   7.586   3.242   4.670 -0.3870  0.8639 -0.7914
   84MOL    H2318449   7.717   3.184   4.764 -2.9020 -0.7927 -0.2985
   84MOL    C2418450   0.083   3.497   4.640  0.4511  0.1479 -0.0639
   84MOL    C2518451   0.208   3.425   4.710 -0.3450 -0.0844  0.0781
   84MOL    C2618452   0.311   3.371   4.611 -0.6222 -0.5561 -0.2859
   84MOL    O2718453   0.393   3.444   4.558 -0.2141 -0.0536  0.1577
   84MOL    C2818454   0.313   3.223   4.580  0.0550  0.1326 -0.1257
   84MOL    H2918455   0.130   3.579   4.586 -2.2191  1.5425 -0.3262
   84MOL    H3018456   0.012   3.550   4.702 -0.9840 -1.2057 -0.5169
   84MOL    H3118457   0.172   3.338   4.765  1.1448 -0.2089  0.8992
   84MOL    H3218458   0.406   3.190   4.626  0.2960  0.5587 -0.3040
   84MOL    H3318459   0.236   3.183   4.646  1.1762 -3.7866 -1.1037
   84MOL    H3418460   0.296   3.179   4.481  1.9813 -0.1166 -0.3648
   84MOL    C3518461   0.280   3.504   4.829 -0.2487  0.4040  0.0873
   84MOL    C3618462   0.193   3.541   4.948 -0.8345  0.2427 -1.2586
   84MOL    C3718463   0.121   3.429   5.018  0.0687  0.0366 -1.0663
   84MOL    O3818464   0.000   3.411   5.002 -0.1124  0.0216  0.3583
   84MOL    C3918465   0.203   3.341   5.118  0.3716 -0.2297  0.0929
   84MOL    H4018466   0.316   3.595   4.781 -0.3504  0.6888  0.5567
   84MOL    H4118467   0.368   3.446   4.855 -0.2144  1.0036  1.3230
   84MOL    H4218468   0.116   3.601   4.900 -0.3940  1.3050 -0.6357
   84MOL    H4318469   0.149   3.247   5.128 -1.6939  0.8389 -0.6293
   84MOL    H4418470   0.208   3.382   5.219  1.1321 -0.3317  0.0989
   84MOL    H4518471   0.299   3.325   5.069 -0.7800 -1.7027 -1.7777
   84MOL    C4618472   0.271   3.628   5.052 -0.2218 -0.2673 -0.0470
   84MOL    C4718473   0.185   3.690   5.166  0.0499  0.0111 -0.4998
   84MOL    C4818474   0.274   3.757   5.273  0.1663  0.7956  0.7588
   84MOL    O4918475   0.287   3.877   5.286 -0.0262  0.0755  0.7256
   84MOL    C5018476   0.327   3.674   5.393 -0.0258  1.0326 -0.2991
   84MOL    H5118477   0.326   3.716   5.018 -1.7463  1.9397  3.0060
   84MOL    H5218478   0.352   3.577   5.105  0.7249  1.0190 -0.2251
   84MOL    H5318479   0.146   3.599   5.211  1.2902  1.0090  2.6681
   84MOL    H5418480   0.287   3.574   5.381  0.4724  0.7226  0.6375
   84MOL    H5518481   0.435   3.674   5.403 -0.2039  1.3608  1.9093
   84MOL    H5618482   0.275   3.699   5.486 -0.3477  3.0746 -0.9932
   84MOL    C5718483   0.080   3.785   5.108 -0.2664 -0.1390  0.4627
   84MOL    C5818484   7.834   3.853   5.201 -0.2329 -0.3384  1.4546
   84MOL    C5918485   7.746   3.950   5.115 -0.5151  0.4568 -0.3788
   84MOL    O6018486   7.623   3.948   5.121  0.8806  0.4210  1.1682
   84MOL    C6118487   7.819   4.053   5.040  0.0955  0.1280 -0.0807
   84MOL    H6218488   0.026   3.742   5.023  0.7326 -0.3719 -0.0557
   84MOL    H6318489   0.151   3.854   5.062  1.6802 -2.0773  0.5211
   84MOL    H6418490   0.020   3.921   5.275  0.1766  2.1137 -0.9372
   84MOL    H6518491   7.831   4.036   4.933  0.2064 -0.1837 -0.0197
   84MOL    H6618492   7.774   4.150   5.059  3.8073  1.3251  3.3231
   84MOL    H6718493   0.064   4.063   5.075  0.0423 -1.8487  0.7072
   84MOL    C6818494   7.750   3.744   5.265 -0.0548  0.1319 -0.0934
   84MOL    C6918495   7.680   3.757   5.403  0.2062  0.0963 -0.1294
   84MOL    C7018496   7.779   3.799   5.505  0.2182  0.3093 -1.2011
   84MOL    O7118497   0.032   3.754   5.506 -0.0880 -0.1235 -0.0264
   84MOL    C7218498   7.722   3.886   5.619 -0.2921 -0.1190  0.4946
   84MOL    H7318499   7.679   3.704   5.192  0.9963 -0.7622 -0.6347
   84MOL    H7418500   7.818   3.659   5.276  0.9627  0.9234 -0.2128
   84MOL    H7518501   7.606   3.836   5.396  0.0053  0.0724  1.6410
   84MOL    H7618502   7.636   3.837   5.664 -0.0073 -0.7004  0.4116
   84MOL    H7718503   7.791   3.924   5.696 -1.5268  0.8576  1.1369
   84MOL    H7818504   7.686   3.981   5.581  0.4188 -0.6075 -1.4431
   84MOL    C7918505   7.604   3.628   5.450  0.0102 -0.1893  0.2672
   84MOL    C8018506   7.498   3.574   5.354  0.2254  0.1832 -0.1554
   84MOL    C8118507   7.378   3.661   5.353  0.2646 -0.1312  0.0844
   84MOL    O8218508   7.286   3.637   5.428 -0.0210 -0.2940  0.0897
   84MOL    C8318509   7.383   3.777   5.256 -0.7100  0.3462 -0.2768
   84MOL    H8418510   7.575   3.636   5.554  1.0838 -1.6631  0.6975
   84MOL    H8518511   7.682   3.551   5.450  1.0460  0.8340 -1.0607
   84MOL    H8618512   7.531   3.584   5.250 -1.3946 -2.9102 -1.0253
   84MOL    H8718513   7.440   3.775   5.163  0.2702  1.0571  0.3061
   84MOL    H8818514   7.420   3.860   5.316  0.8943  0.1346 -0.9469
   84MOL    H8918515   7.291   3.828   5.224  0.1582  3.5413  2.0640
   84MOL    C9018516   7.473   3.425   5.389  0.2130 -0.6598  0.2666
   84MOL    C9118517   7.364   3.349   5.308  0.0495 -0.0392  0.7713
   84MOL    C9218518   7.397   3.335   5.160  0.0021  0.1620  0.3693
   84MOL    O9318519   7.308   3.354   5.073  0.1706  0.1891  0.4709
   84MOL    C9418520   7.537   3.294   5.115  0.4474 -0.2083 -0.6379
   84MOL    H9518521   7.563   3.367   5.373  1.1633  0.7518  0.3355
   84MOL    H9618522   7.459   3.415   5.497  1.0987  1.0879  0.5649
   84MOL    H9718523   7.274   3.411   5.307  0.9940  1.3697 -2.5112
   84MOL    H9818524   7.575   3.391   5.082  0.1768  0.1681  0.1296
   84MOL    H9918525   7.598   3.261   5.199 -1.8364  0.3848  1.3425
   84MOL   H10018526   7.548   3.220   5.036 -1.4433  0.2305 -1.3520
   84MOL   C10118527   7.331   3.199   5.369  1.3112 -0.1843  0.7870
   84MOL   C10218528   7.222   3.115   5.290  0.7005 -0.1230 -0.2767
   84MOL   C10318529   7.083   3.182   5.283  0.5223 -0.5026  0.6259
   84MOL   O10418530   7.036   3.244   5.375  0.3654  0.2233  0.0307
   84MOL   C10518531   7.001   3.171   5.154  0.3358 -0.5343  0.7512
   84MOL   H10618532   7.426   3.146   5.384  1.0672 -0.9279 -0.2081
   84MOL   H10718533   7.291   3.225   5.466 -0.3067 -0.8304  0.3066
   84MOL   H10818534   7.253   3.106   5.186  1.3611  3.1478 -0.4105
   84MOL   H10918535   6.894   3.191   5.161 -0.2103 -2.7750 -0.4129
   84MOL   H11018536   7.062   3.228   5.084  0.8587 -1.9868 -0.0206
   84MOL   H11118537   6.992   3.065   5.128  0.8371 -0.5384  0.5929
   84MOL   C11218538   7.212   2.975   5.346  0.0102  0.1642  0.2330
   84MOL   C11318539   7.156   2.972   5.489 -0.3484  0.0056  0.0165
   84MOL   C11418540   7.251   2.905   5.587  0.0474  0.0475  1.0508
   84MOL   O11518541   7.255   2.785   5.601  0.2573 -0.5280 -0.0897
   84MOL   C11618542   7.364   2.995   5.640  0.3727 -0.2570 -0.3904
   84MOL   H11718543   7.300   2.912   5.337  1.0188  1.5833 -0.1465
   84MOL   H11818544   7.133   2.936   5.283  0.3873  1.6831 -1.2232
   84MOL   H11918545   7.154   3.075   5.523  0.3881 -0.5441  1.7851
   84MOL   H12018546   7.319   3.090   5.667  1.7619  0.2849  0.1093
   84MOL   H12118547   7.410   2.953   5.730 -0.5783 -2.1163 -0.7484
   84MOL   H12218548   7.434   3.015   5.559 -0.1269 -1.0169 -1.0163
   84MOL   C12318549   7.010   2.914   5.490  0.4069 -0.1037  0.1473
   84MOL   C12418550   6.926   2.934   5.617 -0.0334  0.6024  0.0368
   84MOL   C12518551   6.946   3.073   5.684  0.3206 -0.2669 -0.6871
   84MOL   O12618552   7.033   3.088   5.764 -0.1240 -0.2641 -0.2457
   84MOL   C12718553   6.849   3.179   5.643 -0.8370 -0.6965  0.2508
   84MOL   H12818554   7.012   2.809   5.462  0.4838 -0.5876  1.9410
   84MOL   H12918555   6.957   2.972   5.414 -2.5788 -0.8284  1.5806
   84MOL   H13018556   6.822   2.922   5.586  0.6549 -2.1690 -1.4105
   84MOL   H13118557   6.904   3.270   5.667 -0.0660 -0.3665 -2.5716
   84MOL   H13218558   6.753   3.166   5.693 -0.9954  2.5991  0.8948
   84MOL   H13318559   6.833   3.183   5.535 -0.7337 -0.6329  0.2383
   84MOL   C13418560   6.944   2.816   5.709  0.6427 -0.2277  0.2693
   84MOL   C13518561   6.857   2.816   5.841 -0.8392 -0.2455 -0.3677
   84MOL   C13618562   6.708   2.802   5.806  1.0246  0.8177 -0.3780
   84MOL   O13718563   6.671   2.722   5.724 -0.0512  0.6372 -0.5396
   84MOL   C13818564   6.612   2.878   5.894 -0.6876 -0.0209 -0.7236
   84MOL   H13918565   7.047   2.824   5.742  0.2487  2.2375  0.9495
   84MOL   H14018566   6.926   2.723   5.655 -2.9603  1.8505 -2.3649
   84MOL   H14118567   6.868   2.911   5.894  1.1422 -0.0379 -1.1056
   84MOL   H14218568   6.586   2.980   5.865  2.4041  0.9950 -0.1744
   84MOL   H14318569   6.654   2.884   5.995 -1.2326  1.2024 -0.5634
   84MOL   H14418570   6.517   2.827   5.908 -0.1113 -1.2235 -1.1167
   84MOL   C14518571   6.897   2.700   5.934  0.2250 -0.4456  0.2699
   84MOL   C14618572   7.036   2.700   5.997 -0.5085 -0.0742  0.3334
   84MOL   C14718573   7.075   2.832   6.062  0.2461  0.3215  0.2423
   84MOL   O14818574   7.007   2.887   6.142  0.0600 -0.3250 -0.1776
   84MOL   C14918575   7.213   2.889   6.032  0.0475  0.1704  0.7517
   84MOL   H15018576   6.873   2.610   5.876 -2.7505  0.3934  0.0803
   84MOL   H15118577   6.823   2.692   6.013 -1.7914 -0.7461 -1.5864
   84MOL   H15218578   7.102   2.680   5.913  2.0045  1.2036  1.9430
   84MOL   H15318579   7.220   2.983   6.087 -1.3111  1.8212 -1.8193
   84MOL   H15418580   7.283   2.822   6.081  0.4326 -0.4372 -0.6208
   84MOL   H15518581   7.227   2.901   5.925 -2.2019 -2.6250  0.0971
   84MOL   C15618582   7.053   2.591   6.100 -0.2232  0.2958  0.0382
   84MOL   C15718583   7.044   2.453   6.033  0.2474  0.0416 -0.0862
   84MOL   C15818584   7.039   2.361   6.148  0.1293 -0.7940  0.1323
   84MOL   O15918585   6.930   2.313   6.190  0.0734  0.0729  0.3624
   84MOL   C16018586   7.162   2.325   6.231 -0.1556  0.6414 -0.1628
   84MOL   H16118587   7.151   2.590   6.149 -0.3552  0.4162  0.3019
   84MOL   H16218588   6.973   2.591   6.173 -0.7966  0.5436 -0.5919
   84MOL   H16318589   6.953   2.441   5.973  0.2310  0.7121 -0.1943
   84MOL   H16418590   7.212   2.413   6.270 -0.7089  1.0802 -0.4323
   84MOL   H16518591   7.235   2.270   6.171 -0.8951  0.4621 -0.9028
   84MOL   H16618592   7.140   2.279   6.327  2.2799 -2.2908 -0.9158
   84MOL   C16718593   7.159   2.417   5.940  0.1716 -0.0435  0.3880
   84MOL   C16818594   7.114   2.386   5.798  0.3802  0.4328 -0.4857
   84MOL   C16918595   7.012   2.269   5.810  0.4327  0.1583 -0.5637
   84MOL   O17018596   7.040   2.164   5.863  0.1984  0.0580  0.1178
   84MOL   C17118597   6.880   2.292   5.740  0.1507  0.3541 -0.5127
   84MOL   H17218598   7.234   2.495   5.939 -0.4421  0.5524 -1.1410
   84MOL   H17318599   7.211   2.325   5.968  0.1510  0.0797  0.8265
   84MOL   H17418600   7.071   2.479   5.760 -0.2900  0.5461  0.5304
   84MOL   H17518601   6.853   2.225   5.658 -0.6653  1.5785 -1.2583
   84MOL   H17618602   6.881   2.390   5.694 -0.1384  1.1904  1.2319
   84MOL   H17718603   6.798   2.296   5.811  1.0970  0.8161  0.5574
   84MOL   C17818604   7.248   2.342   5.713 -0.1879  0.7039  0.6252
   84MOL   C17918605   7.219   2.315   5.565 -0.2427 -0.1096 -0.3124
   84MOL   C18018606   7.333   2.235   5.496  0.3619  1.2738 -0.4881
   84MOL   O18118607   7.417   2.290   5.424  0.5709 -0.0091  0.2366
   84MOL   C18218608   7.326   2.082   5.512  0.0867  0.5491 -0.1067
   84MOL   H18318609   7.333   2.411   5.719  0.2650  0.3435 -1.2846
   84MOL   H18418610   7.274   2.246   5.758  1.9135  0.4285 -1.1024
   84MOL   H18518611   7.127   2.258   5.574  0.7014 -1.6235 -0.0802
   84MOL   H18618612   7.278   2.032   5.429 -0.0647  0.1560  0.2164
   84MOL   H18718613   7.260   2.056   5.594  3.3229 -1.5540  1.9739
   84MOL   H18818614   7.428   2.044   5.523 -0.5261 -0.3812  2.6943
   84MOL   C18918615   7.179   2.448   5.494 -0.5891 -0.3130 -0.2601
   84MOL   C19018616   7.124   2.436   5.346  0.3322 -0.0354 -0.1843
   84MOL   C19118617   6.982   2.365   5.337  0.1854  0.6481 -0.9859
   84MOL   O19218618   6.906   2.364   5.434 -0.4106 -0.3559  0.0423
   84MOL   C19318619   6.940   2.294   5.212  0.0659 -0.0690  0.5719
   84MOL   H19418620   7.109   2.501   5.557 -1.1234 -0.3481 -0.8148
   84MOL   H19518621   7.269   2.510   5.490 -0.1396 -0.9494 -0.1231
   84MOL   H19618622   7.190   2.379   5.280  0.6532  1.2556 -0.9932
   84MOL   H19718623   6.885   2.366   5.150  1.1155  0.8608  0.7068
   84MOL   H19818624   7.034   2.271   5.161 -1.4409 -0.9197 -1.9303
   84MOL   H19918625   6.889   2.199   5.225 -0.9990  0.6060  1.5042
   84MOL   C20018626   7.129   2.573   5.272  0.2904  0.8385  0.1238
   84MOL   C20118627   7.104   2.573   5.117 -0.1883  0.5623  0.1548
   84MOL   C20218628   7.215   2.652   5.040 -0.4218 -0.0887  0.5834
   84MOL   O20318629   7.279   2.741   5.089  0.1302 -0.6842  0.6132
   84MOL   C20418630   7.248   2.601   4.901  0.0888  0.4558  0.3832
   84MOL   H20518631   7.061   2.644   5.318 -2.6519 -1.7202 -0.1085
   84MOL   H20618632   7.229   2.613   5.284  0.1304  1.3117 -0.1231
   84MOL   H20718633   7.121   2.470   5.087 -0.5017  0.4300  0.4318
   84MOL   H20818634   7.266   2.685   4.833 -0.6238  0.7329  0.5264
   84MOL   H20918635   7.341   2.546   4.895 -0.6680 -0.9304  1.0606
   84MOL   H21018636   7.169   2.543   4.852  2.7515 -2.2479 -0.8321
   84MOL   C21118637   6.962   2.616   5.081  0.7033  0.1136  0.5664
   84MOL   C21218638   6.926   2.611   4.929  0.2982 -0.1672  0.2770
   84MOL   C21318639   6.888   2.474   4.873 -0.7997 -0.4919  0.0558
   84MOL   O21418640   6.946   2.377   4.916 -0.0541  0.1838 -0.1130
   84MOL   C21518641   6.790   2.474   4.757 -0.4178  0.3469 -0.4706
   84MOL   H21618642   6.884   2.563   5.136  1.3114 -0.1997  1.1246
   84MOL   H21718643   6.961   2.724   5.095  0.0729  0.0328  1.1295
   84MOL   H21818644   7.011   2.654   4.876  0.6972 -1.8976 -0.5089
   84MOL   H21918645   6.834   2.524   4.671  0.4492 -1.8013 -1.3125
   84MOL   H22018646   6.774   2.374   4.718 -0.4097  0.7258 -1.4469
   84MOL   H22118647   6.698   2.522   4.791 -1.5030 -0.4084 -2.3058
   84MOL   H22218648   6.836   2.668   4.905  0.2633 -0.2457  0.2206
   85MOL     C118649   2.267   5.393   1.888 -0.3610  0.5566 -0.2639
   85MOL     C218650   2.112   5.398   1.866  0.1071  0.1459  0.6916
   85MOL     C318651   2.064   5.537   1.858 -1.0351  0.0205  0.0631
   85MOL     O418652   2.050   5.601   1.748  0.2086  0.0622 -0.0827
   85MOL     C518653   2.021   5.607   1.988  0.5859 -0.5361 -0.2164
   85MOL     H618654   2.314   5.488   1.864  0.0462  0.0630 -1.4332
   85MOL     H718655   2.303   5.329   1.808 -0.7110 -2.4119  1.8382
   85MOL     H818656   2.063   5.356   1.953  1.4514 -1.5172  0.6664
   85MOL     H918657   2.013   5.715   1.987  1.6033 -0.4545 -0.5705
   85MOL    H1018658   1.922   5.565   2.005  0.7126 -0.7037  0.1175
   85MOL    H1118659   2.084   5.581   2.074 -0.8088  0.1143  1.0284
   85MOL    H1218660   2.293   5.354   1.987 -0.6069  0.9842 -0.0262
   85MOL    C1318661   2.072   5.315   1.744  0.0068  0.2401 -0.3623
   85MOL    C1418662   2.084   5.162   1.778  0.3495 -0.0805 -0.9903
   85MOL    C1518663   2.128   5.068   1.651  0.0767  0.3084  0.0887
   85MOL    O1618664   2.050   4.989   1.603  0.1771  0.2973 -0.3861
   85MOL    C1718665   2.278   5.075   1.625  0.6833  0.1652  0.1364
   85MOL    H1818666   1.968   5.337   1.719 -0.3963 -1.0137  0.1590
   85MOL    H1918667   2.131   5.345   1.657 -0.4326  2.6428  0.1398
   85MOL    H2018668   2.174   5.164   1.840 -0.7334 -0.6151  0.6182
   85MOL    H2118669   2.308   4.988   1.566  2.1114 -0.4673  1.7504
   85MOL    H2218670   2.309   5.164   1.570  0.0183  0.3937  0.1277
   85MOL    H2318671   2.338   5.079   1.716  1.1867  0.6881 -0.2162
   85MOL    C2418672   1.965   5.108   1.856 -0.2750  0.2131  0.5678
   85MOL    C2518673   1.987   4.965   1.926  0.2004 -0.0830  0.4852
   85MOL    C2618674   2.090   4.969   2.031 -0.0196  0.4549  1.0514
   85MOL    O2718675   2.102   5.062   2.111  0.3510 -0.1653  0.6295
   85MOL    C2818676   2.184   4.858   2.030  0.1524  0.1812 -0.3546
   85MOL    H2918677   1.949   5.181   1.936 -0.2138 -0.1215  0.8830
   85MOL    H3018678   1.879   5.095   1.791  1.0626 -1.6866 -0.8690
   85MOL    H3118679   2.023   4.911   1.838  0.4854  3.2146 -1.5182
   85MOL    H3218680   2.187   4.820   1.928 -3.3072 -0.7757 -0.1515
   85MOL    H3318681   2.284   4.892   2.058 -0.0932  1.7824 -1.3591
   85MOL    H3418682   2.156   4.787   2.108  1.0028  0.8440  0.5708
   85MOL    C3518683   1.852   4.902   1.966 -0.8071  0.1082  0.2174
   85MOL    C3618684   1.795   4.796   1.860 -0.6305  0.0456  0.3488
   85MOL    C3718685   1.899   4.685   1.832 -0.5091 -1.0560 -0.3338
   85MOL    O3818686   1.951   4.621   1.922  0.1051  0.2437 -0.5685
   85MOL    C3918687   1.941   4.662   1.688  0.9315  0.5742  0.5319
   85MOL    H4018688   1.776   4.980   1.968 -0.7568  0.1343  1.2201
   85MOL    H4118689   1.853   4.859   2.066 -4.0195  2.3266  1.2882
   85MOL    H4218690   1.764   4.841   1.766  1.0662  0.8132  0.1462
   85MOL    H4318691   1.944   4.554   1.673 -3.0997  0.3966  0.3919
   85MOL    H4418692   2.042   4.702   1.675  0.9605 -0.0891 -1.5172
   85MOL    H4518693   1.873   4.701   1.611  1.0194  1.2929  0.8180
   85MOL    C4618694   1.666   4.737   1.918  0.0404  0.1990 -0.4704
   85MOL    C4718695   1.571   4.662   1.818  0.6087  0.6612 -0.0440
   85MOL    C4818696   1.611   4.517   1.790 -0.0953 -0.0493 -0.2045
   85MOL    O4918697   1.675   4.478   1.696  0.1200 -0.2968 -0.6319
   85MOL    C5018698   1.560   4.399   1.880 -0.4630 -0.4724 -1.0275
   85MOL    H5118699   1.609   4.804   1.981 -2.5791 -1.0514 -1.4150
   85MOL    H5218700   1.686   4.664   1.996 -0.2394  0.5214 -0.1014
   85MOL    H5318701   1.584   4.713   1.723  0.4410 -1.0837 -1.0180
   85MOL    H5418702   1.584   4.415   1.985 -1.5616  2.2527 -1.1528
   85MOL    H5518703   1.456   4.365   1.879 -0.8758  0.5194  2.2732
   85MOL    H5618704   1.609   4.307   1.846  0.7442  0.6700 -2.4205
   85MOL    C5718705   1.416   4.675   1.852 -0.5603  0.2667 -0.1261
   85MOL    C5818706   1.336   4.749   1.743 -0.1544  0.2230 -0.2929
   85MOL    C5918707   1.334   4.662   1.617 -0.5254 -0.1742  0.8444
   85MOL    O6018708   1.339   4.718   1.507 -0.0077 -0.3897 -0.3929
   85MOL    C6118709   1.305   4.517   1.616 -0.0908  0.1240 -0.7513
   85MOL    H6218710   1.394   4.718   1.950 -0.5758  1.1743 -0.5220
   85MOL    H6318711   1.368   4.578   1.864 -1.3377  0.7634  0.8313
   85MOL    H6418712   1.380   4.847   1.724 -2.1569  0.8754 -1.7565
   85MOL    H6518713   1.399   4.465   1.599  1.7719  3.4629 -1.1514
   85MOL    H6618714   1.259   4.484   1.709  2.4101 -1.7376 -0.1252
   85MOL    H6718715   1.239   4.482   1.537 -3.5109 -0.6583  2.3447
   85MOL    C6818716   1.195   4.788   1.783  0.1307  0.6321  0.4532
   85MOL    C6918717   1.088   4.674   1.829  0.2242  0.2370  1.4318
   85MOL    C7018718   0.997   4.642   1.710  0.2884  0.3641  0.2942
   85MOL    O7118719   1.000   4.529   1.656  0.4917 -0.7371 -0.3861
   85MOL    C7218720   0.903   4.750   1.657 -0.2840  0.3026  0.4541
   85MOL    H7318721   1.208   4.868   1.856  0.5357  1.2351 -0.2729
   85MOL    H7418722   1.161   4.854   1.703  0.1880 -0.1159 -0.1879
   85MOL    H7518723   1.136   4.582   1.863  0.8265 -0.9951 -2.4331
   85MOL    H7618724   0.818   4.757   1.724  0.1606 -1.9091  1.2957
   85MOL    H7718725   0.957   4.845   1.652 -0.5769  0.6039  2.5963
   85MOL    H7818726   0.870   4.725   1.556  0.2363  0.8183  0.1494
   85MOL    C7918727   1.000   4.738   1.941 -0.0707  0.7046 -0.5312
   85MOL    C8018728   0.903   4.643   2.012 -1.0158 -0.4000  0.6838
   85MOL    C8118729   0.833   4.717   2.125 -0.3596  0.6412 -0.0985
   85MOL    O8218730   0.868   4.820   2.176  0.0975 -0.1000  0.0428
   85MOL    C8318731   0.712   4.644   2.181 -0.3362 -0.0106 -0.3771
   85MOL    H8418732   0.933   4.818   1.909 -0.2135  1.7656  2.2706
   85MOL    H8518733   1.070   4.793   2.003  1.7815 -2.9516  0.7814
   85MOL    H8618734   0.822   4.615   1.944 -0.4013 -0.8158  0.1224
   85MOL    H8718735   0.669   4.583   2.102  3.3931 -1.5784 -1.3254
   85MOL    H8818736   0.640   4.715   2.223  0.7329  0.2058  1.1184
   85MOL    H8918737   0.746   4.576   2.259 -0.2621 -1.7985 -1.9372
   85MOL    C9018738   0.967   4.508   2.050  1.0041  0.0198 -0.2267
   85MOL    C9118739   1.099   4.507   2.125  0.0685  0.0654  0.2029
   85MOL    C9218740   1.071   4.528   2.277  0.0930  0.3126  0.0834
   85MOL    O9318741   0.978   4.474   2.339 -0.6274  0.0572  0.5049
   85MOL    C9418742   1.170   4.626   2.346  0.0273 -0.1178  0.0504
   85MOL    H9518743   0.891   4.444   2.093 -2.8185  3.3837 -1.6506
   85MOL    H9618744   0.977   4.450   1.958  3.2838 -2.0578  1.2530
   85MOL    H9718745   1.168   4.583   2.089 -0.4068 -0.9960 -3.1683
   85MOL    H9818746   1.171   4.726   2.302 -2.1212  0.2796  0.8044
   85MOL    H9918747   1.127   4.636   2.446 -3.4561  1.9462 -1.5489
   85MOL   H10018748   1.273   4.591   2.349  0.3620  0.6847 -1.6270
   85MOL   C10118749   1.172   4.372   2.103 -0.6073  0.2751  0.1459
   85MOL   C10218750   1.284   4.328   2.206 -0.1862  0.4086  0.7535
   85MOL   C10318751   1.407   4.420   2.213  0.1539 -0.1971 -0.3972
   85MOL   O10418752   1.421   4.522   2.144  0.6411  0.5168  0.2818
   85MOL   C10518753   1.505   4.391   2.318  0.0315 -0.0056 -0.2823
   85MOL   H10618754   1.108   4.284   2.095 -0.5993  0.3750 -1.3012
   85MOL   H10718755   1.233   4.375   2.013 -2.5046  2.3050 -1.1439
   85MOL   H10818756   1.243   4.320   2.307 -2.9584 -1.2661 -0.4297
   85MOL   H10918757   1.543   4.487   2.352  1.2120 -0.4433 -0.3363
   85MOL   H11018758   1.461   4.341   2.405 -0.0139  2.8235  1.3695
   85MOL   H11118759   1.582   4.321   2.285  2.0520  2.1857 -0.2826
   85MOL   C11218760   1.321   4.176   2.184  0.5419  0.0547 -0.0080
   85MOL   C11318761   1.301   4.089   2.309  0.6564  0.2495 -0.1078
   85MOL   C11418762   1.398   3.973   2.287 -0.5799  0.3787  0.8442
   85MOL   O11518763   1.389   3.888   2.200  0.6397  0.0947  0.8227
   85MOL   C11618764   1.523   3.987   2.368  0.0903 -0.3787 -0.2182
   85MOL   H11718765   1.424   4.181   2.150  0.5257 -2.8188 -0.6338
   85MOL   H11818766   1.270   4.130   2.099  1.1087 -1.3744  0.3980
   85MOL   H11918767   1.340   4.141   2.396 -0.5980  0.2871  0.4283
   85MOL   H12018768   1.601   3.923   2.326  1.1288 -0.1586  1.3282
   85MOL   H12118769   1.570   4.084   2.377 -0.8652  0.0150  0.6936
   85MOL   H12218770   1.495   3.942   2.464 -1.7791  2.9934  0.8975
   85MOL   C12318771   1.157   4.036   2.326  0.3039  0.7755  0.9999
   85MOL   C12418772   1.126   3.953   2.450  0.4627 -0.0157 -0.4126
   85MOL   C12518773   1.119   4.036   2.582  0.5250  0.2313  0.2212
   85MOL   O12618774   1.218   4.084   2.639 -0.1137  0.4812 -0.3869
   85MOL   C12718775   0.978   4.024   2.642 -0.0451 -0.2187 -0.0872
   85MOL   H12818776   1.119   3.985   2.238 -0.5930  1.9088  0.7281
   85MOL   H12918777   1.089   4.121   2.329 -1.2038 -0.3583 -0.3396
   85MOL   H13018778   1.018   3.939   2.441  0.7614 -2.8219 -0.1573
   85MOL   H13118779   0.991   4.025   2.750 -0.1248 -1.1226 -0.0621
   85MOL   H13218780   0.936   3.927   2.615 -1.7499  0.6033 -0.4819
   85MOL   H13318781   0.923   4.110   2.605 -0.3167 -0.8046 -1.0632
   85MOL   C13418782   1.191   3.814   2.459 -0.4838  0.5596  0.1018
   85MOL   C13518783   1.101   3.719   2.545 -0.1729  0.9798  0.0869
   85MOL   C13618784   0.982   3.664   2.469  0.2540  0.3567  0.0340
   85MOL   O13718785   0.874   3.723   2.477  0.4927  0.3739 -0.2999
   85MOL   C13818786   0.997   3.535   2.382 -0.7386 -0.3239  0.8415
   85MOL   H13918787   1.289   3.824   2.506 -0.0464 -0.5562 -0.5470
   85MOL   H14018788   1.196   3.771   2.359 -1.1520  0.4391  0.1208
   85MOL   H14118789   1.057   3.772   2.630 -1.5114 -0.7478  0.4902
   85MOL   H14218790   0.896   3.498   2.361 -0.5530 -0.2328 -0.2481
   85MOL   H14318791   1.053   3.460   2.438  0.9839  0.9011  0.7565
   85MOL   H14418792   1.060   3.553   2.296 -0.3068 -0.6210  1.0946
   85MOL   C14518793   1.188   3.613   2.622  0.0501  0.7057 -0.2230
   85MOL   C14618794   1.247   3.673   2.757 -0.0249  0.5573  0.3673
   85MOL   C14718795   1.145   3.720   2.859 -0.3041  0.4391 -0.7599
   85MOL   O14818796   1.174   3.801   2.945  0.1416 -0.1743  0.1000
   85MOL   C14918797   1.008   3.659   2.856 -0.4637  0.3925  0.5936
   85MOL   H15018798   1.267   3.586   2.552 -1.5583 -0.3921 -1.6461
   85MOL   H15118799   1.132   3.520   2.626 -1.3041  1.4794 -1.0395
   85MOL   H15218800   1.284   3.774   2.737 -2.1056  1.3461  0.3513
   85MOL   H15318801   1.015   3.551   2.863 -0.3400  0.1378 -2.5573
   85MOL   H15418802   0.945   3.700   2.935 -0.7057  1.1433  0.0245
   85MOL   H15518803   0.950   3.689   2.768  2.0187 -2.6601 -2.1968
   85MOL   C15618804   1.332   3.559   2.815 -0.9129  1.1275 -0.2149
   85MOL   C15718805   1.461   3.508   2.738 -0.2521 -0.2072 -0.8150
   85MOL   C15818806   1.533   3.409   2.825 -0.2545 -1.0123  0.1186
   85MOL   O15918807   1.625   3.438   2.901 -0.3839 -0.4905 -0.0265
   85MOL   C16018808   1.477   3.268   2.823  0.0832  0.3070  0.1460
   85MOL   H16118809   1.376   3.584   2.912  1.2738 -1.8855 -0.3684
   85MOL   H16218810   1.269   3.473   2.835 -1.5204  1.8432  1.0291
   85MOL   H16318811   1.414   3.446   2.662 -0.0807  0.6933 -1.6716
   85MOL   H16418812   1.526   3.207   2.747 -2.1743  0.1834 -1.2271
   85MOL   H16518813   1.368   3.270   2.818  0.1301 -1.4010 -2.7478
   85MOL   H16618814   1.499   3.221   2.920  0.3578  1.2549  0.5462
   85MOL   C16718815   1.556   3.618   2.676  0.7031 -0.4192  0.6244
   85MOL   C16818816   1.694   3.578   2.619 -0.0772 -0.3694 -0.3916
   85MOL   C16918817   1.767   3.713   2.573 -0.5384 -0.6801  0.7367
   85MOL   O17018818   1.704   3.822   2.557  0.5947  0.3321 -0.2379
   85MOL   C17118819   1.912   3.707   2.535 -0.0388 -0.6053 -0.3480
   85MOL   H17218820   1.500   3.679   2.605 -0.0845 -0.6838  1.0041
   85MOL   H17318821   1.587   3.691   2.750 -2.3037  2.5801 -0.9345
   85MOL   H17418822   1.751   3.542   2.705  0.4839  0.6489 -0.3277
   85MOL   H17518823   1.964   3.684   2.628 -2.6029 -1.7686  0.8181
   85MOL   H17618824   1.950   3.800   2.492 -0.4216 -0.6764 -0.8413
   85MOL   H17718825   1.934   3.633   2.458 -0.1637  1.8517 -2.8068
   85MOL   C17818826   1.691   3.475   2.499 -0.3822 -0.0880  0.6045
   85MOL   C17918827   1.631   3.523   2.369 -0.2173 -0.2324  0.2467
   85MOL   C18018828   1.490   3.462   2.349  0.3610 -0.0478 -0.2429
   85MOL   O18118829   1.454   3.355   2.397 -0.0658  0.2143 -0.3137
   85MOL   C18218830   1.391   3.529   2.255 -0.3130  0.4662 -0.3259
   85MOL   H18318831   1.786   3.421   2.493 -0.3262  0.1593 -0.8994
   85MOL   H18418832   1.625   3.396   2.535 -0.9932 -0.1903 -0.6960
   85MOL   H18518833   1.623   3.631   2.370 -1.1879 -0.2427 -2.1384
   85MOL   H18618834   1.299   3.471   2.251  1.8999 -3.2189  0.1357
   85MOL   H18718835   1.437   3.527   2.157 -0.3628 -0.7352 -0.3355
   85MOL   H18818836   1.363   3.627   2.293 -2.3385  0.6661 -2.2385
   85MOL   C18918837   1.723   3.499   2.244 -0.2969  0.2763 -0.4872
   85MOL   C19018838   1.744   3.349   2.209  0.1743 -1.0379 -0.0559
   85MOL   C19118839   1.694   3.314   2.064 -0.0729 -0.4317 -0.0466
   85MOL   O19218840   1.762   3.347   1.962 -0.7681  0.0576 -0.4323
   85MOL   C19318841   1.556   3.253   2.051 -0.5618 -0.1887 -0.2084
   85MOL   H19418842   1.669   3.552   2.165 -2.7904 -0.9423  0.3433
   85MOL   H19518843   1.812   3.561   2.259 -0.8782  0.6084  1.7647
   85MOL   H19618844   1.682   3.293   2.279 -1.0271 -1.0449 -1.1023
   85MOL   H19718845   1.485   3.324   2.092 -0.5594 -0.7457  0.7810
   85MOL   H19818846   1.532   3.231   1.947  1.4256  0.3032 -0.7902
   85MOL   H19918847   1.555   3.156   2.100 -0.6611 -0.5057 -0.8241
   85MOL   C20018848   1.883   3.299   2.223 -0.9752 -0.0803  0.5536
   85MOL   C20118849   1.895   3.142   2.235  1.2141  0.4270  0.9951
   85MOL   C20218850   1.850   3.094   2.371  0.3790 -0.2612 -0.0750
   85MOL   O20318851   1.930   3.098   2.468  0.2721  0.2316 -0.3180
   85MOL   C20418852   1.709   3.045   2.399 -0.0854 -0.1250 -0.5638
   85MOL   H20518853   1.947   3.337   2.143  0.4869  0.0175  1.7573
   85MOL   H20618854   1.934   3.343   2.309  3.8188  0.8446 -2.5490
   85MOL   H20718855   1.828   3.101   2.160 -1.0011 -0.0260  3.1596
   85MOL   H20818856   1.712   2.950   2.451 -2.6657  0.5969  1.0179
   85MOL   H20918857   1.656   3.098   2.478  0.2769 -2.2130  1.1030
   85MOL   H21018858   1.667   3.040   2.298 -0.2827  0.5972 -0.5218
   85MOL   C21118859   2.037   3.093   2.195 -0.0613  0.0894 -1.0522
   85MOL   C21218860   2.066   2.942   2.213 -0.7206 -0.2223  0.1809
   85MOL   C21318861   2.198   2.889   2.149  0.1528  0.0369  0.3586
   85MOL   O21418862   2.251   2.937   2.047 -0.5381  0.6404 -0.5890
   85MOL   C21518863   2.255   2.771   2.218  0.0062  0.3002  0.8849
   85MOL   H21618864   2.062   3.123   2.093 -1.7837 -3.0545 -2.4886
   85MOL   H21718865   2.109   3.143   2.260 -2.3380  1.5571  0.3778
   85MOL   H21818866   1.985   2.882   2.171 -1.0933  0.9856 -0.8406
   85MOL   H21918867   2.351   2.749   2.173 -0.6522 -0.9996  0.0717
   85MOL   H22018868   2.262   2.770   2.327  1.2465  2.2699  0.8290
   85MOL   H22118869   2.197   2.685   2.184 -0.2741  0.5752  0.6659
   85MOL   H22218870   2.060   2.919   2.319  1.0865  0.9438  0.5455
   86MOL     C118871   2.776   4.143   6.108 -0.0269  0.6479 -0.0250
   86MOL     C218872   2.828   4.282   6.067  0.1337 -0.1865  0.0353
   86MOL     C318873   2.718   4.384   6.046 -0.5034 -0.1914  0.2010
   86MOL     O418874   2.610   4.370   6.106  0.2242 -0.2706 -0.2270
   86MOL     C518875   2.739   4.513   5.963 -0.4304  0.3470 -0.0818
   86MOL     H618876   2.742   4.085   6.022  1.2114  1.5295 -1.1489
   86MOL     H718877   2.704   4.131   6.188  0.6304  0.5241  0.5592
   86MOL     H818878   2.861   4.259   5.966 -1.1006 -2.0258  0.0282
   86MOL     H918879   2.637   4.551   5.966 -0.3715  0.5847 -0.9826
   86MOL    H1018880   2.811   4.581   6.007 -1.0491  0.1173  1.2965
   86MOL    H1118881   2.774   4.491   5.862 -2.3239 -0.1095 -0.6510
   86MOL    H1218882   2.854   4.080   6.151  0.5136  1.2187 -0.1531
   86MOL    C1318883   2.952   4.342   6.135  0.1361 -0.6563 -0.0479
   86MOL    C1418884   2.944   4.378   6.285  1.0640  0.1644 -0.2115
   86MOL    C1518885   2.892   4.522   6.301 -0.2580  0.1104 -0.2848
   86MOL    O1618886   2.951   4.617   6.256  0.1672  0.3586  0.3777
   86MOL    C1718887   2.756   4.539   6.375 -0.6239 -0.2596  0.1828
   86MOL    H1818888   3.022   4.259   6.126 -1.3849 -1.8913 -0.8185
   86MOL    H1918889   3.004   4.425   6.088  1.3178 -1.8550 -0.9078
   86MOL    H2018890   2.870   4.319   6.340 -0.0922  1.8802  0.1430
   86MOL    H2118891   2.727   4.639   6.406 -2.3144 -0.2438 -1.3578
   86MOL    H2218892   2.680   4.515   6.301 -1.4735  1.9112  0.3154
   86MOL    H2318893   2.756   4.471   6.460  1.5264 -1.2755 -0.5981
   86MOL    C2418894   3.089   4.364   6.330  0.4719  0.4778  0.5569
   86MOL    C2518895   3.128   4.412   6.471  0.1546  0.5854  0.2937
   86MOL    C2618896   3.056   4.322   6.572  0.3197 -0.3435 -0.8727
   86MOL    O2718897   3.045   4.201   6.561 -0.6055 -0.8328 -0.1519
   86MOL    C2818898   3.003   4.392   6.696  0.1430 -0.0567  0.0538
   86MOL    H2918899   3.115   4.259   6.316  0.9180  0.5051  1.1205
   86MOL    H3018900   3.153   4.423   6.264 -0.4500  2.3720  1.3218
   86MOL    H3118901   3.085   4.512   6.478 -2.2066 -0.4977  1.7254
   86MOL    H3218902   3.072   4.470   6.728 -0.8898  0.5744  0.7685
   86MOL    H3318903   2.899   4.421   6.678  0.5242  0.3854 -1.5365
   86MOL    H3418904   3.011   4.326   6.782 -0.1275  1.4036  1.2184
   86MOL    C3518905   3.284   4.421   6.499 -0.7680  0.1089  0.1652
   86MOL    C3618906   3.344   4.552   6.545  0.2421 -0.6970 -0.6241
   86MOL    C3718907   3.297   4.671   6.463  0.2387  0.2577  0.0335
   86MOL    O3818908   3.247   4.771   6.514 -0.1737  0.4943  0.1205
   86MOL    C3918909   3.329   4.661   6.315 -0.3194  0.6016  0.2743
   86MOL    H4018910   3.343   4.408   6.408  0.4033  0.1734  0.8977
   86MOL    H4118911   3.314   4.348   6.575 -0.7556  3.1324  3.1716
   86MOL    H4218912   3.450   4.548   6.517  1.0966  1.3905  2.1563
   86MOL    H4318913   3.433   4.627   6.314 -0.5876 -0.2661  1.0876
   86MOL    H4418914   3.321   4.767   6.291  1.2646  0.3031 -1.7288
   86MOL    H4518915   3.257   4.607   6.253  0.2220  0.4867 -0.2587
   86MOL    C4618916   3.321   4.571   6.694 -0.3999 -0.2511 -0.4903
   86MOL    C4718917   3.413   4.673   6.760 -0.6616 -0.2280  0.5655
   86MOL    C4818918   3.347   4.721   6.891  0.0217  0.2988  0.6366
   86MOL    O4918919   3.357   4.664   6.995 -0.1948  0.4401  0.0466
   86MOL    C5018920   3.255   4.841   6.878  0.3210 -0.6022 -0.3803
   86MOL    H5118921   3.330   4.478   6.751  0.6435 -0.6140 -1.2273
   86MOL    H5218922   3.216   4.600   6.707 -0.1077  0.0938  1.2432
   86MOL    H5318923   3.425   4.760   6.695 -0.7121  1.3916  2.6487
   86MOL    H5418924   3.246   4.895   6.972  2.0365 -2.6771  1.0322
   86MOL    H5518925   3.286   4.911   6.800  2.1259 -0.7639  0.1800
   86MOL    H5618926   3.157   4.805   6.845  0.9971 -0.7462 -2.2800
   86MOL    C5718927   3.552   4.598   6.787  0.7522 -0.1924  0.4132
   86MOL    C5818928   3.654   4.686   6.862  0.0334  0.0319  0.0560
   86MOL    C5918929   3.780   4.604   6.890 -0.0261 -0.1981  0.0419
   86MOL    O6018930   3.874   4.591   6.808 -0.0955 -0.0738 -0.2953
   86MOL    C6118931   3.771   4.512   7.010 -0.6633  0.8718  0.1907
   86MOL    H6218932   3.582   4.544   6.697 -2.2947 -1.1204 -0.0895
   86MOL    H6318933   3.525   4.514   6.852 -1.1139 -0.6354 -0.8988
   86MOL    H6418934   3.612   4.712   6.959  0.3421 -0.3681  0.2981
   86MOL    H6518935   3.843   4.536   7.088 -1.2768  0.3125  0.9385
   86MOL    H6618936   3.672   4.523   7.055 -0.5364  1.8874  0.2338
   86MOL    H6718937   3.783   4.409   6.976  0.5323  0.9625  0.3149
   86MOL    C6818938   3.704   4.814   6.778 -0.8700 -0.0238 -0.7936
   86MOL    C6918939   3.774   4.917   6.854 -0.0725 -0.9824  0.6585
   86MOL    C7018940   3.708   4.973   6.983 -0.1180  0.0784 -0.0839
   86MOL    O7118941   3.613   5.056   6.984 -0.4452  0.0466  0.4558
   86MOL    C7218942   3.730   4.892   7.107 -0.4234 -0.3872  0.0611
   86MOL    H7318943   3.759   4.789   6.687  0.8722  0.4367  0.1210
   86MOL    H7418944   3.627   4.874   6.730  0.5953  1.2940 -1.5533
   86MOL    H7518945   3.870   4.874   6.883 -0.9293 -2.3505  1.5149
   86MOL    H7618946   3.754   4.963   7.186 -1.5203 -0.2010  0.2389
   86MOL    H7718947   3.649   4.822   7.130 -0.9553 -0.3003 -1.5018
   86MOL    H7818948   3.820   4.832   7.097 -0.6610 -0.2302 -3.3612
   86MOL    C7918949   3.806   5.035   6.759 -0.1701  0.6660  0.5346
   86MOL    C8018950   3.883   5.161   6.821 -0.9869  0.1895 -0.1831
   86MOL    C8118951   3.915   5.262   6.706  0.8195  0.2266 -0.0185
   86MOL    O8218952   4.032   5.279   6.671 -0.1630 -0.2917  0.0181
   86MOL    C8318953   3.803   5.336   6.626  0.0001 -0.2488 -0.2944
   86MOL    H8418954   3.710   5.066   6.718  1.0400  1.2709 -1.9443
   86MOL    H8518955   3.875   5.002   6.681  1.3476  0.3105  1.9989
   86MOL    H8618956   3.812   5.224   6.875 -2.0212 -0.7242 -0.4538
   86MOL    H8718957   3.719   5.371   6.686 -0.1230 -1.2753  0.1369
   86MOL    H8818958   3.763   5.262   6.557 -0.2912 -1.0051  0.6804
   86MOL    H8918959   3.840   5.421   6.568 -0.9106  0.8132  0.6447
   86MOL    C9018960   4.011   5.127   6.897 -0.4507  0.3096 -0.4059
   86MOL    C9118961   4.083   5.236   6.984 -0.7805  0.0468  0.2078
   86MOL    C9218962   4.013   5.267   7.116 -0.0805 -0.6350  0.6195
   86MOL    O9318963   3.914   5.200   7.149  0.0186 -0.9079 -0.5772
   86MOL    C9418964   4.065   5.376   7.200  0.1189 -0.1873 -0.0676
   86MOL    H9518965   3.993   5.039   6.958 -2.1385  0.0621 -1.2348
   86MOL    H9618966   4.073   5.074   6.825 -1.0470  0.0160 -0.7041
   86MOL    H9718967   4.063   5.328   6.929 -1.0389 -0.8234 -1.1916
   86MOL    H9818968   4.128   5.451   7.151  1.1060 -0.2446  1.0893
   86MOL    H9918969   3.976   5.430   7.234 -1.0671 -1.9895 -0.2611
   86MOL   H10018970   4.118   5.345   7.290  2.1495  0.8404 -0.8839
   86MOL   C10118971   4.241   5.232   6.993  0.2667 -0.0863 -0.0762
   86MOL   C10218972   4.295   5.114   7.070 -0.1905  0.5000 -0.6614
   86MOL   C10318973   4.298   5.146   7.223  0.8858 -0.5621 -0.4679
   86MOL   O10418974   4.387   5.208   7.277 -0.1866  0.4017  0.4297
   86MOL   C10518975   4.202   5.076   7.310 -0.6446  0.2336  0.3170
   86MOL   H10618976   4.269   5.233   6.887 -2.2986  1.4123 -0.7894
   86MOL   H10718977   4.276   5.327   7.035  2.4629 -1.2830  0.8856
   86MOL   H10818978   4.218   5.037   7.067  0.5027 -0.1979 -0.6831
   86MOL   H10918979   4.103   5.087   7.267 -1.3352  1.0112  2.0829
   86MOL   H11018980   4.219   4.969   7.298 -0.6860  0.0393  1.8890
   86MOL   H11118981   4.195   5.111   7.413 -0.2727 -2.3445  1.2800
   86MOL   C11218982   4.436   5.066   7.016  0.8850  0.0506 -0.0515
   86MOL   C11318983   4.469   4.919   7.051 -0.0038  0.4108 -0.7087
   86MOL   C11418984   4.609   4.908   7.117 -0.2549  0.1810  0.6534
   86MOL   O11518985   4.711   4.945   7.059 -0.0952  0.0006 -0.0244
   86MOL   C11618986   4.621   4.833   7.252 -0.4631 -0.4812  0.1464
   86MOL   H11718987   4.511   5.136   7.051 -0.4517  1.4950 -0.0156
   86MOL   H11818988   4.427   5.073   6.907 -0.3053 -0.3160  0.0161
   86MOL   H11918989   4.415   4.886   7.140  0.3307  0.8711 -0.3277
   86MOL   H12018990   4.719   4.847   7.298 -0.8758  0.0400  0.8774
   86MOL   H12118991   4.543   4.878   7.314  1.2637  0.4829  1.6819
   86MOL   H12218992   4.595   4.727   7.247 -0.3068 -0.5343  0.4315
   86MOL   C12318993   4.450   4.814   6.942 -0.1790  0.5675  0.1297
   86MOL   C12418994   4.302   4.799   6.892 -0.0452 -0.1894 -0.0498
   86MOL   C12518995   4.206   4.759   7.000  0.0320  0.6577  0.1766
   86MOL   O12618996   4.108   4.828   7.027  0.4581  0.3311 -0.1572
   86MOL   C12718997   4.243   4.649   7.100  0.0388  0.4694 -0.2854
   86MOL   H12818998   4.466   4.716   6.989 -0.3938  0.5701  0.2103
   86MOL   H12918999   4.530   4.827   6.869 -1.2916  0.2286 -1.1533
   86MOL   H13019000   4.271   4.896   6.852  1.7052  0.8036  0.9640
   86MOL   H13119001   4.306   4.568   7.064  1.0227  1.2380 -0.3240
   86MOL   H13219002   4.162   4.589   7.143  0.6760 -1.3350 -1.5470
   86MOL   H13319003   4.299   4.687   7.186  2.5886  2.5810 -2.8014
   86MOL   C13419004   4.282   4.697   6.769 -0.6057 -0.3738 -0.8374
   86MOL   C13519005   4.247   4.775   6.639 -0.3532  0.4495 -0.0506
   86MOL   C13619006   4.359   4.862   6.585 -0.3716 -0.1427  0.8380
   86MOL   O13719007   4.342   4.985   6.558  0.2586  0.1446 -0.7209
   86MOL   C13819008   4.500   4.798   6.560  0.4245  0.2806  0.4695
   86MOL   H13919009   4.205   4.623   6.792 -0.6215 -0.0161  0.2929
   86MOL   H14019010   4.374   4.639   6.761 -0.5094 -0.4493  0.7118
   86MOL   H14119011   4.160   4.836   6.664 -2.0141 -1.7213 -0.3979
   86MOL   H14219012   4.512   4.781   6.453  0.4452  1.5487  0.2631
   86MOL   H14319013   4.501   4.703   6.613  2.3417  0.8619  1.4989
   86MOL   H14419014   4.578   4.862   6.601  0.0764  1.7967 -1.1646
   86MOL   C14519015   4.191   4.673   6.531  0.0535  0.2955  0.2358
   86MOL   C14619016   4.138   4.720   6.398  0.0443 -0.1215  1.0077
   86MOL   C14719017   4.157   4.615   6.285 -0.2030  0.1814  0.1986
   86MOL   O14819018   4.063   4.554   6.245  0.3006  0.1092 -0.1884
   86MOL   C14919019   4.287   4.587   6.223 -0.1280 -0.1136  0.3468
   86MOL   H15019020   4.110   4.619   6.581  0.3903 -1.7686 -1.3711
   86MOL   H15119021   4.265   4.596   6.509  2.0728  1.7604  1.7096
   86MOL   H15219022   4.198   4.804   6.363 -1.0286 -0.7195 -2.3733
   86MOL   H15319023   4.327   4.497   6.269 -1.5639 -0.7114  0.4437
   86MOL   H15419024   4.285   4.574   6.115  1.3449 -2.0918  0.5359
   86MOL   H15519025   4.339   4.681   6.244  3.3380 -1.7850 -0.5012
   86MOL   C15619026   3.991   4.772   6.408  0.1560 -0.0585 -0.1499
   86MOL   C15719027   3.950   4.861   6.289  0.0175  0.3530 -0.2453
   86MOL   C15819028   3.933   5.007   6.322  0.1201 -0.9166  0.9057
   86MOL   O15919029   3.823   5.053   6.331 -0.2359  0.1762  0.2006
   86MOL   C16019030   4.054   5.084   6.357  0.5231 -0.7159  0.3538
   86MOL   H16119031   3.926   4.686   6.422  1.6672 -1.3691 -0.9259
   86MOL   H16219032   3.975   4.835   6.495  2.2796  0.2248  0.0736
   86MOL   H16319033   4.038   4.852   6.226  0.9820 -0.0413  1.1280
   86MOL   H16419034   4.075   5.106   6.462  1.4415 -2.2498  0.5025
   86MOL   H16519035   4.052   5.184   6.315  0.7903 -0.5695  0.6799
   86MOL   H16619036   4.147   5.039   6.323  1.5361 -0.8725  3.1543
   86MOL   C16719037   3.828   4.797   6.208  0.1690  0.3985 -0.4054
   86MOL   C16819038   3.859   4.780   6.054 -0.6226 -0.9111 -0.0148
   86MOL   C16919039   3.870   4.914   5.988  0.1385  0.1918 -0.4210
   86MOL   O17019040   3.981   4.975   5.974  0.8147 -0.5267 -0.2812
   86MOL   C17119041   3.751   4.982   5.926 -0.3705 -0.6669  0.4120
   86MOL   H17219042   3.792   4.700   6.242 -1.0028  0.6307 -0.9663
   86MOL   H17319043   3.738   4.859   6.209 -0.3114 -0.2939 -0.7257
   86MOL   H17419044   3.960   4.739   6.044 -0.2652  0.0854 -0.4959
   86MOL   H17519045   3.667   5.001   5.993 -2.2083 -1.5107 -1.6243
   86MOL   H17619046   3.710   4.922   5.845  0.7991 -0.4564 -0.3414
   86MOL   H17719047   3.780   5.082   5.894  1.8446 -1.9465 -1.6677
   86MOL   C17819048   3.757   4.696   5.973  0.0334  0.3409 -0.1170
   86MOL   C17919049   3.741   4.545   6.010 -0.0683  0.3370  0.0517
   86MOL   C18019050   3.836   4.461   5.918 -0.0386 -0.1420  0.5188
   86MOL   O18119051   3.800   4.362   5.849  0.2364  0.3833 -0.7218
   86MOL   C18219052   3.980   4.509   5.892  0.2343  0.3755 -0.6096
   86MOL   H18319053   3.655   4.734   5.980 -0.2145 -0.1826 -0.7480
   86MOL   H18419054   3.775   4.703   5.865 -0.3045  1.6557 -0.1009
   86MOL   H18519055   3.773   4.524   6.112 -0.1481  0.1382  0.0364
   86MOL   H18619056   3.988   4.601   5.833 -1.4031  0.9614  0.0573
   86MOL   H18719057   4.038   4.425   5.856 -1.2021 -1.2261  0.7512
   86MOL   H18819058   4.013   4.529   5.995 -1.0748 -1.1281  0.1168
   86MOL   C18919059   3.595   4.492   6.026 -0.0314 -0.8320  0.0763
   86MOL   C19019060   3.556   4.343   6.068 -0.4224 -0.2797 -0.4784
   86MOL   C19119061   3.613   4.310   6.212 -0.6520  1.1353 -0.3493
   86MOL   O19219062   3.590   4.376   6.315 -0.5671  0.6851 -0.2070
   86MOL   C19319063   3.716   4.201   6.208 -0.9283 -0.1865 -0.2078
   86MOL   H19419064   3.544   4.560   6.093  2.6830 -0.6700  2.0320
   86MOL   H19519065   3.544   4.519   5.934 -0.2903 -1.4092  0.0468
   86MOL   H19619066   3.613   4.277   6.003 -0.4771  1.5234 -2.3909
   86MOL   H19719067   3.760   4.186   6.109 -0.0642 -2.9746  0.5404
   86MOL   H19819068   3.798   4.238   6.270  0.0257 -1.5104 -0.6456
   86MOL   H19919069   3.677   4.109   6.252  0.6727 -1.3086 -1.0478
   86MOL   C20019070   3.405   4.315   6.072 -0.5095 -0.2139 -0.3557
   86MOL   C20119071   3.347   4.245   5.954  0.2411  0.1293 -0.1258
   86MOL   C20219072   3.396   4.095   5.942  0.5833 -0.4406 -0.1907
   86MOL   O20319073   3.516   4.069   5.918  0.4515 -0.1866  0.2752
   86MOL   C20419074   3.292   3.980   5.944 -0.9930  0.7645  0.3618
   86MOL   H20519075   3.373   4.253   6.156 -1.5426  0.9583  0.1118
   86MOL   H20619076   3.355   4.407   6.098  0.3021  0.3267 -0.6819
   86MOL   H20719077   3.239   4.243   5.971  0.3741 -0.5258  0.6487
   86MOL   H20819078   3.297   3.908   5.861  1.0621 -1.3703  2.2552
   86MOL   H20919079   3.306   3.928   6.039  0.6335  1.1790  0.3765
   86MOL   H21019080   3.193   4.025   5.952 -1.1962  0.4340 -0.2183
   86MOL   C21119081   3.375   4.308   5.816  0.2317 -0.9782 -0.6037
   86MOL   C21219082   3.292   4.253   5.699 -0.2480 -0.8727 -0.4351
   86MOL   C21319083   3.156   4.313   5.678 -0.2897  0.1834 -0.7634
   86MOL   O21419084   3.077   4.312   5.768 -0.0791  0.1791  0.0050
   86MOL   C21519085   3.125   4.383   5.548 -0.6913 -0.2009 -0.1311
   86MOL   H21619086   3.341   4.411   5.825 -2.6893 -1.7336 -1.9753
   86MOL   H21719087   3.482   4.319   5.798  0.0898 -0.3962 -1.1064
   86MOL   H21819088   3.289   4.144   5.693 -2.5855 -0.8749  0.1876
   86MOL   H21919089   3.143   4.490   5.563  0.2174 -0.2470 -0.8815
   86MOL   H22019090   3.189   4.349   5.467  0.7867 -0.3470  1.0821
   86MOL   H22119091   3.020   4.377   5.519 -0.7382 -0.5844  0.1233
   86MOL   H22219092   3.354   4.275   5.613  1.2031  1.1047  1.0942
   87MOL     C119093   0.653   1.295   6.645 -0.4119  0.0020 -0.0157
   87MOL     C219094   0.773   1.393   6.655 -0.7498  0.3716 -0.2940
   87MOL     C319095   0.883   1.374   6.548  0.4470  0.3409 -0.7673
   87MOL     O419096   1.002   1.356   6.573 -0.3721  0.0867 -0.3043
   87MOL     C519097   0.837   1.377   6.402 -0.0816  0.3525 -0.3529
   87MOL     H619098   0.600   1.284   6.550 -0.9388  1.2709  0.1191
   87MOL     H719099   0.573   1.334   6.708  0.0336 -1.3470  1.4167
   87MOL     H819100   0.810   1.382   6.757 -1.3780  0.7389 -0.0226
   87MOL     H919101   0.792   1.279   6.386 -0.4422  0.9677 -3.4200
   87MOL    H1019102   0.758   1.451   6.391 -1.3427 -1.0334 -0.7981
   87MOL    H1119103   0.911   1.391   6.322 -0.3723  0.5335 -0.5903
   87MOL    H1219104   0.692   1.198   6.675  0.2646 -0.0094 -0.9081
   87MOL    C1319105   0.711   1.534   6.646  0.0016 -0.4460 -0.2945
   87MOL    C1419106   0.799   1.650   6.678  0.1535 -0.1602 -0.8175
   87MOL    C1519107   0.813   1.650   6.831 -0.2555 -0.1216  0.2784
   87MOL    O1619108   0.736   1.713   6.900  0.2933 -0.1299  0.7153
   87MOL    C1719109   0.924   1.559   6.893  0.0878 -0.2230  0.5145
   87MOL    H1819110   0.671   1.540   6.545  1.6017  3.1680 -0.8007
   87MOL    H1919111   0.627   1.544   6.715  0.4231 -1.5112  0.3868
   87MOL    H2019112   0.899   1.621   6.645  0.2831  2.1409 -2.5054
   87MOL    H2119113   0.880   1.486   6.960 -1.5498  0.3820  0.1180
   87MOL    H2219114   0.983   1.507   6.817 -1.8545 -1.2893 -0.2868
   87MOL    H2319115   0.996   1.616   6.952  2.6812 -2.3857 -0.4356
   87MOL    C2419116   0.758   1.787   6.605  0.0840  0.2829 -0.4084
   87MOL    C2519117   0.613   1.840   6.612  1.1338 -0.2835 -0.2344
   87MOL    C2619118   0.621   1.988   6.618 -0.1277 -0.6207  0.6504
   87MOL    O2719119   0.645   2.052   6.515  0.0077  0.4347 -0.2974
   87MOL    C2819120   0.587   2.054   6.752 -0.3455  0.6557 -0.6740
   87MOL    H2919121   0.822   1.870   6.635  1.2993 -0.6685 -0.3276
   87MOL    H3019122   0.787   1.773   6.501  0.8773 -0.7343 -0.0580
   87MOL    H3119123   0.559   1.803   6.699  1.9348 -1.8083 -0.3652
   87MOL    H3219124   0.673   2.062   6.818 -0.5949  0.6144 -0.3461
   87MOL    H3319125   0.570   2.159   6.726  1.1843  1.1050  0.1133
   87MOL    H3419126   0.504   2.008   6.807  0.4246 -0.2471 -0.2599
   87MOL    C3519127   0.528   1.796   6.492  0.2752 -0.8905 -0.9579
   87MOL    C3619128   0.388   1.748   6.528  0.1815 -0.6555  0.0837
   87MOL    C3719129   0.287   1.854   6.567  0.0670 -0.6175  0.0409
   87MOL    O3819130   0.246   1.863   6.684  0.5848  0.0280  0.4966
   87MOL    C3919131   0.262   1.956   6.455  0.1600 -0.2741 -0.3888
   87MOL    H4019132   0.580   1.723   6.431  0.3455 -0.6503 -1.1882
   87MOL    H4119133   0.517   1.875   6.417  0.7085 -1.3340 -1.4898
   87MOL    H4219134   0.400   1.680   6.613  1.7750 -1.2186 -0.5796
   87MOL    H4319135   0.343   2.026   6.478  1.9012 -1.4660 -2.7112
   87MOL    H4419136   0.177   2.019   6.482  0.6877  1.0140 -1.6454
   87MOL    H4519137   0.266   1.927   6.350  3.4631 -0.1464 -0.3496
   87MOL    C4619138   0.325   1.657   6.416 -0.1706 -0.6197  0.4817
   87MOL    C4719139   0.193   1.582   6.458  0.2402  0.3219 -0.1579
   87MOL    C4819140   0.058   1.638   6.401 -0.8508 -1.1339  0.6525
   87MOL    O4919141   0.031   1.620   6.288 -0.6302 -0.1757 -0.3882
   87MOL    C5019142   7.819   1.703   6.501 -0.5365  0.9159 -0.0137
   87MOL    H5119143   0.404   1.589   6.383 -0.3010 -1.1072  1.1476
   87MOL    H5219144   0.286   1.711   6.331 -2.4025 -0.4537  1.5768
   87MOL    H5319145   0.197   1.584   6.567  1.0132 -1.3359 -0.1423
   87MOL    H5419146   7.839   1.648   6.593  1.3035  1.1003 -0.2801
   87MOL    H5519147   7.832   1.808   6.530 -0.0937  0.7446  0.4161
   87MOL    H5619148   7.718   1.691   6.464 -0.5884  0.9539  0.1163
   87MOL    C5719149   0.199   1.432   6.421 -0.6012  0.6732 -1.0836
   87MOL    C5819150   0.163   1.337   6.538 -0.6411  0.4669 -0.4784
   87MOL    C5919151   0.014   1.350   6.567  0.7804  0.7336  0.6812
   87MOL    O6019152   7.789   1.335   6.480 -0.3089  0.5286  0.6214
   87MOL    C6119153   7.826   1.368   6.709  0.2231 -0.1427  0.8943
   87MOL    H6219154   0.303   1.402   6.407 -0.3863 -0.1220  1.8543
   87MOL    H6319155   0.143   1.409   6.331  1.7686  0.8938 -2.6671
   87MOL    H6419156   0.215   1.364   6.630  0.0131  2.2640 -1.3582
   87MOL    H6519157   7.807   1.278   6.767 -1.6249  0.8019  1.8013
   87MOL    H6619158   0.052   1.412   6.763  0.8611 -0.1438 -0.0767
   87MOL    H6719159   7.734   1.426   6.711 -0.5182 -1.3194  2.0383
   87MOL    C6819160   0.206   1.188   6.521 -0.0995  0.0502  0.1047
   87MOL    C6919161   0.189   1.104   6.649 -0.8236 -0.0103 -0.0277
   87MOL    C7019162   0.328   1.095   6.717  0.0783 -0.6936 -0.0959
   87MOL    O7119163   0.425   1.070   6.650 -0.7089 -0.4131  0.2385
   87MOL    C7219164   0.352   1.128   6.864  0.4952 -0.1310 -0.6735
   87MOL    H7319165   0.154   1.152   6.432  2.5777 -0.6825 -1.2101
   87MOL    H7419166   0.311   1.192   6.493  1.2138 -1.1724  4.5476
   87MOL    H7519167   0.119   1.149   6.719 -1.6408 -1.3058  0.0126
   87MOL    H7619168   0.259   1.110   6.918  0.4384  2.8342  0.2819
   87MOL    H7719169   0.434   1.075   6.912 -0.2816 -0.7842 -0.0391
   87MOL    H7819170   0.375   1.234   6.873 -0.7733  0.1564 -0.6413
   87MOL    C7919171   0.134   0.971   6.611  0.4735  0.1803 -0.1810
   87MOL    C8019172   0.109   0.868   6.726  0.2456  0.8218  0.7615
   87MOL    C8119173   0.110   0.725   6.675 -0.7013 -0.1519  0.3768
   87MOL    O8219174   0.017   0.655   6.657 -0.1346  0.3708  0.1641
   87MOL    C8319175   0.244   0.663   6.631 -0.0201 -0.0452 -0.2789
   87MOL    H8419176   0.195   0.927   6.533 -0.3870 -0.5722 -0.4336
   87MOL    H8519177   0.038   0.991   6.564  1.8909  2.8290 -2.0768
   87MOL    H8619178   0.190   0.872   6.800  1.6357  2.5715 -0.8088
   87MOL    H8719179   0.286   0.614   6.718  1.0268  0.8654 -0.2526
   87MOL    H8819180   0.312   0.746   6.611 -1.8615  1.3784 -0.7943
   87MOL    H8919181   0.235   0.590   6.550  0.2528 -0.8907  0.4497
   87MOL    C9019182   7.844   0.896   6.815  0.8011  0.7345  0.5493
   87MOL    C9119183   7.839   0.833   6.951 -0.0561  0.3572 -0.8889
   87MOL    C9219184   0.084   0.901   7.050  0.1694 -0.6740 -0.2526
   87MOL    O9319185   0.069   1.012   7.097  0.0776 -0.3510 -0.2363
   87MOL    C9419186   0.209   0.817   7.074  0.2273 -0.7437 -0.2122
   87MOL    H9519187   7.840   1.004   6.834 -3.6025  0.9522 -0.8761
   87MOL    H9619188   7.750   0.876   6.764  1.6613 -1.3381 -0.2647
   87MOL    H9719189   0.009   0.729   6.938 -0.5222  0.3323 -1.7103
   87MOL    H9819190   0.289   0.891   7.076  0.1953 -0.7441  1.8098
   87MOL    H9919191   0.209   0.766   7.171 -1.8469  0.7481  0.6126
   87MOL   H10019192   0.225   0.740   6.999  0.4557 -2.0819  1.1729
   87MOL   C10119193   7.689   0.848   7.005 -1.0074 -0.2117 -0.2190
   87MOL   C10219194   7.660   0.823   7.158  0.0835  0.1181  1.5328
   87MOL   C10319195   7.692   0.681   7.202 -0.7826 -0.7812 -0.2312
   87MOL   O10419196   7.804   0.660   7.246 -0.5326  0.0894  0.5194
   87MOL   C10519197   7.593   0.566   7.192 -0.3295  0.1265 -0.0438
   87MOL   H10619198   7.647   0.948   6.989 -0.3236  0.4066  1.7863
   87MOL   H10719199   7.628   0.786   6.939 -1.5568 -1.7506  1.6855
   87MOL   H10819200   7.731   0.886   7.211  0.4271  1.6009 -0.6123
   87MOL   H10919201   7.648   0.472   7.190 -0.1163  0.2606 -0.5921
   87MOL   H11019202   7.523   0.566   7.276 -0.1425 -5.6242  0.3061
   87MOL   H11119203   7.538   0.560   7.098 -1.4133 -0.8645  0.6475
   87MOL   C11219204   7.523   0.871   7.212 -0.3683  0.2326  0.4245
   87MOL   C11319205   7.393   0.834   7.133  1.2887 -0.6449  0.0030
   87MOL   C11419206   7.370   0.914   7.006 -0.9906 -0.3273 -0.6930
   87MOL   O11519207   7.385   1.031   7.007  0.3074 -0.0542  0.3895
   87MOL   C11619208   7.326   0.839   6.883  0.2230  0.0784  1.0373
   87MOL   H11719209   7.524   0.980   7.218  0.6901  0.2295  0.4423
   87MOL   H11819210   7.511   0.835   7.314  1.9264 -1.1336  0.2482
   87MOL   H11919211   7.394   0.727   7.110  0.4728 -0.0695 -2.8441
   87MOL   H12019212   7.273   0.914   6.824 -0.4816 -0.9006  0.4192
   87MOL   H12119213   7.411   0.811   6.820  1.1757 -1.1127  2.8089
   87MOL   H12219214   7.257   0.759   6.910 -0.4170  0.7983  1.5505
   87MOL   C12319215   7.262   0.833   7.224  0.1709  0.3809 -0.6520
   87MOL   C12419216   7.224   0.979   7.274  0.3269  0.1844 -0.0890
   87MOL   C12519217   7.303   1.038   7.390  0.2241  0.1715  0.6571
   87MOL   O12619218   7.349   0.965   7.478  0.0960  0.0194  0.3713
   87MOL   C12719219   7.332   1.190   7.402  0.9332  0.1231  0.1355
   87MOL   H12819220   7.276   0.791   7.324 -2.4142 -0.9372 -0.8113
   87MOL   H12919221   7.187   0.783   7.163 -1.0073  4.7205 -2.9730
   87MOL   H13019222   7.245   1.038   7.185  1.9681 -1.1516 -0.6063
   87MOL   H13119223   7.316   1.210   7.508 -0.0306  1.9722 -0.3371
   87MOL   H13219224   7.279   1.259   7.336  1.3636  1.1234  0.8170
   87MOL   H13319225   7.437   1.202   7.375  0.9987  0.0568  0.3563
   87MOL   C13419226   7.073   0.985   7.319  0.2638 -0.3089  0.1553
   87MOL   C13519227   6.969   1.010   7.206 -0.3388  0.2186  0.4293
   87MOL   C13619228   6.917   0.884   7.143  0.0771 -0.8203 -0.1383
   87MOL   O13719229   6.862   0.800   7.214  0.4076 -0.2734 -0.4049
   87MOL   C13819230   6.948   0.869   6.992  0.6469 -0.3768 -0.1863
   87MOL   H13919231   7.070   1.063   7.394  0.0462  0.3648 -0.5460
   87MOL   H14019232   7.048   0.897   7.378 -2.0125 -0.1161 -0.4663
   87MOL   H14119233   7.023   1.051   7.120  0.0189  0.3673  0.7240
   87MOL   H14219234   6.920   0.767   6.967  0.3110 -0.0539 -1.1268
   87MOL   H14319235   7.054   0.882   6.973  0.2107  2.7496 -0.6855
   87MOL   H14419236   6.886   0.933   6.930  1.5930  1.4603  0.7061
   87MOL   C14519237   6.840   1.091   7.251 -0.0895 -0.4506  0.4697
   87MOL   C14619238   6.749   1.136   7.135  0.3965  1.1785  0.4242
   87MOL   C14719239   6.623   1.196   7.191 -0.0819 -0.2811 -0.2654
   87MOL   O14819240   6.516   1.143   7.166  0.4619 -0.2781  1.0329
   87MOL   C14919241   6.640   1.320   7.285  0.1914 -0.5632  0.9102
   87MOL   H15019242   6.894   1.175   7.294 -0.4140  0.3381 -0.6486
   87MOL   H15119243   6.792   1.044   7.337 -2.2262 -1.8025 -1.4192
   87MOL   H15219244   6.704   1.057   7.075  1.6890  1.0376 -0.3778
   87MOL   H15319245   6.606   1.289   7.384 -0.9026 -2.0156  0.1141
   87MOL   H15419246   6.745   1.345   7.293 -0.0081  0.3424  0.7274
   87MOL   H15519247   6.589   1.409   7.249 -0.3158 -1.6881 -1.3099
   87MOL   C15619248   6.809   1.235   7.033 -0.3929 -0.0204 -0.2569
   87MOL   C15719249   6.721   1.281   6.913  0.6171 -0.4558 -0.3555
   87MOL   C15819250   6.674   1.161   6.826  0.4634  0.0351  0.1097
   87MOL   O15919251   6.756   1.103   6.753  0.0232 -0.7374 -0.0856
   87MOL   C16019252   6.532   1.120   6.833  0.1009 -0.4699  0.2353
   87MOL   H16119253   6.857   1.321   7.079 -0.5852 -0.1613  0.2083
   87MOL   H16219254   6.890   1.179   6.986 -0.5089 -1.7819  1.5783
   87MOL   H16319255   6.627   1.322   6.948  1.6370  0.5826  1.2600
   87MOL   H16419256   6.484   1.188   6.904 -2.0926 -1.2674 -0.4528
   87MOL   H16519257   6.517   1.021   6.875  0.9429 -0.5758  0.3001
   87MOL   H16619258   6.482   1.129   6.737 -1.1618 -0.8724  0.8439
   87MOL   C16719259   6.802   1.387   6.833  0.2958 -0.0940 -0.4873
   87MOL   C16819260   6.845   1.521   6.891  0.6641 -0.4516  0.0980
   87MOL   C16919261   6.728   1.611   6.908 -0.3292 -0.2077 -0.6643
   87MOL   O17019262   6.644   1.621   6.824  0.1894 -0.0890  0.2984
   87MOL   C17119263   6.716   1.693   7.039  0.0321  0.7393  0.0023
   87MOL   H17219264   6.896   1.338   6.808 -0.2223 -1.8740  0.9713
   87MOL   H17319265   6.746   1.405   6.741 -1.0655  0.2427  0.3846
   87MOL   H17419266   6.878   1.501   6.993 -1.1046 -0.5492  0.6808
   87MOL   H17519267   6.677   1.627   7.118 -1.6608  1.4576 -0.2093
   87MOL   H17619268   6.644   1.774   7.033  0.2444  0.8397 -1.1199
   87MOL   H17719269   6.809   1.731   7.080 -0.0068 -0.8323  1.6759
   87MOL   C17819270   6.964   1.594   6.819 -0.1573 -0.3369 -0.0465
   87MOL   C17919271   7.084   1.617   6.911  0.1489  0.8815  0.2263
   87MOL   C18019272   7.188   1.716   6.852 -1.0546  0.4188 -0.2486
   87MOL   O18119273   7.254   1.780   6.928 -0.0745 -0.0730 -0.0199
   87MOL   C18219274   7.215   1.734   6.703  0.1507  0.0076 -0.7006
   87MOL   H18319275   6.992   1.532   6.734  0.4853 -0.7902  0.4946
   87MOL   H18419276   6.938   1.691   6.776 -1.8580 -1.1558 -0.9222
   87MOL   H18519277   7.053   1.667   7.003  0.5577 -0.7401  1.2570
   87MOL   H18619278   7.131   1.718   6.635  0.7906 -0.8534 -1.3019
   87MOL   H18719279   7.294   1.668   6.667 -0.0306 -2.5443  3.2920
   87MOL   H18819280   7.257   1.834   6.703  1.7127 -0.5844  2.2466
   87MOL   C18919281   7.154   1.480   6.946 -0.2623 -0.6620 -0.1235
   87MOL   C19019282   7.257   1.482   7.056 -0.7900  0.1618 -0.5518
   87MOL   C19119283   7.194   1.519   7.193 -0.0472 -0.4663 -0.2891
   87MOL   O19219284   7.125   1.445   7.262  0.2507  0.0467  0.2829
   87MOL   C19319285   7.225   1.660   7.241  1.2017  0.1327 -0.0349
   87MOL   H19419286   7.084   1.405   6.984 -0.2145 -1.0577 -0.8080
   87MOL   H19519287   7.191   1.440   6.851 -1.9272  1.5162 -1.7237
   87MOL   H19619288   7.317   1.569   7.027 -0.2970 -0.9067 -2.7897
   87MOL   H19719289   7.333   1.680   7.242  1.2198 -0.0156  1.5998
   87MOL   H19819290   7.166   1.731   7.183  0.3810 -0.4365  0.0908
   87MOL   H19919291   7.178   1.669   7.338 -0.7353  0.5989 -0.9996
   87MOL   C20019292   7.362   1.370   7.062 -0.0824  0.4500 -0.5751
   87MOL   C20119293   7.501   1.402   7.121 -0.3517  0.5193 -0.3019
   87MOL   C20219294   7.562   1.519   7.048  0.0941  0.7945  0.3610
   87MOL   O20319295   7.607   1.506   6.928  0.0125 -0.3685 -0.6144
   87MOL   C20419296   7.579   1.648   7.119 -0.2572 -0.2530  0.2126
   87MOL   H20519297   7.318   1.291   7.123 -1.3951 -1.5055 -3.9355
   87MOL   H20619298   7.374   1.313   6.970 -2.5170  1.4590 -1.5577
   87MOL   H20719299   7.488   1.435   7.224 -0.4959  1.8632 -0.7418
   87MOL   H20819300   7.505   1.725   7.097  0.4550  0.8603  1.6111
   87MOL   H20919301   7.592   1.645   7.228 -2.2680  0.4566  0.5068
   87MOL   H21019302   7.677   1.681   7.086  1.1285 -2.6521  1.8074
   87MOL   C21119303   7.598   1.284   7.121  0.9161 -0.3774  0.2817
   87MOL   C21219304   7.723   1.312   7.202 -0.4956 -0.1032  0.4868
   87MOL   C21319305   7.693   1.289   7.351  0.0374 -0.2241 -0.4148
   87MOL   O21419306   7.614   1.358   7.413 -0.2633 -0.0089 -0.4762
   87MOL   C21519307   7.735   1.154   7.410  0.1781 -0.2847  0.5062
   87MOL   H21619308   7.545   1.200   7.166  1.3220 -1.3394 -1.0230
   87MOL   H21719309   7.621   1.268   7.016 -2.0004 -1.4328 -0.2321
   87MOL   H21819310   7.761   1.412   7.179 -0.8078 -0.4256 -1.5465
   87MOL   H21919311   7.758   1.077   7.337  1.1590 -0.2052  0.7143
   87MOL   H22019312   7.829   1.162   7.465  0.7255  1.7033 -0.6479
   87MOL   H22119313   7.667   1.109   7.482 -0.7059  0.0027 -0.1495
   87MOL   H22219314   7.794   1.237   7.169 -0.5241 -0.3056  0.8846
   88MOL     C119315   6.253   2.838   7.480 -0.1488 -0.5204  0.5984
   88MOL     C219316   6.407   2.835   7.480 -0.1865  0.1692  0.0674
   88MOL     C319317   6.453   2.932   7.590  0.6300 -0.1163 -0.4590
   88MOL     O419318   6.450   2.905   7.708  0.2742  0.8521 -0.1749
   88MOL     C519319   6.494   3.075   7.553  1.0435  0.1176  0.1489
   88MOL     H619320   6.231   2.865   7.583  1.6693  1.8901  0.4130
   88MOL     H719321   6.192   2.757   7.441 -0.9879 -0.1802  1.1895
   88MOL     H819322   6.440   2.881   7.386 -0.7724  0.6718  0.1060
   88MOL     H919323   6.443   3.111   7.463 -0.5250  0.8373  1.3055
   88MOL    H1019324   6.469   3.139   7.638 -0.2093  0.4815 -0.4764
   88MOL    H1119325   6.601   3.072   7.534  0.6268  0.4951 -2.5026
   88MOL    H1219326   6.218   2.923   7.422  0.5875 -0.2327  0.5687
   88MOL    C1319327   6.476   2.690   7.493  0.5197 -0.1249 -0.5533
   88MOL    C1419328   6.629   2.689   7.478 -0.1698  0.3819 -0.1199
   88MOL    C1519329   6.669   2.734   7.336  0.0367 -0.0589 -1.1961
   88MOL    O1619330   6.694   2.643   7.256 -0.4976  0.1797 -0.0931
   88MOL    C1719331   6.685   2.880   7.306 -0.2618 -0.6782 -0.1292
   88MOL    H1819332   6.443   2.640   7.584 -0.9678 -0.9386 -1.5124
   88MOL    H1919333   6.443   2.627   7.410 -0.5283  0.2524 -0.4286
   88MOL    H2019334   6.664   2.756   7.557 -2.3095 -2.2210  3.2106
   88MOL    H2119335   6.641   2.945   7.381 -0.3218  0.7923 -1.4344
   88MOL    H2219336   6.790   2.906   7.324  0.0209 -2.0593  0.3358
   88MOL    H2319337   6.672   2.907   7.201  0.4965 -0.1552 -0.0980
   88MOL    C2419338   6.666   2.537   7.514  0.2613  0.5775 -0.1906
   88MOL    C2519339   6.819   2.518   7.543 -0.8566 -0.5177 -0.4465
   88MOL    C2619340   6.871   2.586   7.672 -0.0083 -0.1362  0.2690
   88MOL    O2719341   6.802   2.646   7.752 -0.2210 -0.6982  0.0716
   88MOL    C2819342   7.015   2.580   7.699  1.2131  0.0048 -0.5537
   88MOL    H2919343   6.611   2.512   7.605  1.0213  1.0615  0.4128
   88MOL    H3019344   6.624   2.466   7.443 -0.5384  1.0845 -0.2255
   88MOL    H3119345   6.875   2.571   7.466 -1.4322  0.8638  0.0845
   88MOL    H3219346   7.076   2.582   7.609 -0.7650 -1.2604 -1.9709
   88MOL    H3319347   7.054   2.668   7.749  1.1008 -0.1029 -0.2744
   88MOL    H3419348   7.045   2.498   7.764 -0.6978 -1.6864 -1.7655
   88MOL    C3519349   6.868   2.368   7.542  0.6565 -0.1382 -0.5968
   88MOL    C3619350   6.877   2.290   7.407 -0.0762  0.2883 -0.3910
   88MOL    C3719351   6.989   2.348   7.319  0.1346  0.2382  0.1615
   88MOL    O3819352   7.113   2.337   7.350  0.0603  0.4532  0.3234
   88MOL    C3919353   6.952   2.410   7.188 -0.2080  0.3877 -0.1312
   88MOL    H4019354   6.797   2.312   7.603  1.5396 -1.5683 -0.8420
   88MOL    H4119355   6.958   2.347   7.601  2.0058 -0.5435 -2.7319
   88MOL    H4219356   6.780   2.302   7.359  0.2871 -1.3005 -1.5515
   88MOL    H4319357   6.846   2.435   7.192  0.0537  1.6219 -0.8184
   88MOL    H4419358   6.970   2.334   7.112  0.1008 -1.1217  1.4261
   88MOL    H4519359   6.999   2.506   7.166  0.4875  0.1383  0.2525
   88MOL    C4619360   6.901   2.135   7.441 -0.3126  0.4853 -0.4329
   88MOL    C4719361   6.872   2.047   7.320 -0.0496  0.4725 -0.7828
   88MOL    C4819362   6.982   2.035   7.214  0.5067 -0.0295  0.5871
   88MOL    O4919363   6.956   2.057   7.095 -0.4592  0.4752  0.4493
   88MOL    C5019364   7.121   1.997   7.257  0.5077  0.4751 -0.6147
   88MOL    H5119365   6.844   2.102   7.527  3.9989  0.2113  2.4470
   88MOL    H5219366   7.003   2.106   7.467 -0.7461 -0.3629  0.3287
   88MOL    H5319367   6.782   2.079   7.267  0.5820  0.4327 -1.8824
   88MOL    H5419368   7.154   1.958   7.161 -1.8035 -1.3287 -0.7235
   88MOL    H5519369   7.180   2.080   7.295  0.7791 -0.3443  0.8126
   88MOL    H5619370   7.125   1.913   7.327 -1.5388  1.9862  1.3754
   88MOL    C5719371   6.834   1.909   7.378  1.2029 -0.1519 -0.1288
   88MOL    C5819372   6.685   1.902   7.422 -0.1790  0.3943  0.6008
   88MOL    C5919373   6.625   1.766   7.380 -0.6193  0.3008 -0.9584
   88MOL    O6019374   6.697   1.665   7.388  0.3881 -0.1726 -0.1791
   88MOL    C6119375   6.473   1.759   7.325  0.2928 -0.8464  0.4135
   88MOL    H6219376   6.897   1.880   7.462  0.6229 -1.7909 -0.2211
   88MOL    H6319377   6.864   1.824   7.316  2.0618 -1.3884  1.9264
   88MOL    H6419378   6.635   1.974   7.357  0.2601 -0.2579 -0.4839
   88MOL    H6519379   6.445   1.856   7.282  2.5322  0.4165  1.6684
   88MOL    H6619380   6.460   1.679   7.253  0.4313  1.2911 -2.0945
   88MOL    H6719381   6.407   1.741   7.410  0.1605 -0.6804  0.3451
   88MOL    C6819382   6.654   1.922   7.573  0.0955 -0.0296  0.3648
   88MOL    C6919383   6.513   1.983   7.604 -0.0979  0.1452 -1.1466
   88MOL    C7019384   6.487   2.100   7.516 -0.1079 -0.2767  0.2164
   88MOL    O7119385   6.568   2.195   7.504  0.0058  0.2968 -0.2301
   88MOL    C7219386   6.357   2.101   7.443  0.5876 -0.5030 -0.1688
   88MOL    H7319387   6.667   1.823   7.617  1.6920  1.0004  2.2633
   88MOL    H7419388   6.724   1.984   7.629 -0.7284 -0.7449  2.2542
   88MOL    H7519389   6.433   1.916   7.571  0.3017  0.2241 -2.2697
   88MOL    H7619390   6.364   2.050   7.347 -1.9540  0.6609 -1.0136
   88MOL    H7719391   6.275   2.069   7.508 -1.2840  2.6110 -0.9283
   88MOL    H7819392   6.340   2.203   7.410  1.5467 -1.1676 -2.8756
   88MOL    C7919393   6.495   2.021   7.756 -0.0394  0.5191 -0.1673
   88MOL    C8019394   6.420   1.917   7.850  0.7102 -0.1331  0.4737
   88MOL    C8119395   6.513   1.797   0.026  0.2230  0.4124 -0.0762
   88MOL    O8219396   6.471   1.682   0.007 -0.2263  0.8164 -0.1247
   88MOL    C8319397   6.648   1.822   0.085 -0.1719  0.3551  0.2178
   88MOL    H8419398   6.440   2.114   7.770 -0.3791  0.1422  1.0769
   88MOL    H8519399   6.593   2.044   7.799  1.2236  1.3551 -3.3947
   88MOL    H8619400   6.403   1.982   0.077  1.2616  2.3301 -1.2471
   88MOL    H8719401   6.727   1.828   0.010 -0.5131 -0.9876 -0.2532
   88MOL    H8819402   6.668   1.736   0.148 -1.1768  1.9049  2.7169
   88MOL    H8919403   6.635   1.908   0.151 -1.6919  2.3917 -2.6264
   88MOL    C9019404   6.281   1.871   7.788 -0.2946  0.1081 -0.3512
   88MOL    C9119405   6.173   1.815   0.035  1.0083 -0.8025 -1.3385
   88MOL    C9219406   6.126   1.926   0.132 -0.6687 -0.4640 -0.1968
   88MOL    O9319407   6.019   1.990   0.109  0.3618  0.0282  0.3866
   88MOL    C9419408   6.205   1.975   0.249 -0.0996 -0.4665  0.1248
   88MOL    H9519409   6.235   1.942   7.720 -1.2887 -0.2703 -0.0860
   88MOL    H9619410   6.314   1.785   7.730 -0.1586 -0.6555  0.8363
   88MOL    H9719411   6.214   1.741   0.104 -1.0722 -0.2509  0.5409
   88MOL    H9819412   6.307   1.937   0.262  0.0930  0.5184  1.5753
   88MOL    H9919413   6.221   2.082   0.243 -0.1713 -0.5707 -2.5499
   88MOL   H10019414   6.143   1.953   0.336 -0.8689 -0.9521 -0.5420
   88MOL   C10119415   6.051   1.749   7.826  0.5844  0.1943 -0.1330
   88MOL   C10219416   6.077   1.617   7.743 -0.2324 -0.1727 -0.2427
   88MOL   C10319417   6.109   1.643   7.594 -0.1864 -0.3882 -0.3715
   88MOL   O10419418   6.034   1.710   7.529 -0.0032  0.6349  0.2844
   88MOL   C10519419   6.240   1.585   7.541 -0.0903 -0.0863 -0.6519
   88MOL   H10619420   5.990   1.733   0.058 -1.8149  1.7756 -1.4322
   88MOL   H10719421   5.999   1.821   7.763 -0.4172  0.0294  0.5016
   88MOL   H10819422   6.168   1.578   7.790  0.3574  0.5759 -0.7462
   88MOL   H10919423   6.255   1.478   7.557  0.2942  0.1528  0.6945
   88MOL   H11019424   6.235   1.582   7.432 -1.5665  0.4034 -0.6057
   88MOL   H11119425   6.326   1.643   7.573 -0.8840 -0.4215  2.2053
   88MOL   C11219426   5.979   1.502   7.753  0.4306  0.2461 -0.5692
   88MOL   C11319427   5.828   1.532   7.709 -0.3624  0.0431  0.1177
   88MOL   C11419428   5.758   1.648   7.787  0.5660  0.7451  0.2663
   88MOL   O11519429   5.748   1.635   0.052 -0.4163  0.1195  0.8123
   88MOL   C11619430   5.696   1.760   7.701 -0.0283 -0.4281 -0.3149
   88MOL   H11719431   5.963   1.466   7.855 -0.9621 -1.9388 -1.5187
   88MOL   H11819432   6.008   1.413   7.698  0.9637 -0.1540  0.3346
   88MOL   H11919433   5.820   1.559   7.603 -0.8051  2.9066  0.8209
   88MOL   H12019434   5.600   1.731   7.657  0.0035  0.8744 -1.2700
   88MOL   H12119435   5.689   1.855   7.754 -1.2230 -0.3262 -0.6475
   88MOL   H12219436   5.758   1.782   7.614  0.3923 -0.5944 -0.0567
   88MOL   C12319437   5.741   1.406   7.723  0.1618 -0.2340 -0.2216
   88MOL   C12419438   5.609   1.413   7.635 -0.0391 -0.0465 -0.0088
   88MOL   C12519439   5.523   1.288   7.675  0.2106 -0.2772  0.6650
   88MOL   O12619440   5.566   1.174   7.660 -0.3339 -0.3238 -0.3217
   88MOL   C12719441   5.383   1.318   7.730 -0.4118 -0.1029  0.0379
   88MOL   H12819442   5.724   1.395   7.830  0.9396  0.0417 -0.0718
   88MOL   H12919443   5.792   1.315   7.690 -3.8721 -3.2515  1.4960
   88MOL   H13019444   5.550   1.500   7.666  2.8294  2.4279 -1.1862
   88MOL   H13119445   5.345   1.251   7.807  0.8366  0.2648  0.9771
   88MOL   H13219446   5.320   1.313   7.641 -1.3384 -4.2664  0.8374
   88MOL   H13319447   5.369   1.422   7.761 -1.1013 -0.6089  1.4599
   88MOL   C13419448   5.650   1.416   7.482 -0.8603 -0.1317 -0.0785
   88MOL   C13519449   5.524   1.397   7.390  0.2236  0.0161  1.0333
   88MOL   C13619450   5.425   1.517   7.373  0.1640 -0.0779 -0.0506
   88MOL   O13719451   5.444   1.605   7.289 -0.5664  0.8827 -0.0469
   88MOL   C13819452   5.298   1.508   7.455 -0.4660 -0.2161 -0.6515
   88MOL   H13919453   5.709   1.325   7.475  0.5874  0.8039 -0.1214
   88MOL   H14019454   5.721   1.487   7.439  0.2307 -1.9482 -1.3118
   88MOL   H14119455   5.467   1.312   7.425 -0.0752 -0.3495 -0.3218
   88MOL   H14219456   5.266   1.404   7.453 -0.8132 -0.1136 -0.4620
   88MOL   H14319457   5.232   1.585   7.415 -0.4585  0.2993  0.3102
   88MOL   H14419458   5.325   1.550   7.552 -3.5484 -1.3147  0.7705
   88MOL   C14519459   5.570   1.351   7.242  0.7866  0.0740 -0.7148
   88MOL   C14619460   5.590   1.204   7.231 -0.0320  0.2788  0.9129
   88MOL   C14719461   5.459   1.127   7.230 -0.4961  0.2894  0.5368
   88MOL   O14819462   5.353   1.183   7.199 -0.3477  0.0529 -0.7934
   88MOL   C14919463   5.469   0.980   7.270 -0.0157  0.3153 -0.1562
   88MOL   H15019464   5.651   1.416   7.208  0.7522  0.9236  0.7554
   88MOL   H15119465   5.490   1.382   7.176 -0.6057  1.1384  1.4049
   88MOL   H15219466   5.634   1.177   7.328  1.5123 -3.6996 -0.7639
   88MOL   H15319467   5.504   0.915   7.191  2.2687  1.3657 -0.0325
   88MOL   H15419468   5.537   0.977   7.355 -0.6502  3.4613  0.5439
   88MOL   H15519469   5.369   0.947   7.301  0.1084 -0.5538 -0.6842
   88MOL   C15619470   5.691   1.154   7.124  0.6898 -0.0279  0.1310
   88MOL   C15719471   5.676   1.191   6.976  0.1301  0.1447 -0.0011
   88MOL   C15819472   5.621   1.066   6.896  0.2203 -0.4837 -0.0801
   88MOL   O15919473   5.634   0.950   6.932  0.1148 -0.2094 -0.1174
   88MOL   C16019474   5.552   1.103   6.771  0.2292  0.1071 -0.3399
   88MOL   H16119475   5.783   1.192   7.169  0.7129  0.4690 -0.3359
   88MOL   H16219476   5.694   1.047   7.140 -1.8784  0.0139  1.1177
   88MOL   H16319477   5.594   1.263   6.972 -0.2831 -0.3401 -0.4774
   88MOL   H16419478   5.444   1.109   6.782  0.4928  1.0337  2.1747
   88MOL   H16519479   5.580   1.022   6.704  0.9901  0.5817 -0.5952
   88MOL   H16619480   5.591   1.194   6.728  1.3845 -0.8419 -1.3457
   88MOL   C16719481   5.802   1.263   6.912  0.2765 -0.3196 -0.1489
   88MOL   C16819482   5.841   1.397   6.983 -0.4895  0.3790  0.1105
   88MOL   C16919483   5.733   1.505   6.950  0.4195  0.3626 -0.4578
   88MOL   O17019484   5.630   1.488   6.884 -0.5748 -0.0522  0.0417
   88MOL   C17119485   5.750   1.644   7.021  0.4365 -0.2115  0.3554
   88MOL   H17219486   5.891   1.203   6.894 -0.8221 -2.2798  0.8974
   88MOL   H17319487   5.777   1.300   6.812 -0.0714  2.3896  0.9071
   88MOL   H17419488   5.838   1.377   7.090  2.8747 -1.8274 -0.1288
   88MOL   H17519489   5.796   1.708   6.946  1.5683 -0.2562  1.0093
   88MOL   H17619490   5.814   1.637   7.109  0.8673  3.8498  0.4523
   88MOL   H17719491   5.653   1.684   7.051 -0.0985 -1.3507  0.1705
   88MOL   C17819492   5.984   1.448   6.946  0.9364  0.2039 -0.8320
   88MOL   C17919493   6.098   1.354   7.011  0.1237 -0.4379  0.0176
   88MOL   C18019494   6.131   1.402   7.152  0.1648 -0.2505 -0.4828
   88MOL   O18119495   6.102   1.516   7.205 -0.0244  0.3586  0.8003
   88MOL   C18219496   6.195   1.293   7.247 -0.0656 -0.7831  0.0837
   88MOL   H18319497   5.998   1.454   6.838  1.3351 -0.2743 -0.8072
   88MOL   H18419498   6.005   1.543   6.995  0.7912  0.7063 -1.7249
   88MOL   H18519499   6.066   1.251   7.030  1.6055 -0.6008  1.8122
   88MOL   H18619500   6.204   1.336   7.347  0.9631 -0.9184  0.0576
   88MOL   H18719501   6.297   1.269   7.218 -0.2014 -0.4928 -0.6353
   88MOL   H18819502   6.138   1.200   7.251  1.2672 -1.5867  0.7138
   88MOL   C18919503   6.223   1.334   6.919 -0.0964  0.0996  0.0116
   88MOL   C19019504   6.279   1.464   6.843  1.0468  0.3835 -0.3771
   88MOL   C19119505   6.351   1.565   6.926  0.1218 -0.6986  0.2487
   88MOL   O19219506   6.427   1.527   7.013 -0.6740 -0.0368  0.3958
   88MOL   C19319507   6.309   1.711   6.926 -0.3683 -0.2271  1.3633
   88MOL   H19419508   6.309   1.297   6.976 -0.3301 -3.1048 -1.6138
   88MOL   H19519509   6.194   1.254   6.851  1.7887 -0.8508  0.2791
   88MOL   H19619510   6.193   1.516   6.802  1.0114  0.5560 -0.0863
   88MOL   H19719511   6.202   1.732   6.913 -0.0662  1.0796  0.8576
   88MOL   H19819512   6.331   1.747   7.026  2.5409 -2.8254  1.7362
   88MOL   H19919513   6.369   1.763   6.851 -3.1423  2.5174  0.9162
   88MOL   C20019514   6.375   1.420   6.729  0.2163 -0.0306 -0.1459
   88MOL   C20119515   6.381   1.522   6.611 -0.0375 -1.1888 -0.7027
   88MOL   C20219516   6.258   1.509   6.528 -0.2019 -0.4916  0.2207
   88MOL   O20319517   6.177   1.421   6.548 -0.1541  0.2566  0.4201
   88MOL   C20419518   6.242   1.607   6.411 -0.3698 -0.4775 -0.6309
   88MOL   H20519519   6.471   1.405   6.778 -0.1537 -0.7892  0.3572
   88MOL   H20619520   6.347   1.321   6.695  0.3375  0.3291 -1.3256
   88MOL   H20719521   6.366   1.621   6.654 -1.4074 -3.4203  4.3753
   88MOL   H20819522   6.312   1.690   6.421 -1.6926  0.5514  0.4081
   88MOL   H20919523   6.249   1.565   6.311 -1.8099  0.7941 -1.2898
   88MOL   H21019524   6.138   1.642   6.415  0.3847  1.6878  1.4584
   88MOL   C21119525   6.503   1.499   6.519 -0.2599 -0.2570 -0.0214
   88MOL   C21219526   6.558   1.632   6.458 -0.5465 -0.1385  0.0235
   88MOL   C21319527   6.709   1.648   6.477  0.4776  0.5974  0.6527
   88MOL   O21419528   6.782   1.563   6.426  0.3141 -0.4369 -0.2553
   88MOL   C21519529   6.758   1.767   6.556 -0.3552 -0.4103  0.5253
   88MOL   H21619530   6.575   1.447   6.583  0.6521  0.6115 -0.3353
   88MOL   H21719531   6.479   1.417   6.452 -0.2461 -0.2475 -0.0372
   88MOL   H21819532   6.496   1.717   6.485 -1.1732 -0.6178  0.1038
   88MOL   H21919533   6.713   1.861   6.522  1.9674  0.4258 -0.3218
   88MOL   H22019534   6.728   1.754   6.660 -0.4895  1.6421  0.7557
   88MOL   H22119535   6.865   1.783   6.548 -0.0506 -2.4594  0.2727
   88MOL   H22219536   6.542   1.612   6.351 -0.5649 -0.8052  0.1476
   89MOL     C119537   3.958   1.322   0.625  0.0600  0.1231 -0.0423
   89MOL     C219538   4.087   1.408   0.620 -0.7515 -0.5828 -0.2481
   89MOL     C319539   4.071   1.553   0.661 -0.1470 -0.3984 -0.0389
   89MOL     O419540   4.079   1.589   0.779  0.1540 -0.1610 -1.0139
   89MOL     C519541   4.075   1.657   0.551  0.1483 -0.4696  0.6865
   89MOL     H619542   3.914   1.328   0.724 -0.3693  0.2592 -0.2391
   89MOL     H719543   3.982   1.218   0.601 -1.3831 -0.1873 -0.1453
   89MOL     H819544   4.126   1.411   0.518 -0.9874 -0.4586 -0.3345
   89MOL     H919545   4.149   1.736   0.560  0.6390 -0.3542 -3.4905
   89MOL    H1019546   4.088   1.596   0.461 -3.7777 -0.3108 -0.0840
   89MOL    H1119547   3.974   1.695   0.538 -0.0816 -0.0302  3.4425
   89MOL    H1219548   3.882   1.357   0.556 -0.5836 -2.2190 -0.5635
   89MOL    C1319549   4.198   1.341   0.711 -0.0895 -0.1597  0.0052
   89MOL    C1419550   4.342   1.405   0.724  0.1397 -0.2134 -0.5154
   89MOL    C1519551   4.409   1.418   0.594  0.1659  0.3066  0.3045
   89MOL    O1619552   4.466   1.323   0.532  0.1005 -0.7114 -0.2984
   89MOL    C1719553   4.406   1.553   0.532 -0.2560 -0.5132  0.0019
   89MOL    H1819554   4.160   1.341   0.813 -2.5527  1.2728 -0.8822
   89MOL    H1919555   4.201   1.235   0.686 -2.5065  0.2168 -2.0500
   89MOL    H2019556   4.337   1.502   0.772  1.1046 -0.4740  0.1388
   89MOL    H2119557   4.506   1.595   0.533 -0.3083 -0.4066  1.2419
   89MOL    H2219558   4.373   1.547   0.428 -2.3332  0.7231  0.5448
   89MOL    H2319559   4.331   1.619   0.578 -0.1881 -0.0272 -0.5779
   89MOL    C2419560   4.424   1.316   0.819  0.4864  0.3867  1.0658
   89MOL    C2519561   4.564   1.355   0.855 -0.5862  0.1136 -0.1500
   89MOL    C2619562   4.580   1.497   0.923 -0.4008  0.0060 -0.1721
   89MOL    O2719563   4.657   1.577   0.869  0.1325  0.3593  0.2066
   89MOL    C2819564   4.515   1.520   1.059 -0.1012  0.0247 -0.4908
   89MOL    H2919565   4.369   1.309   0.914  0.3829  1.0337  1.0575
   89MOL    H3019566   4.417   1.214   0.783 -1.1366  0.8681 -0.0138
   89MOL    H3119567   4.628   1.362   0.767 -0.3593  1.3430  0.1091
   89MOL    H3219568   4.417   1.475   1.069 -0.4124  1.2498  2.1738
   89MOL    H3319569   4.576   1.477   1.139  0.6239 -0.6866 -1.4103
   89MOL    H3419570   4.502   1.626   1.077 -2.7612 -0.5102  0.9485
   89MOL    C3519571   4.640   1.245   0.938 -0.4504 -0.0715  0.5591
   89MOL    C3619572   4.659   1.105   0.882  0.6124  0.6408 -1.0782
   89MOL    C3719573   4.780   1.091   0.793 -0.4050 -0.5015 -0.7725
   89MOL    O3819574   4.892   1.089   0.841 -0.0812  0.0083  0.2289
   89MOL    C3919575   4.766   1.066   0.643 -0.1529 -0.3376 -0.7466
   89MOL    H4019576   4.610   1.235   1.042 -4.6689 -0.2341 -0.5830
   89MOL    H4119577   4.740   1.287   0.945 -0.6548  0.1977  1.9592
   89MOL    H4219578   4.573   1.087   0.818  1.2425  5.1227 -3.3488
   89MOL    H4319579   4.863   1.042   0.599  0.4907  2.1453 -0.7342
   89MOL    H4419580   4.734   1.160   0.598  2.0177  0.1635 -1.2932
   89MOL    H4519581   4.697   0.981   0.636 -0.3243 -0.3132  0.5718
   89MOL    C4619582   4.655   0.987   0.982  0.2392 -0.8726 -0.2295
   89MOL    C4719583   4.606   0.849   0.932  0.2218  0.1194 -0.0922
   89MOL    C4819584   4.656   0.729   1.021 -0.2626  0.6136 -0.2240
   89MOL    O4919585   4.636   0.723   1.141 -0.7072 -0.1762  0.1033
   89MOL    C5019586   4.735   0.625   0.949 -0.3989 -0.2449 -0.4650
   89MOL    H5119587   4.596   1.011   1.071 -1.1300  2.7264 -2.0439
   89MOL    H5219588   4.751   0.968   1.030 -0.4497 -1.1781  1.0772
   89MOL    H5319589   4.668   0.844   0.842 -0.8707  1.1038 -0.9133
   89MOL    H5419590   4.670   0.542   0.920 -0.8754 -0.6434  1.6047
   89MOL    H5519591   4.783   0.645   0.854  0.7618  0.8844  0.3430
   89MOL    H5619592   4.809   0.586   1.019 -1.3716  0.8694  1.2204
   89MOL    C5719593   4.454   0.841   0.902 -0.4759 -0.0919 -0.1298
   89MOL    C5819594   4.365   0.854   1.024  0.1176  0.5883 -0.2828
   89MOL    C5919595   4.306   1.000   1.045  0.0517 -0.5319  0.8876
   89MOL    O6019596   4.225   1.040   0.962 -0.5780  0.2707 -0.3275
   89MOL    C6119597   4.362   1.103   1.150 -0.3953  0.7002 -0.1771
   89MOL    H6219598   4.441   0.751   0.842  6.1349 -2.6407  1.7499
   89MOL    H6319599   4.427   0.914   0.825 -0.5503  0.2955  0.2586
   89MOL    H6419600   4.418   0.816   1.111  0.0277 -1.9632 -1.2783
   89MOL    H6519601   4.276   1.146   1.200  0.2173  1.8009 -0.0548
   89MOL    H6619602   4.423   1.043   1.218  0.9881 -0.0819 -2.0706
   89MOL    H6719603   4.423   1.182   1.106 -1.3635  1.4891 -0.1171
   89MOL    C6819604   4.252   0.746   1.013 -0.3824  0.2665 -0.1596
   89MOL    C6919605   4.197   0.713   1.153 -0.4261 -0.1134 -0.2284
   89MOL    C7019606   4.301   0.625   1.211  0.4957  0.2323 -0.3218
   89MOL    O7119607   4.336   0.516   1.167  0.6886  0.0096  0.1795
   89MOL    C7219608   4.362   0.670   1.341 -0.0860 -0.2957  0.4743
   89MOL    H7319609   4.170   0.774   0.947 -0.3624 -2.4050 -1.4122
   89MOL    H7419610   4.287   0.650   0.974  1.4504 -0.4421  3.0602
   89MOL    H7519611   4.186   0.802   1.216 -0.4472 -0.1724 -0.1487
   89MOL    H7619612   4.352   0.580   1.402  4.8919 -2.4731 -1.6073
   89MOL    H7719613   4.464   0.709   1.332  0.4121 -2.2347 -2.8721
   89MOL    H7819614   4.299   0.744   1.391 -0.0933  0.6671 -0.9234
   89MOL    C7919615   4.073   0.615   1.146 -0.1899  0.0611 -0.1508
   89MOL    C8019616   3.943   0.687   1.102  0.6205 -0.2171 -0.3729
   89MOL    C8119617   3.909   0.806   1.199  0.6290  0.1460 -0.4374
   89MOL    O8219618   3.916   0.791   1.324 -0.2039  0.6027  0.2238
   89MOL    C8319619   3.887   0.945   1.144 -0.4097  0.2242  0.6492
   89MOL    H8419620   4.049   0.567   1.241  0.7340 -3.5824 -1.6999
   89MOL    H8519621   4.095   0.536   1.075 -1.0970 -0.9470  0.6762
   89MOL    H8619622   3.962   0.722   1.001  1.8190 -0.2012 -0.1543
   89MOL    H8719623   3.910   0.944   1.038 -0.6374 -0.9383  0.6047
   89MOL    H8819624   3.953   1.017   1.191 -0.2700  2.0510 -2.2164
   89MOL    H8919625   3.783   0.973   1.163 -0.8584 -0.4768 -0.7401
   89MOL    C9019626   3.825   0.591   1.108 -0.1686 -0.3097  0.4468
   89MOL    C9119627   3.701   0.622   1.024  0.3163 -0.3346  0.3734
   89MOL    C9219628   3.733   0.621   0.868 -0.4865 -0.3886  0.6120
   89MOL    O9319629   3.709   0.712   0.792  0.0048 -0.1195  0.1184
   89MOL    C9419630   3.795   0.494   0.808  0.2255  0.0305  0.3771
   89MOL    H9519631   3.871   0.499   1.070  0.5959  0.4646 -0.5245
   89MOL    H9619632   3.796   0.562   1.209 -0.6708  0.9165  0.6604
   89MOL    H9719633   3.669   0.724   1.043 -0.0924 -0.3173 -0.3962
   89MOL    H9819634   3.898   0.480   0.841  0.0260 -0.4565  0.7832
   89MOL    H9919635   3.744   0.404   0.842  1.2934 -0.1473  1.5242
   89MOL   H10019636   3.795   0.512   0.700  3.2316  1.0069  0.4929
   89MOL   C10119637   3.588   0.529   1.062 -0.4887 -0.3480 -0.3984
   89MOL   C10219638   3.462   0.531   0.972 -0.6252  0.4783 -0.7874
   89MOL   C10319639   3.388   0.664   0.984 -0.0779 -0.0683  0.1533
   89MOL   O10419640   3.317   0.690   1.082  0.2631 -0.2168  0.0424
   89MOL   C10519641   3.389   0.764   0.872  0.0023  0.1481  1.0316
   89MOL   H10619642   3.648   0.438   1.059  0.1066  0.0069  0.3519
   89MOL   H10719643   3.571   0.553   1.167  0.6804 -0.0610 -0.2612
   89MOL   H10819644   3.492   0.522   0.867 -1.4455  0.4364 -1.0184
   89MOL   H10919645   3.286   0.769   0.836  0.8935 -2.2122 -2.0506
   89MOL   H11019646   3.424   0.863   0.903  0.6520  0.5184 -0.8074
   89MOL   H11119647   3.456   0.733   0.792 -1.0098 -0.0823  0.2482
   89MOL   C11219648   3.366   0.412   1.019  0.4413 -0.2733  0.1322
   89MOL   C11319649   3.245   0.376   0.926 -0.4363 -0.0835 -0.4568
   89MOL   C11419650   3.126   0.474   0.932  0.1784 -1.0389 -0.6543
   89MOL   O11519651   3.102   0.555   0.837  0.3227  0.5078  0.0588
   89MOL   C11619652   3.025   0.447   1.052 -0.0203  0.0071  0.0099
   89MOL   H11719653   3.324   0.441   1.115 -1.5210  1.0297 -1.0986
   89MOL   H11819654   3.430   0.325   1.038  0.4297 -0.5581 -1.0743
   89MOL   H11919655   3.285   0.389   0.826 -1.4114 -4.0704 -1.4616
   89MOL   H12019656   2.937   0.389   1.026 -0.0500 -0.3358  0.8708
   89MOL   H12119657   3.062   0.409   1.147 -0.5997  0.9182  0.6048
   89MOL   H12219658   2.995   0.548   1.079 -1.1825 -0.6319  1.1315
   89MOL   C12319659   3.206   0.228   0.933  0.1110  0.6322 -0.4499
   89MOL   C12419660   3.307   0.125   0.877 -0.6132 -0.0277 -0.4634
   89MOL   C12519661   3.367   0.164   0.742  0.6768  0.4409 -0.5603
   89MOL   O12619662   3.298   0.158   0.638  0.5051 -0.2305  0.1061
   89MOL   C12719663   3.507   0.222   0.748  0.3551 -0.9236 -1.0203
   89MOL   H12819664   3.114   0.214   0.875  0.7186  2.6300 -1.9628
   89MOL   H12919665   3.189   0.203   1.038  2.3374 -2.6147 -0.7999
   89MOL   H13019666   3.390   0.116   0.948 -1.8432 -0.0643  1.0025
   89MOL   H13119667   3.541   0.237   0.850  0.0554  2.4280 -1.3533
   89MOL   H13219668   3.510   0.313   0.688  0.1426  0.9670  1.7811
   89MOL   H13319669   3.567   0.148   0.695 -1.0576 -1.9136 -1.2754
   89MOL   C13419670   3.243   7.843   0.871 -0.6690  0.3570 -0.5874
   89MOL   C13519671   3.344   7.726   0.843 -0.1734 -0.5481  0.1063
   89MOL   C13619672   3.329   7.612   0.945  0.6477 -0.4176 -0.9760
   89MOL   O13719673   3.235   7.530   0.935  0.0414  0.0599  0.3389
   89MOL   C13819674   3.425   7.612   1.061  0.0248 -0.5706  0.1683
   89MOL   H13919675   3.166   7.836   0.794  0.9159 -0.1841 -2.1431
   89MOL   H14019676   3.179   7.831   0.959 -2.1771 -2.1924 -1.9636
   89MOL   H14119677   3.446   7.759   0.866  0.3200 -1.7244 -0.3770
   89MOL   H14219678   3.408   7.533   1.134  3.4776  0.3291  2.0627
   89MOL   H14319679   3.419   7.702   1.121 -1.1352 -1.2142  1.0250
   89MOL   H14419680   3.531   7.605   1.035  0.7491  0.8145  2.6168
   89MOL   C14519681   3.321   7.671   0.697  0.4080 -0.1931  0.8043
   89MOL   C14619682   3.409   7.546   0.651  1.2870  0.0342  0.0639
   89MOL   C14719683   3.368   7.500   0.513 -0.3870  0.1089  0.2374
   89MOL   O14819684   3.322   7.387   0.498 -0.5204 -0.3760  0.5422
   89MOL   C14919685   3.377   7.613   0.403  0.4175 -0.0652  0.0802
   89MOL   H15019686   3.339   7.753   0.629  0.4972 -0.2874  0.7131
   89MOL   H15119687   3.215   7.651   0.686  0.1343 -0.1904  3.1433
   89MOL   H15219688   3.385   7.477   0.732  1.4982  0.4794  0.5091
   89MOL   H15319689   3.321   7.700   0.440 -1.0928 -0.8908 -0.1980
   89MOL   H15419690   3.474   7.647   0.368 -0.8833  1.7325 -1.9110
   89MOL   H15519691   3.318   7.587   0.315 -2.5522 -0.9296  2.2220
   89MOL   C15619692   3.566   7.564   0.663 -0.8711 -0.0588 -0.3205
   89MOL   C15719693   3.651   7.432   0.639 -0.1621 -0.0564 -0.3413
   89MOL   C15819694   3.632   7.324   0.746 -0.5020  0.1533 -0.6810
   89MOL   O15919695   3.662   7.348   0.862 -0.1669 -0.8083  0.8220
   89MOL   C16019696   3.583   7.190   0.704 -0.1714 -0.0567 -0.6596
   89MOL   H16119697   3.590   7.641   0.590 -2.2197 -0.4588 -1.2177
   89MOL   H16219698   3.594   7.599   0.762  1.4701 -3.6264  0.3608
   89MOL   H16319699   3.615   7.397   0.542 -3.0068  2.0558 -0.1374
   89MOL   H16419700   3.655   7.127   0.654 -0.1103  0.1652 -0.8512
   89MOL   H16519701   3.495   7.203   0.640 -0.4686  1.2667 -0.0194
   89MOL   H16619702   3.547   7.136   0.792 -2.7981  2.0597 -0.3713
   89MOL   C16719703   3.799   7.475   0.616  0.1198  0.0283  0.2542
   89MOL   C16819704   3.862   7.390   0.505 -0.3149  0.4047  0.2371
   89MOL   C16919705   4.013   7.408   0.517 -0.7429  0.3053  0.2522
   89MOL   O17019706   4.061   7.522   0.494  0.5389  0.4250  0.1027
   89MOL   C17119707   4.102   7.301   0.584  0.4731 -0.5028  0.2154
   89MOL   H17219708   3.804   7.580   0.587 -2.4902 -0.1933 -1.1649
   89MOL   H17319709   3.849   7.469   0.713 -0.6440 -0.2928  0.6315
   89MOL   H17419710   3.852   7.284   0.524 -0.7857  0.6833  1.6044
   89MOL   H17519711   4.204   7.296   0.546 -0.6335  0.3364 -2.9950
   89MOL   H17619712   4.061   7.200   0.574  1.3972 -0.9027  0.4813
   89MOL   H17719713   4.116   7.323   0.690  1.6018 -0.1863 -0.0029
   89MOL   C17819714   3.818   7.426   0.358 -0.3922 -0.1597  0.3049
   89MOL   C17919715   3.774   7.312   0.259  0.7283 -0.2537 -0.2387
   89MOL   C18019716   3.645   7.236   0.312 -0.1436 -1.0426  0.7852
   89MOL   O18119717   3.655   7.164   0.409 -0.2341  0.3108 -0.2516
   89MOL   C18219718   3.512   7.251   0.231 -0.9379 -0.1885  0.5008
   89MOL   H18319719   3.736   7.498   0.368 -0.1104  0.1391  0.4596
   89MOL   H18419720   3.897   7.473   0.300 -0.8480 -1.7591 -1.6618
   89MOL   H18519721   3.737   7.363   0.170 -1.3328 -1.7670 -0.2783
   89MOL   H18619722   3.520   7.325   0.152 -1.6837  0.4860  1.0444
   89MOL   H18719723   3.427   7.290   0.287  0.2179  1.4390  1.1805
   89MOL   H18819724   3.471   7.159   0.191  1.2941 -0.9928 -0.0063
   89MOL   C18919725   3.893   7.219   0.228 -0.6878 -0.0031 -0.9140
   89MOL   C19019726   3.877   7.141   0.100  0.1968  0.0749 -0.0028
   89MOL   C19119727   3.960   7.217   7.850 -0.6732 -0.5704  0.0106
   89MOL   O19219728   4.085   7.211   7.844 -0.5748 -0.1229 -0.5171
   89MOL   C19319729   3.881   7.264   7.724  0.9154 -0.2943  0.1417
   89MOL   H19419730   3.991   7.265   0.239 -0.7990  0.3493 -1.3760
   89MOL   H19519731   3.904   7.148   0.310  0.1677  0.2748 -0.7824
   89MOL   H19619732   3.771   7.125   0.082  0.0251  0.4061  0.7151
   89MOL   H19719733   3.838   7.178   7.671 -0.1486  1.3383 -1.6888
   89MOL   H19819734   3.797   7.325   7.756  0.2437 -1.1572  0.0425
   89MOL   H19919735   3.934   7.320   7.647  1.2516  0.0279  0.6068
   89MOL   C20019736   3.935   6.998   0.122 -0.1761  0.1831  0.3998
   89MOL   C20119737   3.937   6.905   0.002  0.5976 -0.1306  0.2657
   89MOL   C20219738   3.799   6.879   7.804 -0.1606 -0.5746  0.1858
   89MOL   O20319739   3.704   6.847   0.014 -0.5844 -0.5843  0.2958
   89MOL   C20419740   3.784   6.890   7.655  0.1771  0.1407 -0.3263
   89MOL   H20519741   4.032   7.002   0.171 -0.2511  1.3629  0.4634
   89MOL   H20619742   3.881   6.945   0.200 -0.2401  0.4081  0.5084
   89MOL   H20719743   3.992   6.949   7.776  1.2559 -1.1592  0.1561
   89MOL   H20819744   3.856   6.835   7.595 -0.2028 -0.8189  0.0758
   89MOL   H20919745   3.693   6.839   7.623 -0.8076  0.1704  2.2738
   89MOL   H21019746   3.772   6.990   7.614 -0.2420 -0.1382 -0.9025
   89MOL   C21119747   3.998   6.772   0.045  0.1792  0.5715  0.2161
   89MOL   C21219748   4.056   6.687   7.789 -0.5748 -0.6954  0.0792
   89MOL   C21319749   4.099   6.550   7.832  0.1607 -0.1177  0.3551
   89MOL   O21419750   4.143   6.541   0.086  0.4596 -0.0662 -0.1771
   89MOL   C21519751   4.102   6.436   7.728 -0.9293  0.0093 -0.3319
   89MOL   H21619752   4.083   6.807   0.104 -0.6957  1.2017  1.1253
   89MOL   H21719753   3.920   6.726   0.105 -1.3076 -1.3467 -3.0296
   89MOL   H21819754   4.140   6.740   7.744 -1.5038  0.2720 -0.5415
   89MOL   H21919755   4.107   6.338   7.774  0.4926 -0.4445 -1.4331
   89MOL   H22019756   4.014   6.445   7.664 -0.5604  1.1065 -0.7005
   89MOL   H22119757   4.185   6.443   7.658 -1.2705 -0.6257 -0.8041
   89MOL   H22219758   3.987   6.671   7.706  0.2896 -3.2490 -0.1942
   90MOL     C119759   6.390   0.438   6.317  0.2242 -1.1111  0.3680
   90MOL     C219760   6.439   0.298   6.339  0.2328 -0.2190 -0.2957
   90MOL     C319761   6.446   0.218   6.205  0.5084 -0.0397  0.7958
   90MOL     O419762   6.546   0.188   6.144  0.6911  0.4434 -0.5631
   90MOL     C519763   6.309   0.154   6.152  0.1964  0.5017  0.1802
   90MOL     H619764   6.363   0.476   6.415  1.9035 -0.2107  0.5077
   90MOL     H719765   6.302   0.442   6.254  0.1704  0.1808  0.5248
   90MOL     H819766   6.369   0.239   6.398  0.1815  1.5757  1.4600
   90MOL     H919767   6.220   0.201   6.195  0.1584 -1.4289  2.3193
   90MOL    H1019768   6.294   0.150   6.045  0.4016 -2.0079  0.2113
   90MOL    H1119769   6.318   0.052   6.188 -0.0416  0.4315  0.0420
   90MOL    H1219770   6.470   0.498   6.273  1.5357  0.0214  4.1304
   90MOL    C1319771   6.574   0.307   6.406 -0.7609 -0.1426 -0.3597
   90MOL    C1419772   6.637   0.173   6.444  0.2289  0.1279  0.3502
   90MOL    C1519773   6.565   0.120   6.568 -0.6672  0.1006  0.0288
   90MOL    O1619774   6.592   0.167   6.679  0.2080  0.5636  0.0957
   90MOL    C1719775   6.460   0.011   6.547  0.2258  0.0233 -0.0943
   90MOL    H1819776   6.643   0.373   6.354 -1.6764 -0.1234 -1.5736
   90MOL    H1919777   6.550   0.356   6.500  2.6150 -0.9341  0.9913
   90MOL    H2019778   6.629   0.100   6.364  1.0721  0.4252 -0.0122
   90MOL    H2119779   6.358   0.048   6.555  0.8550  1.6298  0.7226
   90MOL    H2219780   6.477   7.829   6.447 -0.9460 -2.8601  0.7747
   90MOL    H2319781   6.478   7.783   6.613 -0.2448 -0.3501 -0.4550
   90MOL    C2419782   6.789   0.191   6.467 -0.7887  0.2192  0.8243
   90MOL    C2519783   6.865   0.062   6.428 -0.2475 -0.5879  0.3311
   90MOL    C2619784   6.943   0.089   6.296  0.5652 -0.7222 -0.0297
   90MOL    O2719785   7.069   0.088   6.288  0.0265  0.9331  0.0111
   90MOL    C2819786   6.856   0.128   6.173 -0.3891  0.0232 -0.6214
   90MOL    H2919787   6.835   0.271   6.410 -0.9340 -0.3061 -0.0511
   90MOL    H3019788   6.806   0.214   6.572  1.5295 -2.3424  1.0588
   90MOL    H3119789   6.793   7.843   6.401 -2.8729  1.6829  0.6557
   90MOL    H3219790   6.823   0.230   6.192  0.6643  0.7347 -2.4500
   90MOL    H3319791   6.912   0.140   6.080 -1.2787 -1.3657 -1.3499
   90MOL    H3419792   6.776   0.057   6.153 -0.2312  0.2483 -2.0799
   90MOL    C3519793   6.961   0.014   6.544 -0.3050  0.1158  0.0886
   90MOL    C3619794   6.903   7.819   6.675 -0.0664  0.0300 -0.3735
   90MOL    C3719795   6.827   7.684   6.669 -0.0039 -0.0940  0.4082
   90MOL    O3819796   6.849   7.604   6.583 -0.4035  0.2800  0.2890
   90MOL    C3919797   6.733   7.647   6.779  0.4015 -0.0620 -0.4879
   90MOL    H4019798   7.033   0.094   6.559  1.1032 -1.2035  0.5379
   90MOL    H4119799   7.031   7.798   6.504  2.1735  2.7234 -0.5756
   90MOL    H4219800   6.827   0.033   6.708 -0.2924 -0.5453  0.3786
   90MOL    H4319801   6.784   7.628   6.873  0.2960  0.7640 -0.2630
   90MOL    H4419802   6.664   7.566   6.753  1.4174 -0.2572 -2.6691
   90MOL    H4519803   6.675   7.735   6.806 -1.5069 -1.4852  0.1215
   90MOL    C4619804   7.012   7.821   6.780 -0.2435 -0.0312  0.0770
   90MOL    C4719805   7.140   7.737   6.766 -0.2641  0.4218  0.1537
   90MOL    C4819806   7.264   7.804   6.696 -0.2691 -0.5444  0.1032
   90MOL    O4919807   7.277   0.068   6.714  0.3965  0.6306  0.4847
   90MOL    C5019808   7.352   7.720   6.608 -0.2042  0.2251  0.1769
   90MOL    H5119809   6.968   7.799   6.877 -0.2965 -0.3469 -0.0201
   90MOL    H5219810   7.043   0.068   6.780  0.1274 -0.1427 -0.5798
   90MOL    H5319811   7.131   7.652   6.698  2.6343 -0.1876  0.4732
   90MOL    H5419812   7.317   7.708   6.505  0.9986  1.5193 -0.3958
   90MOL    H5519813   7.445   7.776   6.613  0.3594 -0.7818  1.5967
   90MOL    H5619814   7.363   7.616   6.641 -0.7648 -0.2235 -1.0186
   90MOL    C5719815   7.186   7.676   6.904  1.0708  0.0188  0.1149
   90MOL    C5819816   7.111   7.544   6.932  0.2012  0.0621  0.3225
   90MOL    C5919817   7.136   7.435   6.825 -0.4083  0.2609  0.2630
   90MOL    O6019818   7.245   7.421   6.786 -0.1899 -0.3172  0.8409
   90MOL    C6119819   7.018   7.369   6.763  0.4559 -0.2227 -0.5724
   90MOL    H6219820   7.179   7.750   6.984  0.1260  1.4378 -1.2326
   90MOL    H6319821   7.292   7.654   6.898  1.4965  1.4056  2.1142
   90MOL    H6419822   7.003   7.558   6.939  0.0034 -0.0785 -2.2515
   90MOL    H6519823   7.048   7.267   6.739  0.0957 -0.6313  0.6792
   90MOL    H6619824   6.938   7.362   6.836 -1.0416  0.2376 -2.1241
   90MOL    H6719825   6.986   7.422   6.673 -1.5690  0.3407  0.4597
   90MOL    C6819826   7.150   7.487   7.070  0.0799 -0.6944 -1.0116
   90MOL    C6919827   7.046   7.395   7.134 -0.2165 -0.1553 -0.0621
   90MOL    C7019828   6.911   7.470   7.155  0.0932  0.2713  0.8780
   90MOL    O7119829   6.899   7.594   7.141 -0.5658 -0.7389 -0.1363
   90MOL    C7219830   6.789   7.383   7.197 -0.0631 -0.3256  0.0018
   90MOL    H7319831   7.245   7.434   7.062  0.7886  0.6059 -1.3020
   90MOL    H7419832   7.176   7.570   7.136  0.8628 -1.6267 -0.1264
   90MOL    H7519833   7.013   7.313   7.070  0.9078 -0.2034 -0.5975
   90MOL    H7619834   6.700   7.444   7.187  1.1722  1.1171 -2.5609
   90MOL    H7719835   6.777   7.294   7.135 -0.6057 -1.0553  1.1373
   90MOL    H7819836   6.795   7.352   7.301  2.3298  3.6487  1.1698
   90MOL    C7919837   7.095   7.333   7.259 -0.6253  0.4430 -0.5104
   90MOL    C8019838   7.162   7.192   7.238  0.4421 -0.4819  0.8292
   90MOL    C8119839   7.057   7.082   7.246  0.1059  0.0555 -0.1166
   90MOL    O8219840   7.042   7.004   7.155  0.1689  0.0748  0.4238
   90MOL    C8319841   6.988   7.056   7.383  0.2185 -0.5261  0.3707
   90MOL    H8419842   7.023   7.318   7.339  0.4201 -0.5769  0.2458
   90MOL    H8519843   7.168   7.403   7.297  2.0402 -2.4714 -0.0586
   90MOL    H8619844   7.188   7.179   7.133 -2.6765  0.7674 -0.1677
   90MOL    H8719845   6.925   6.967   7.377  3.2347 -2.6879 -0.6416
   90MOL    H8819846   6.935   7.149   7.404  0.3275 -0.4169  0.1769
   90MOL    H8919847   7.067   7.041   7.456  0.1301  1.3175  0.8587
   90MOL    C9019848   7.291   7.155   7.312 -0.0038 -0.0758  0.1845
   90MOL    C9119849   7.383   7.057   7.228 -0.1178  0.3425  0.4275
   90MOL    C9219850   7.411   7.101   7.083  0.1932 -0.5177  0.8092
   90MOL    O9319851   7.438   7.216   7.053  0.3279 -0.4017 -0.0870
   90MOL    C9419852   7.382   6.993   6.972  1.0730 -0.5268 -0.7996
   90MOL    H9519853   7.353   7.239   7.343  3.4194 -2.9386  1.4188
   90MOL    H9619854   7.267   7.102   7.404 -0.5517 -1.0641 -0.5087
   90MOL    H9719855   7.332   6.963   7.207 -0.5382  1.1041 -2.2056
   90MOL    H9819856   7.300   6.931   7.008  2.3584 -1.5045  0.5070
   90MOL    H9919857   7.341   7.041   6.883  1.4481 -0.7012 -1.0684
   90MOL   H10019858   7.463   6.929   6.938 -0.7783 -3.7614  0.6407
   90MOL   C10119859   7.510   6.995   7.302  0.4040 -0.2855  0.1695
   90MOL   C10219860   7.484   6.887   7.405  0.4361 -0.2842 -0.4110
   90MOL   C10319861   7.424   6.944   7.534 -0.7506 -0.7639 -0.5080
   90MOL   O10419862   7.468   7.047   7.585 -0.7733 -0.1253  0.2274
   90MOL   C10519863   7.307   6.871   7.586  0.8163  0.3299  0.0794
   90MOL   H10619864   7.580   6.957   7.228  0.2185  1.0994 -0.7473
   90MOL   H10719865   7.568   7.080   7.338 -0.1846  0.5029 -0.6725
   90MOL   H10819866   7.419   6.812   7.358 -2.1467  1.1350  0.7929
   90MOL   H10919867   7.284   6.782   7.528 -0.8907  2.1495 -2.0936
   90MOL   H11019868   7.331   6.830   7.685 -0.0696 -1.2874 -0.3562
   90MOL   H11119869   7.228   6.944   7.603  0.1331 -0.7006  1.5053
   90MOL   C11219870   7.621   6.825   7.446 -0.7943 -0.2539 -0.3435
   90MOL   C11319871   7.660   6.715   7.337 -0.6486  0.5910 -0.5622
   90MOL   C11419872   7.582   6.583   7.365 -0.1953  0.4836  0.0053
   90MOL   O11519873   7.595   6.529   7.474 -0.8782  0.8981  0.3172
   90MOL   C11619874   7.487   6.529   7.259 -0.8066  0.3780 -0.3040
   90MOL   H11719875   7.616   6.778   7.544  1.5300 -0.0744 -0.1121
   90MOL   H11819876   7.697   6.903   7.456 -2.2888  1.2351 -0.3422
   90MOL   H11919877   7.614   6.737   7.241 -0.1327  0.1606 -0.9087
   90MOL   H12019878   7.510   6.423   7.248 -0.7616  0.2643  0.7984
   90MOL   H12119879   7.393   6.524   7.314  0.8854  0.1101  2.6579
   90MOL   H12219880   7.494   6.579   7.162  0.4859 -2.8871 -1.9866
   90MOL   C12319881   7.813   6.700   7.300 -0.3566 -0.8991 -0.8662
   90MOL   C12419882   0.042   6.616   7.385 -0.3366  0.1496  0.1734
   90MOL   C12519883   0.056   6.668   7.524 -0.0007  0.0882 -0.4142
   90MOL   O12619884   0.068   6.782   7.553  0.2785  0.1225 -0.1258
   90MOL   C12719885   0.054   6.562   7.637  0.1928 -0.4009 -0.7412
   90MOL   H12819886   0.004   6.798   7.301 -0.3095 -0.9176 -1.3731
   90MOL   H12919887   7.824   6.679   7.194  1.0626 -0.2033 -0.8686
   90MOL   H13019888   7.845   6.523   7.397  0.0559  0.0649  1.3501
   90MOL   H13119889   7.841   6.487   7.601  0.9523 -2.1258  1.2440
   90MOL   H13219890   0.007   6.599   7.728  0.4292 -0.1739 -0.7097
   90MOL   H13319891   0.155   6.524   7.655 -1.4031 -3.9819  1.2909
   90MOL   C13419892   0.188   6.613   7.329  0.3288 -0.2805 -0.0569
   90MOL   C13519893   0.263   6.483   7.335 -0.5670 -0.2473 -0.3380
   90MOL   C13619894   0.194   6.367   7.265 -0.2303  0.6597 -0.0658
   90MOL   O13719895   0.197   6.347   7.149  0.1285  0.2749 -0.0079
   90MOL   C13819896   0.111   6.279   7.355 -0.3063  0.0019 -0.7787
   90MOL   H13919897   0.256   6.678   7.384  0.0605 -0.0941  0.0601
   90MOL   H14019898   0.193   6.650   7.227 -0.8523  1.8515  0.6223
   90MOL   H14119899   0.269   6.458   7.441 -0.4539  0.9644 -0.0523
   90MOL   H14219900   0.074   6.336   7.440 -0.1103  0.5343 -1.0511
   90MOL   H14319901   0.173   6.199   7.395 -1.1486 -0.5449 -0.5613
   90MOL   H14419902   0.024   6.235   7.306 -1.0571 -0.4355  0.9167
   90MOL   C14519903   0.401   6.510   7.276 -0.2732  1.1872  0.7000
   90MOL   C14619904   0.507   6.391   7.275 -0.5295  0.4856  0.4183
   90MOL   C14719905   0.610   6.406   7.165  0.5321  0.2432  0.1458
   90MOL   O14819906   0.702   6.488   7.175 -0.4160  0.1484 -0.0384
   90MOL   C14919907   0.607   6.325   7.034 -0.5363 -0.2861 -0.5520
   90MOL   H15019908   0.454   6.593   7.323  0.5871  0.0253  1.8168
   90MOL   H15119909   0.379   6.534   7.172  0.6196  1.9840  0.6895
   90MOL   H15219910   0.450   6.303   7.242  1.5348 -1.1211  1.0423
   90MOL   H15319911   0.675   6.241   7.045  3.4128  2.7768 -0.6303
   90MOL   H15419912   0.505   6.304   7.003 -1.1476  0.6950  0.7366
   90MOL   H15519913   0.642   6.390   6.955  1.3143  0.5975  0.9530
   90MOL   C15619914   0.570   6.377   7.419 -0.1814  0.1207  0.6919
   90MOL   C15719915   0.617   6.232   7.459  0.2666  0.6574 -0.2070
   90MOL   C15819916   0.498   6.130   7.459 -0.7463  0.0336 -0.3888
   90MOL   O15919917   0.410   6.140   7.540  0.1167 -0.0933 -0.0578
   90MOL   C16019918   0.489   6.025   7.355  0.1591  0.1756 -0.6206
   90MOL   H16119919   0.647   6.454   7.428 -0.7113  0.6822  0.4402
   90MOL   H16219920   0.485   6.400   7.483  1.7369 -0.1949  3.4527
   90MOL   H16319921   0.681   6.191   7.382 -0.1522  0.6561 -0.5567
   90MOL   H16419922   0.531   5.936   7.402  2.8011  1.1735 -1.0226
   90MOL   H16519923   0.550   6.050   7.269  1.9426 -0.3194  0.4697
   90MOL   H16619924   0.389   5.988   7.331 -0.0009  0.3925 -0.2898
   90MOL   C16719925   0.682   6.230   7.594 -0.5816  0.4369  1.0525
   90MOL   C16819926   0.799   6.327   7.625  0.4095  0.0932 -0.1004
   90MOL   C16919927   0.914   6.311   7.524  0.1506  0.5627 -0.0177
   90MOL   O17019928   0.957   6.201   7.493 -0.1324 -0.6496 -0.2298
   90MOL   C17119929   0.974   6.436   7.464  0.5385  0.1834 -0.3807
   90MOL   H17219930   0.609   6.238   7.674 -1.5231  0.7469  0.1789
   90MOL   H17319931   0.723   6.130   7.607  0.4532  0.8227  0.8201
   90MOL   H17419932   0.766   6.430   7.619  0.4292  0.1588  0.7654
   90MOL   H17519933   0.927   6.432   7.366  0.1702 -1.3295 -0.1507
   90MOL   H17619934   1.083   6.429   7.469  0.6406  2.4886  1.0957
   90MOL   H17719935   0.934   6.521   7.518 -1.0649 -0.5662 -0.3716
   90MOL   C17819936   0.842   6.329   7.781 -0.1292  0.2349 -0.1761
   90MOL   C17919937   0.732   6.331   0.036 -0.3032  0.3630 -0.3264
   90MOL   C18019938   0.631   6.449   0.022 -0.2456  0.0882  0.6960
   90MOL   O18119939   0.519   6.417   7.845  0.1625 -0.1696  0.1611
   90MOL   C18219940   0.668   6.592   0.057 -0.9369 -0.2093 -0.0669
   90MOL   H18319941   0.919   6.255   7.804  0.2230  0.3962 -0.8341
   90MOL   H18419942   0.891   6.421   7.814 -1.3816 -0.0508  2.7325
   90MOL   H18519943   0.692   6.229   0.036 -0.5238  0.4495  0.0810
   90MOL   H18619944   0.593   6.655   0.010  1.8731  2.3696 -1.2478
   90MOL   H18719945   0.769   6.608   0.022 -0.2562 -0.4538  1.7272
   90MOL   H18819946   0.666   6.613   0.164  1.3970 -1.2860  0.2238
   90MOL   C18919947   0.804   6.349   0.172  0.0909 -0.5383  0.3738
   90MOL   C19019948   0.722   6.311   0.296  0.1959 -0.4106 -0.2307
   90MOL   C19119949   0.694   6.155   0.293 -0.9876 -0.1926 -0.2887
   90MOL   O19219950   0.596   6.104   0.340 -0.1082  0.2090 -0.6891
   90MOL   C19319951   0.802   6.060   0.241 -0.2020  0.0999  0.2747
   90MOL   H19419952   0.895   6.289   0.182 -0.4987 -1.4112  0.5386
   90MOL   H19519953   0.831   6.453   0.186 -1.7345  0.3423 -2.2251
   90MOL   H19619954   0.625   6.360   0.299  0.0326 -0.6318 -1.6124
   90MOL   H19719955   0.894   6.066   0.299  0.5097  0.3446 -0.8767
   90MOL   H19819956   0.769   5.961   0.272  1.6584 -0.4797  0.4817
   90MOL   H19919957   0.826   6.063   0.135  4.9026  0.9091  1.3225
   90MOL   C20019958   0.797   6.355   0.428 -0.5449 -0.3727 -0.2757
   90MOL   C20119959   0.749   6.287   0.561 -0.3166 -0.2467 -0.0971
   90MOL   C20219960   0.612   6.327   0.594  0.2757 -0.2252  0.4665
   90MOL   O20319961   0.563   6.435   0.562  0.1977 -0.1625 -0.1323
   90MOL   C20419962   0.525   6.222   0.657  0.3449 -0.1855  0.1913
   90MOL   H20519963   0.901   6.331   0.410 -0.7604 -0.1420 -1.9436
   90MOL   H20619964   0.793   6.463   0.442  0.8714 -0.3673  0.1098
   90MOL   H20719965   0.757   6.180   0.543  1.3011 -0.3296  0.9905
   90MOL   H20819966   0.420   6.242   0.676  0.7822 -0.0593  2.6181
   90MOL   H20919967   0.535   6.134   0.594  1.1812  0.2760 -0.3278
   90MOL   H21019968   0.568   6.187   0.751 -0.1904  0.5709  0.7262
   90MOL   C21119969   0.845   6.315   0.678  0.0463  0.6920  0.0632
   90MOL   C21219970   0.960   6.220   0.696 -0.5411  0.0494 -0.3172
   90MOL   C21319971   0.928   6.091   0.770 -1.1659 -0.2506  0.2408
   90MOL   O21419972   0.814   6.051   0.790  0.1207  0.1860  0.1096
   90MOL   C21519973   1.048   6.030   0.840  0.3145 -0.1583 -0.4041
   90MOL   H21619974   0.883   6.414   0.655 -0.2895  1.2708  1.9757
   90MOL   H21719975   0.793   6.317   0.774  0.1802  1.0401  0.1263
   90MOL   H21819976   1.042   6.271   0.747 -0.7375  0.5345 -0.4912
   90MOL   H21919977   1.131   6.095   0.811 -0.2265  0.6528 -0.1327
   90MOL   H22019978   1.030   6.045   0.947 -1.4801 -0.8744 -0.5981
   90MOL   H22119979   1.076   5.926   0.822 -0.4268 -0.8451  2.1585
   90MOL   H22219980   0.988   6.183   0.597  1.0937  1.0134 -0.2423
   91MOL     C119981   7.161   3.699   2.945  0.1706  0.0453  0.9027
   91MOL     C219982   7.294   3.628   2.926  0.0409 -0.0741  0.4372
   91MOL     C319983   7.281   3.503   2.840 -0.2949  0.0388  0.5518
   91MOL     O419984   7.326   3.503   2.726 -0.3338  0.4882  0.7076
   91MOL     C519985   7.232   3.376   2.912  0.4698  0.2399  0.4829
   91MOL     H619986   7.169   3.794   2.998 -0.7587 -0.0702  1.2605
   91MOL     H719987   7.089   3.634   2.994 -0.8829 -0.1020 -0.7906
   91MOL     H819988   7.336   3.595   3.021 -1.1826  0.2003  1.0819
   91MOL     H919989   7.326   3.322   2.924 -0.8976 -2.5759 -0.8852
   91MOL    H1019990   7.187   3.403   3.007  1.4031 -1.6949  1.5206
   91MOL    H1119991   7.176   3.324   2.835 -0.5222  0.3848  1.1013
   91MOL    H1219992   7.122   3.721   2.845  0.1513  0.4290  0.9957
   91MOL    C1319993   7.377   3.733   2.852  0.1479  0.0460  0.2084
   91MOL    C1419994   7.529   3.708   2.843  0.8051  0.6011 -0.7293
   91MOL    C1519995   7.597   3.690   2.981  0.0460 -0.3678  0.6663
   91MOL    O1619996   7.601   3.781   3.056 -0.8401 -0.0217 -0.1094
   91MOL    C1719997   7.642   3.550   3.022 -0.2471  0.2753 -0.0304
   91MOL    H1819998   7.329   3.754   2.756 -1.6824 -1.1902  0.8147
   91MOL    H1919999   7.363   3.827   2.906 -1.0346  2.0044 -3.3801
   91MOL    H2020000   7.539   3.612   2.793 -0.0197  1.1021 -1.8702
   91MOL    H2120001   7.747   3.547   2.992 -0.0823 -2.6360  0.6482
   91MOL    H2220002   7.633   3.539   3.130 -0.3467 -0.6916 -0.1283
   91MOL    H2320003   7.592   3.466   2.974 -0.9205  0.0210  1.1006
   91MOL    C2420004   7.591   3.806   2.739 -0.3435 -0.1637  0.3208
   91MOL    C2520005   7.744   3.807   2.720  0.1214 -0.1395 -0.0106
   91MOL    C2620006   7.801   3.674   2.671 -0.1968  0.0690 -1.0346
   91MOL    O2720007   7.793   3.567   2.735 -0.0605  0.8232  0.1934
   91MOL    C2820008   0.016   3.665   2.528  0.5368  0.2721 -0.5065
   91MOL    H2920009   7.552   3.795   2.638  0.6826  0.3788 -0.1425
   91MOL    H3020010   7.566   3.907   2.773  1.1866 -0.1348  1.3776
   91MOL    H3120011   7.798   3.822   2.813 -1.4067 -0.0109  0.8688
   91MOL    H3220012   7.811   3.609   2.458 -1.4861 -0.9259  2.1449
   91MOL    H3320013   0.035   3.759   2.478 -1.2526 -0.7127 -3.1668
   91MOL    H3420014   0.111   3.612   2.536 -0.3884 -1.2879  0.5433
   91MOL    C3520015   7.786   3.926   2.634 -0.4411  0.3622 -0.2183
   91MOL    C3620016   7.762   4.069   2.684  0.0228 -0.2120 -0.2345
   91MOL    C3720017   0.012   4.110   2.794 -0.5665 -0.3430  0.4394
   91MOL    O3820018   0.127   4.151   2.757 -0.2518 -0.1895  0.6420
   91MOL    C3920019   7.833   4.086   2.941 -0.0495  0.2837 -0.1498
   91MOL    H4020020   7.746   3.918   2.533  0.9679  0.6494 -0.8143
   91MOL    H4120021   0.037   3.925   2.630 -0.3564  0.9787  1.5792
   91MOL    H4220022   7.666   4.066   2.735  0.5047  0.9152  0.7793
   91MOL    H4320023   7.769   4.000   2.960 -0.3429  0.6649  0.6162
   91MOL    H4420024   7.774   4.173   2.970  0.2112  1.1510 -2.0886
   91MOL    H4520025   0.063   4.063   3.002  0.0402 -1.5137 -0.9162
   91MOL    C4620026   7.757   4.173   2.566  0.0748 -0.1313  0.1833
   91MOL    C4720027   7.624   4.163   2.482  0.5703 -0.5585 -0.4826
   91MOL    C4820028   7.505   4.184   2.565  0.2990 -0.0477  0.1893
   91MOL    O4920029   7.494   4.293   2.618  0.2146  0.2801 -0.6328
   91MOL    C5020030   7.401   4.071   2.580  0.3509 -0.5938  0.5562
   91MOL    H5120031   7.834   4.154   2.491  0.6130  0.3400  0.6145
   91MOL    H5220032   7.771   4.272   2.609  1.1896 -0.4726  0.6341
   91MOL    H5320033   7.618   4.068   2.429 -1.7536 -0.4366 -0.4807
   91MOL    H5420034   7.299   4.106   2.562  0.8158 -0.6107 -2.3567
   91MOL    H5520035   7.417   3.993   2.506 -3.4253 -1.7225  0.8060
   91MOL    H5620036   7.396   4.022   2.678 -1.2834 -0.2762  0.6506
   91MOL    C5720037   7.634   4.265   2.372  0.9162 -0.5227  0.5912
   91MOL    C5820038   7.518   4.318   2.289 -0.0638  0.6331 -0.8278
   91MOL    C5920039   7.569   4.432   2.196  0.0756 -0.6412 -0.5844
   91MOL    O6020040   7.584   4.418   2.072  0.1594 -0.6136  0.0727
   91MOL    C6120041   7.604   4.575   2.247 -0.2730  0.3017 -0.4432
   91MOL    H6220042   7.709   4.228   2.303 -0.6016  0.2057 -1.4861
   91MOL    H6320043   7.670   4.362   2.408 -2.4864  1.0774 -0.0802
   91MOL    H6420044   7.449   4.351   2.366  1.2229 -1.4029  1.2685
   91MOL    H6520045   7.548   4.620   2.329 -0.3422  0.6649 -0.6862
   91MOL    H6620046   7.708   4.593   2.273 -0.9055 -0.3887  2.7928
   91MOL    H6720047   7.590   4.633   2.156 -0.4624  1.4628  0.3174
   91MOL    C6820048   7.460   4.200   2.200  0.1230  0.3248  0.5218
   91MOL    C6920049   7.339   4.239   2.115 -0.4393 -0.1657  0.4290
   91MOL    C7020050   7.222   4.285   2.200  0.1299  0.5177  0.1227
   91MOL    O7120051   7.205   4.254   2.311  0.3449  0.5552  0.2247
   91MOL    C7220052   7.129   4.391   2.142  0.4196 -0.5276 -0.0776
   91MOL    H7320053   7.537   4.177   2.127  0.8009  0.1252  1.2832
   91MOL    H7420054   7.452   4.106   2.255  2.5823 -0.3201 -0.1322
   91MOL    H7520055   7.368   4.324   2.054  1.4243 -0.0486  1.4576
   91MOL    H7620056   7.040   4.347   2.097 -1.6277  2.4400  0.9371
   91MOL    H7720057   7.094   4.468   2.211  0.8183  1.0603 -1.6400
   91MOL    H7820058   7.176   4.443   2.059  0.0772  0.9034  0.6203
   91MOL    C7920059   7.296   4.132   2.014 -0.0181  0.4570  0.0504
   91MOL    C8020060   7.392   4.085   1.904  0.2400  0.0420  0.2962
   91MOL    C8120061   7.463   4.208   1.822  0.1817  0.2197  0.2576
   91MOL    O8220062   7.393   4.302   1.778  0.2511 -0.0907  0.6038
   91MOL    C8320063   7.611   4.190   1.791  0.1772 -0.1048  0.6530
   91MOL    H8420064   7.195   4.150   1.976 -1.4919 -0.2252  3.4586
   91MOL    H8520065   7.272   4.052   2.084  1.4628  0.7749  0.9415
   91MOL    H8620066   7.476   4.034   1.952  1.0491 -1.3124 -2.4517
   91MOL    H8720067   7.630   4.211   1.686 -1.6962 -3.1331 -0.3461
   91MOL    H8820068   7.642   4.089   1.817 -0.3055 -0.8545 -1.6187
   91MOL    H8920069   7.670   4.252   1.859  0.0981 -0.1866  0.7967
   91MOL    C9020070   7.322   3.976   1.815 -0.1689 -0.1995  1.0395
   91MOL    C9120071   7.352   3.967   1.665 -0.1181 -0.0034  0.4233
   91MOL    C9220072   7.342   3.816   1.626 -0.1744 -0.3148  0.3918
   91MOL    O9320073   7.235   3.758   1.619  0.5667 -0.1628  0.6128
   91MOL    C9420074   7.470   3.742   1.611  0.9548  0.4195  0.1235
   91MOL    H9520075   7.350   3.878   1.853 -1.3111 -1.8002 -2.0291
   91MOL    H9620076   7.218   3.975   1.848 -0.0455  0.9160  1.4712
   91MOL    H9720077   7.451   4.004   1.637 -0.0236 -1.1112 -0.7459
   91MOL    H9820078   7.483   3.689   1.517  2.4504  0.2700  0.3930
   91MOL    H9920079   7.555   3.811   1.619  0.4415  0.9494  1.0985
   91MOL   H10020080   7.479   3.671   1.693  0.7896  0.4565  0.1742
   91MOL   C10120081   7.248   4.046   1.583 -0.2610  0.3181 -0.0179
   91MOL   C10220082   7.253   4.030   1.430 -0.1473 -0.8163 -0.4547
   91MOL   C10320083   7.299   4.172   1.377 -0.2984  0.2388 -1.0067
   91MOL   O10420084   7.246   4.227   1.288  0.1905  0.2853 -0.0650
   91MOL   C10520085   7.428   4.233   1.421  0.1515  0.2957  0.0481
   91MOL   H10620086   7.156   4.014   1.632  0.2559  0.4314  1.0396
   91MOL   H10720087   7.248   4.150   1.615 -2.2166 -0.6434  3.3382
   91MOL   H10820088   7.337   3.964   1.409 -2.7378 -4.7823  1.0605
   91MOL   H10920089   7.481   4.163   1.486 -1.2327 -1.9538 -1.1716
   91MOL   H11020090   7.503   4.249   1.344  1.9018  0.0957  1.6675
   91MOL   H11120091   7.408   4.319   1.485  3.5149  0.2556  1.2518
   91MOL   C11220092   7.127   3.969   1.369 -0.2392  0.1935 -0.2983
   91MOL   C11320093   7.127   3.940   1.211  0.2229  0.3736  0.3942
   91MOL   C11420094   6.979   3.963   1.164  0.4405 -0.5241  0.3243
   91MOL   O11520095   6.906   3.869   1.134 -0.3495 -0.7115  0.3036
   91MOL   C11620096   6.926   4.100   1.167  0.2109  0.5763 -0.1507
   91MOL   H11720097   7.051   4.038   1.403  0.5714  0.2826  1.3567
   91MOL   H11820098   7.097   3.880   1.424 -0.2412 -0.8007 -1.8599
   91MOL   H11920099   7.188   4.016   1.162 -0.8263 -0.3307 -2.0971
   91MOL   H12020100   6.901   4.143   1.264  2.4347  0.3253  0.5703
   91MOL   H12120101   7.011   4.159   1.135  2.3485 -1.5954  1.3409
   91MOL   H12220102   6.843   4.099   1.096 -0.7688  2.0500  0.9410
   91MOL   C12320103   7.196   3.811   1.171 -0.1930  0.4062  0.2427
   91MOL   C12420104   7.350   3.825   1.135 -0.3662 -0.2793  0.1652
   91MOL   C12520105   7.361   3.813   0.980 -0.1113 -0.5301  0.4365
   91MOL   O12620106   7.401   3.711   0.928  0.2330  0.1238  0.0993
   91MOL   C12720107   7.324   3.934   0.896  0.1705  0.1040 -0.3221
   91MOL   H12820108   7.150   3.768   1.082  2.1074 -1.6518 -0.0016
   91MOL   H12920109   7.186   3.746   1.259  0.9233  1.9597  1.5439
   91MOL   H13020110   7.381   3.927   1.160  1.9970 -1.1569  0.9783
   91MOL   H13120111   7.216   3.948   0.902 -0.2064 -2.0411 -1.3546
   91MOL   H13220112   7.359   3.922   0.793  1.3520  0.9875 -0.0323
   91MOL   H13320113   7.363   4.032   0.919  0.5839 -0.2412  0.4554
   91MOL   C13420114   7.439   3.727   1.216 -0.1920  0.0199 -0.1796
   91MOL   C13520115   7.589   3.754   1.218 -0.0933 -0.4867 -0.2260
   91MOL   C13620116   7.632   3.881   1.298 -0.4027  0.0828 -0.7970
   91MOL   O13720117   7.561   3.928   1.390  0.8640 -0.1992 -0.0433
   91MOL   C13820118   7.746   3.966   1.250 -0.3336 -0.0031  0.8684
   91MOL   H13920119   7.428   3.630   1.167  0.7278 -0.2505  0.1409
   91MOL   H14020120   7.397   3.724   1.316 -2.7793  0.8565 -1.1995
   91MOL   H14120121   7.623   3.776   1.117  2.7063 -0.9803  0.5693
   91MOL   H14220122   7.734   4.073   1.232  0.5740 -0.1927 -1.0112
   91MOL   H14320123   7.786   3.931   1.155 -0.3766  0.9591  0.4889
   91MOL   H14420124   7.827   3.968   1.323  2.6276 -1.8072 -2.2406
   91MOL   C14520125   7.671   3.634   1.263  0.1039 -0.0277  0.6384
   91MOL   C14620126   7.696   3.534   1.144  0.6940  0.1078  0.3895
   91MOL   C14720127   7.771   3.594   1.029  0.1874  0.0233  1.2019
   91MOL   O14820128   0.033   3.623   1.027 -0.0841  0.1359 -0.8775
   91MOL   C14920129   7.688   3.621   0.904  0.3875 -0.3598 -0.1971
   91MOL   H15020130   7.628   3.583   1.350 -0.1339  0.8725  1.0558
   91MOL   H15120131   7.770   3.660   1.300  0.3696 -1.9501  1.3421
   91MOL   H15220132   7.592   3.504   1.125  0.0194  1.5268  1.7330
   91MOL   H15320133   7.608   3.548   0.895  1.1098 -1.3348  1.1417
   91MOL   H15420134   7.628   3.711   0.910  0.6834 -0.1905  0.2209
   91MOL   H15520135   7.752   3.618   0.815  1.0030  1.1112  0.1766
   91MOL   C15620136   7.786   3.417   1.191  0.2648 -0.3607  0.1026
   91MOL   C15720137   7.790   3.294   1.096  0.2070 -0.1435 -0.9793
   91MOL   C15820138   7.668   3.200   1.092  0.0664  0.5692 -0.3085
   91MOL   O15920139   7.635   3.146   1.200  0.0942  0.1755  0.1115
   91MOL   C16020140   7.617   3.155   0.956  0.2349 -0.3990 -0.8207
   91MOL   H16120141   0.029   3.452   1.214  0.6277 -1.0817 -0.3471
   91MOL   H16220142   7.744   3.397   1.290 -2.0520  2.8281 -0.1663
   91MOL   H16320143   7.798   3.328   0.993  1.2107 -0.9224 -1.1724
   91MOL   H16420144   7.510   3.178   0.950 -0.1087 -2.2038 -2.2869
   91MOL   H16520145   7.628   3.047   0.942 -0.3262 -0.6943  0.9219
   91MOL   H16620146   7.663   3.205   0.871 -0.3269  0.8944 -0.3643
   91MOL   C16720147   0.062   3.212   1.111 -0.6954 -0.0773 -0.2967
   91MOL   C16820148   0.111   3.179   1.252 -0.0089  0.5716 -0.5770
   91MOL   C16920149   0.267   3.198   1.259 -0.3364  0.1748  0.7642
   91MOL   O17020150   0.337   3.104   1.238 -0.1268 -0.1416  0.8167
   91MOL   C17120151   0.325   3.328   1.293 -0.5217 -0.0210 -0.4317
   91MOL   H17220152   0.052   3.120   1.053 -0.1753 -0.8398  0.7757
   91MOL   H17320153   0.130   3.280   1.059 -0.0360  0.2196  0.9243
   91MOL   H17420154   0.080   3.259   1.320  0.7720  0.0582  0.3930
   91MOL   H17520155   0.434   3.331   1.290 -0.4849 -0.7398  0.1480
   91MOL   H17620156   0.296   3.360   1.393  1.8703 -0.7470  0.5196
   91MOL   H17720157   0.292   3.398   1.216  0.0171 -0.6019 -1.1901
   91MOL   C17820158   0.067   3.038   1.297 -0.5583 -0.0278  0.2227
   91MOL   C17920159   0.100   3.015   1.446  0.1615  0.1082 -0.4119
   91MOL   C18020160   0.147   2.868   1.476 -0.1974 -0.3854  0.1493
   91MOL   O18120161   0.092   2.792   1.555 -0.3368  0.5012 -0.1853
   91MOL   C18220162   0.279   2.830   1.411  0.4599  0.0364 -0.0123
   91MOL   H18320163   7.821   3.005   1.286 -0.4246 -0.4059  0.0968
   91MOL   H18420164   0.127   2.988   1.221 -0.5819 -0.3027  0.3849
   91MOL   H18520165   0.191   3.065   1.479  0.8077 -0.7610 -0.8423
   91MOL   H18620166   0.320   2.744   1.465 -1.5320 -1.7211 -1.2342
   91MOL   H18720167   0.355   2.908   1.413  0.7791 -0.2922  1.0260
   91MOL   H18820168   0.254   2.795   1.311  1.0791  0.3731 -0.2854
   91MOL   C18920169   7.839   3.065   1.535 -0.4187 -0.3822 -0.9219
   91MOL   C19020170   0.034   3.097   1.676  0.2837  0.0532 -0.7890
   91MOL   C19120171   0.121   3.217   1.681  0.0575 -0.6730  0.7033
   91MOL   O19220172   0.120   3.301   1.590  0.3207 -0.1986 -0.4454
   91MOL   C19320173   0.213   3.234   1.799 -0.6583  0.0278 -0.1636
   91MOL   H19420174   7.805   3.162   1.499  2.1594  0.8742 -0.0470
   91MOL   H19520175   7.754   2.996   1.533 -0.3296 -0.5282  0.2473
   91MOL   H19620176   0.091   3.008   1.702 -1.3830 -1.3091 -1.6855
   91MOL   H19720177   0.217   3.142   1.858  1.8080  0.5612  0.5488
   91MOL   H19820178   0.313   3.276   1.785  0.4549 -2.7431 -1.0748
   91MOL   H19920179   0.164   3.308   1.861 -1.7990 -1.2096  0.4388
   91MOL   C20020180   7.770   3.104   1.782 -0.2446  0.2584  0.5079
   91MOL   C20120181   7.650   3.204   1.749 -0.0637  0.1343  0.1608
   91MOL   C20220182   7.688   3.349   1.781  0.2877  0.1285 -0.2957
   91MOL   O20320183   7.711   3.372   1.896  0.4533  0.3671  0.6608
   91MOL   C20420184   7.685   3.456   1.678 -0.6017  0.4491 -0.2039
   91MOL   H20520185   7.722   3.006   1.786  3.9635 -1.9572 -0.7397
   91MOL   H20620186   7.809   3.121   1.882 -0.2347  0.4467  0.4740
   91MOL   H20720187   7.625   3.196   1.643  2.4724 -0.5728 -0.4196
   91MOL   H20820188   7.706   3.547   1.735  2.3533  1.2098 -2.3504
   91MOL   H20920189   7.762   3.439   1.603 -0.0622  0.6887  0.2909
   91MOL   H21020190   7.585   3.476   1.640 -1.2301  1.3316  1.8703
   91MOL   C21120191   7.525   3.168   1.836 -0.1246  0.2639  0.2080
   91MOL   C21220192   7.400   3.239   1.786 -0.0845  0.0617 -0.4861
   91MOL   C21320193   7.274   3.197   1.859 -0.8151 -0.3980 -0.0063
   91MOL   O21420194   7.272   3.152   1.972  0.1514  0.0004  0.4533
   91MOL   C21520195   7.143   3.227   1.778 -0.8622 -0.3290  0.0097
   91MOL   H21620196   7.508   3.061   1.822 -1.4971  0.3075  1.3596
   91MOL   H21720197   7.546   3.180   1.943 -0.9175  2.9718  0.1088
   91MOL   H21820198   7.396   3.214   1.680 -0.0625 -1.2354 -0.1877
   91MOL   H21920199   7.135   3.322   1.726  0.3081  1.2068  2.5560
   91MOL   H22020200   7.122   3.149   1.705  0.8357 -0.7603 -0.0361
   91MOL   H22120201   7.069   3.221   1.858 -0.1438  0.7145  0.7660
   91MOL   H22220202   7.424   3.344   1.802  0.3602 -0.1348  0.1381
   92MOL     C120203   4.214   5.465   6.295 -0.1004  0.2372  0.0430
   92MOL     C220204   4.235   5.478   6.449  0.0989  1.1317 -0.0655
   92MOL     C320205   4.357   5.386   6.486  0.3443 -0.1570  0.7034
   92MOL     O420206   4.461   5.386   6.425 -0.1389 -0.5149  0.0298
   92MOL     C520207   4.345   5.297   6.615  0.0651  0.5964 -0.3831
   92MOL     H620208   4.208   5.364   6.255  0.9230  0.0108  0.4552
   92MOL     H720209   4.300   5.514   6.249  1.2887  0.5975  2.9248
   92MOL     H820210   4.153   5.431   6.503 -0.9213  0.3437 -2.2233
   92MOL     H920211   4.434   5.236   6.603  0.4074  0.8471  0.8741
   92MOL    H1020212   4.362   5.358   6.704 -1.4018 -0.8959  0.9600
   92MOL    H1120213   4.254   5.237   6.617 -1.1808  2.4316  1.9670
   92MOL    H1220214   4.124   5.523   6.275  0.4769  1.1945  0.1946
   92MOL    C1320215   4.257   5.623   6.491  0.6807 -0.9337 -0.5386
   92MOL    C1420216   4.294   5.653   6.638 -0.0980 -0.1956 -1.1806
   92MOL    C1520217   4.178   5.623   6.730  0.0805 -0.3250 -0.9291
   92MOL    O1620218   4.062   5.662   6.709 -0.7516  0.4935  0.1083
   92MOL    C1720219   4.213   5.566   6.863  0.2934  0.1412  0.4779
   92MOL    H1820220   4.339   5.655   6.426  0.8045  1.0241  0.5239
   92MOL    H1920221   4.164   5.669   6.459  0.0549 -0.8626  1.3158
   92MOL    H2020222   4.367   5.582   6.678  0.3055  1.6553  1.4338
   92MOL    H2120223   4.247   5.645   6.929 -0.1986 -0.8587  1.9392
   92MOL    H2220224   4.127   5.520   6.912  0.5617 -0.4357  0.4230
   92MOL    H2320225   4.288   5.487   6.858 -1.9068 -2.0362  0.7383
   92MOL    C2420226   4.362   5.793   6.663 -0.3580  0.8369  0.1851
   92MOL    C2520227   4.300   5.903   6.581 -0.1298 -0.1651 -0.2523
   92MOL    C2620228   4.255   6.028   6.665 -0.2871 -0.3472  0.4596
   92MOL    O2720229   4.338   6.092   6.735  0.7614 -0.0986 -0.0992
   92MOL    C2820230   4.106   6.057   6.661 -0.5040  0.1490 -0.2165
   92MOL    H2920231   4.383   5.828   6.764  0.7150 -0.0543  0.2781
   92MOL    H3020232   4.466   5.782   6.632 -0.9685 -1.7782 -1.0517
   92MOL    H3120233   4.209   5.861   6.537  0.9835 -0.0138 -2.8261
   92MOL    H3220234   4.055   6.053   6.757 -0.7920  0.1043 -0.3714
   92MOL    H3320235   4.103   6.160   6.625  0.7733  0.2876  0.0654
   92MOL    H3420236   4.057   6.000   6.582  1.5893  0.0295 -1.4640
   92MOL    C3520237   4.387   5.952   6.464 -0.1082 -0.9466 -0.5878
   92MOL    C3620238   4.308   6.015   6.338 -0.3329  0.2193 -0.2469
   92MOL    C3720239   4.419   6.089   6.256  0.1498 -0.3689  0.5548
   92MOL    O3820240   4.460   6.041   6.154 -0.2737  0.0007  0.6320
   92MOL    C3920241   4.485   6.208   6.315 -0.1293 -0.0121 -0.2983
   92MOL    H4020242   4.437   5.862   6.428  0.8912  0.4331 -2.7981
   92MOL    H4120243   4.468   6.018   6.497 -0.5415 -1.3470  1.3117
   92MOL    H4220244   4.235   6.084   6.382 -2.6066 -1.6173 -1.0489
   92MOL    H4320245   4.541   6.257   6.235  3.0552  0.4298  2.0887
   92MOL    H4420246   4.552   6.182   6.398 -0.8091 -1.4991 -0.2007
   92MOL    H4520247   4.405   6.272   6.352  0.0822 -0.0290  0.1901
   92MOL    C4620248   4.234   5.907   6.255  0.0522 -0.1129  0.0372
   92MOL    C4720249   4.136   5.958   6.148 -0.4867  0.3248  0.4615
   92MOL    C4820250   4.082   5.832   6.079 -0.3821 -0.4103 -1.1710
   92MOL    O4920251   3.985   5.776   6.124 -0.0426  0.3894  0.6117
   92MOL    C5020252   4.148   5.779   5.956  0.1988  0.3128  0.8350
   92MOL    H5120253   4.168   5.845   6.315 -0.6589  0.1363 -0.4828
   92MOL    H5220254   4.307   5.837   6.217  0.7055  0.3047  0.4996
   92MOL    H5320255   4.186   6.011   6.067  0.1762 -1.7027 -0.4734
   92MOL    H5420256   4.131   5.672   5.946  0.6262  0.3218  0.0021
   92MOL    H5520257   4.106   5.820   5.864  3.9179 -0.1435 -1.1687
   92MOL    H5620258   4.254   5.802   5.946 -0.2570  1.4408 -1.7554
   92MOL    C5720259   4.020   6.046   6.201  0.0551  0.4868 -0.1453
   92MOL    C5820260   4.058   6.195   6.195 -0.3021  0.0413  1.0873
   92MOL    C5920261   4.045   6.254   6.051  0.0841 -0.1685 -0.3352
   92MOL    O6020262   3.935   6.279   5.998 -0.5157 -0.2264  0.5157
   92MOL    C6120263   4.172   6.280   5.970 -0.5324  0.0007  0.1406
   92MOL    H6220264   3.980   6.008   6.295  1.5130  1.7559  1.0116
   92MOL    H6320265   3.935   6.027   6.135  0.7953 -0.8001 -0.7601
   92MOL    H6420266   4.162   6.205   6.227  0.7586 -0.4612 -2.0881
   92MOL    H6520267   4.226   6.374   5.986 -0.8863  0.2855 -0.3237
   92MOL    H6620268   4.247   6.211   6.009 -0.4401  0.6956  1.2331
   92MOL    H6720269   4.163   6.266   5.863 -0.0664 -0.3444  0.1454
   92MOL    C6820270   3.963   6.266   6.296 -0.3079  0.0642 -0.3568
   92MOL    C6920271   3.992   6.415   6.323  0.7246 -0.0521 -0.7622
   92MOL    C7020272   4.135   6.446   6.367  0.2340 -0.3848 -0.2424
   92MOL    O7120273   4.196   6.371   6.442  0.0274  0.5391 -0.3618
   92MOL    C7220274   4.203   6.573   6.321 -0.6245  0.1367  0.3928
   92MOL    H7320275   3.859   6.248   6.268 -1.6035  1.9844  2.9541
   92MOL    H7420276   3.982   6.220   6.393  4.2045  1.0889 -0.6723
   92MOL    H7520277   3.982   6.471   6.229  1.8570 -0.3559 -1.0757
   92MOL    H7620278   4.151   6.607   6.231  0.2141  1.2890  0.3306
   92MOL    H7720279   4.187   6.657   6.389 -1.0539  0.4637 -0.1097
   92MOL    H7820280   4.309   6.565   6.294 -1.4733 -1.9598 -2.5578
   92MOL    C7920281   3.898   6.461   6.440 -0.0448  0.1512  0.2224
   92MOL    C8020282   3.747   6.454   6.407  0.0517  0.2798 -0.1213
   92MOL    C8120283   3.711   6.566   6.312  0.7590 -0.1594 -0.1285
   92MOL    O8220284   3.772   6.672   6.315 -0.5272  0.0002 -0.2000
   92MOL    C8320285   3.609   6.535   6.203 -0.5032  0.2817  0.2939
   92MOL    H8420286   3.918   6.561   6.478 -0.9260  0.1941  0.5818
   92MOL    H8520287   3.920   6.389   6.518  3.8212  0.9137 -0.1048
   92MOL    H8620288   3.731   6.361   6.353  1.1598  0.1961 -0.3334
   92MOL    H8720289   3.608   6.620   6.135 -2.8235 -1.0793 -1.4645
   92MOL    H8820290   3.509   6.512   6.240 -0.8192 -2.5096 -2.0836
   92MOL    H8920291   3.634   6.448   6.142 -2.1647 -0.7240  1.0158
   92MOL    C9020292   3.665   6.451   6.539 -0.3666  0.2481  0.0762
   92MOL    C9120293   3.537   6.357   6.543 -0.0189  0.2745 -0.2131
   92MOL    C9220294   3.583   6.216   6.520 -0.9512 -0.3950  0.2894
   92MOL    O9320295   3.659   6.162   6.602 -0.2886  0.4607 -0.4563
   92MOL    C9420296   3.534   6.143   6.393 -0.4544 -0.1086  0.2359
   92MOL    H9520297   3.720   6.438   6.632  1.6738 -0.8857 -1.2573
   92MOL    H9620298   3.640   6.555   6.560  2.5371  0.5722  2.2401
   92MOL    H9720299   3.473   6.378   6.458 -0.7096 -0.1182  0.2129
   92MOL    H9820300   3.525   6.034   6.396 -1.3357  0.0190  2.8691
   92MOL    H9920301   3.441   6.182   6.351 -1.2432 -0.2765  1.8001
   92MOL   H10020302   3.613   6.159   6.319  0.6149 -3.1915  0.6250
   92MOL   C10120303   3.466   6.367   6.673 -0.3016 -0.2049  0.5053
   92MOL   C10220304   3.391   6.502   6.713  0.0068  0.0946  0.5505
   92MOL   C10320305   3.411   6.545   6.859  0.7077 -0.6750 -0.2222
   92MOL   O10420306   3.442   6.472   6.947 -0.0477  0.0144 -0.2704
   92MOL   C10520307   3.360   6.692   6.882  0.2801  0.0682  0.1331
   92MOL   H10620308   3.395   6.285   6.681  0.3563 -0.6711  1.8354
   92MOL   H10720309   3.547   6.355   6.745 -0.3876 -0.6721  0.5325
   92MOL   H10820310   3.436   6.585   6.658  0.9165  1.0290  2.6649
   92MOL   H10920311   3.309   6.738   6.797 -0.1431  1.5695  1.1714
   92MOL   H11020312   3.287   6.701   6.963  1.3067  1.9236  0.8915
   92MOL   H11120313   3.449   6.745   6.917  0.9262 -1.1008  0.2674
   92MOL   C11220314   3.240   6.480   6.685  0.3731 -0.9400  0.0442
   92MOL   C11320315   3.184   6.511   6.539  0.9539  0.2892 -0.1454
   92MOL   C11420316   3.231   6.647   6.474 -0.3492  0.4646  0.0923
   92MOL   O11520317   3.306   6.644   6.371  0.1096 -0.5572 -0.3494
   92MOL   C11620318   3.169   6.780   6.521  0.0383 -0.0026  0.3084
   92MOL   H11720319   3.181   6.541   6.754 -0.0677  0.5809 -1.6462
   92MOL   H11820320   3.218   6.378   6.718  1.6445 -1.8516 -1.8450
   92MOL   H11920321   3.239   6.434   6.486  2.0802  0.2750  1.0257
   92MOL   H12020322   3.133   6.765   6.623  1.0493  1.7943  0.9738
   92MOL   H12120323   3.248   6.854   6.536  1.7395 -1.7873  0.3435
   92MOL   H12220324   3.089   6.821   6.459 -0.6079 -0.1844  1.0119
   92MOL   C12320325   3.032   6.488   6.528  0.5260 -0.4201 -0.4118
   92MOL   C12420326   2.948   6.514   6.393 -0.4451  0.4484  0.1212
   92MOL   C12520327   2.799   6.485   6.430 -0.3519  0.5602  0.4117
   92MOL   O12620328   2.749   6.371   6.436  0.0496  0.2665 -0.7155
   92MOL   C12720329   2.709   6.592   6.484 -0.2198  0.3962  0.6641
   92MOL   H12820330   2.983   6.554   6.600  0.7490  0.8396 -1.3851
   92MOL   H12920331   3.009   6.387   6.561  0.0428 -0.5917 -1.2464
   92MOL   H13020332   2.952   6.620   6.367  1.5364  0.9239  2.1811
   92MOL   H13120333   2.767   6.669   6.535  0.0911 -1.2007  2.7448
   92MOL   H13220334   2.641   6.563   6.564  0.6022 -0.5835  1.0162
   92MOL   H13320335   2.652   6.639   6.403  1.4644  3.0461  0.9541
   92MOL   C13420336   3.005   6.438   6.264 -0.5870  0.1996 -1.1700
   92MOL   C13520337   2.957   6.492   6.128 -0.0428 -0.4975  0.8743
   92MOL   C13620338   2.814   6.449   6.100 -0.0226  0.5861 -0.1850
   92MOL   O13720339   2.715   6.525   6.096 -0.1954 -0.3004  0.2287
   92MOL   C13820340   2.788   6.306   6.071  0.4271  0.7996  0.2792
   92MOL   H13920341   2.994   6.330   6.276  0.6680  0.2921  1.2195
   92MOL   H14020342   3.114   6.433   6.271 -0.5571  1.7596 -0.4271
   92MOL   H14120343   3.015   6.447   6.047  2.4570  0.4495  2.0982
   92MOL   H14220344   2.841   6.274   5.980  0.7546 -0.4060  0.8791
   92MOL   H14320345   2.681   6.287   6.059  0.7419 -0.7737 -0.2568
   92MOL   H14420346   2.820   6.254   6.161 -1.9920  0.3681  0.9307
   92MOL   C14520347   2.976   6.647   6.126 -0.3682 -0.1663 -0.0476
   92MOL   C14620348   3.025   6.708   5.990 -0.5283  0.3006  0.7337
   92MOL   C14720349   3.172   6.671   5.959 -0.5497 -0.3600 -0.0782
   92MOL   O14820350   3.195   6.565   5.902 -0.7479  0.5331 -0.3305
   92MOL   C14920351   3.282   6.778   5.979 -0.4475 -0.0399  0.3425
   92MOL   H15020352   3.056   6.685   6.189 -1.1907  0.6299  0.5270
   92MOL   H15120353   2.886   6.699   6.156 -1.6124 -1.8804 -0.7191
   92MOL   H15220354   3.031   6.815   6.009 -3.7261  0.7846 -0.5176
   92MOL   H15320355   3.292   6.804   5.874  0.3083  1.2211  0.7201
   92MOL   H15420356   3.254   6.861   6.043  0.2939  0.3666  0.1407
   92MOL   H15520357   3.376   6.734   6.014  0.3005  0.6954 -0.6822
   92MOL   C15620358   2.931   6.678   5.874  0.2406  0.3491  0.4688
   92MOL   C15720359   2.931   6.773   5.751 -0.3095  0.3247 -0.1852
   92MOL   C15820360   2.904   6.919   5.797  0.5935  0.2643  0.1044
   92MOL   O15920361   2.839   6.938   5.902 -0.3327 -0.1807  0.0195
   92MOL   C16020362   2.970   7.044   5.736  0.2373 -0.5576 -0.1622
   92MOL   H16120363   2.940   6.573   5.848  0.3061  0.9858 -2.3365
   92MOL   H16220364   2.830   6.682   5.914 -0.3560 -1.0744 -0.8740
   92MOL   H16320365   3.031   6.769   5.707 -0.3473 -0.1808 -0.2306
   92MOL   H16420366   2.893   7.082   5.669 -0.1364 -1.7810 -0.4274
   92MOL   H16520367   3.063   7.023   5.685  0.0485  0.0788 -0.7697
   92MOL   H16620368   2.997   7.105   5.823  1.5408  1.0778 -1.6780
   92MOL   C16720369   2.828   6.729   5.649  0.0493 -0.2326  0.4608
   92MOL   C16820370   2.855   6.773   5.503  0.1965  0.7617 -0.2011
   92MOL   C16920371   2.728   6.741   5.426 -0.3211 -1.0479  0.7736
   92MOL   O17020372   2.681   6.818   5.346  0.3908 -0.0572  0.6695
   92MOL   C17120373   2.659   6.605   5.448 -0.0740  0.1345 -0.4836
   92MOL   H17220374   2.824   6.620   5.658  2.4392 -0.1016  3.8867
   92MOL   H17320375   2.730   6.765   5.680  0.6274 -0.3648  2.5128
   92MOL   H17420376   2.850   6.880   5.483 -2.0769  0.2742 -2.5219
   92MOL   H17520377   2.585   6.580   5.372  0.9364 -2.5021 -0.6464
   92MOL   H17620378   2.594   6.602   5.536 -1.4469  2.0400 -1.3993
   92MOL   H17720379   2.723   6.517   5.453  0.0180  0.2278 -0.0294
   92MOL   C17820380   2.978   6.707   5.431 -0.1685  0.3473  0.7896
   92MOL   C17920381   2.993   6.742   5.281  0.6134  0.4456  0.0951
   92MOL   C18020382   2.945   6.626   5.183 -0.1712 -0.4695  0.0539
   92MOL   O18120383   2.881   6.536   5.228 -0.1894  0.0357  0.4662
   92MOL   C18220384   2.954   6.654   5.028 -0.1445 -0.9892 -0.1972
   92MOL   H18320385   3.062   6.751   5.485 -0.8856  2.7615  0.0140
   92MOL   H18420386   2.986   6.601   5.452 -0.1717  0.1205 -0.3328
   92MOL   H18520387   2.919   6.817   5.251  0.7698  0.1642 -1.0047
   92MOL   H18620388   3.029   6.596   4.974 -1.9471 -2.0852 -1.5944
   92MOL   H18720389   2.982   6.757   5.008  1.2968 -1.3472 -0.0454
   92MOL   H18820390   2.856   6.634   4.984 -0.5060  1.5468 -0.5773
   92MOL   C18920391   3.132   6.804   5.257  0.3313 -0.2349 -0.4043
   92MOL   C19020392   3.249   6.712   5.282  0.7380  0.0447  0.0716
   92MOL   C19120393   3.255   6.605   5.176 -0.2003 -0.0602  0.2272
   92MOL   O19220394   3.270   6.637   5.057 -0.2453  0.4139 -0.5837
   92MOL   C19320395   3.250   6.461   5.214  0.2145 -0.4723 -0.5095
   92MOL   H19420396   3.142   6.830   5.152  0.7940  2.6187  0.3017
   92MOL   H19520397   3.141   6.892   5.321  0.7001 -0.5935  0.0379
   92MOL   H19620398   3.235   6.654   5.373  1.8280 -1.5940 -0.7801
   92MOL   H19720399   3.353   6.433   5.235  0.5564  0.1766 -1.2787
   92MOL   H19820400   3.192   6.446   5.305 -0.0728  0.6611 -0.5023
   92MOL   H19920401   3.205   6.406   5.131 -1.2993  0.0418 -0.0299
   92MOL   C20020402   3.388   6.782   5.298 -0.4814 -0.0804  0.2384
   92MOL   C20120403   3.437   6.822   5.440 -0.2822  0.8600  0.6815
   92MOL   C20220404   3.338   6.921   5.512  0.4241  0.2718 -0.8775
   92MOL   O20320405   3.270   6.887   5.610 -0.4381 -0.3119 -0.3673
   92MOL   C20420406   3.327   7.059   5.445 -0.2038 -0.0146  0.0094
   92MOL   H20520407   3.461   6.716   5.251  1.4065  1.8865  0.3688
   92MOL   H20620408   3.377   6.871   5.237  1.1261  0.2281  0.3912
   92MOL   H20720409   3.422   6.733   5.501  0.4862  1.1075  1.2392
   92MOL   H20820410   3.293   7.052   5.341 -0.4577  0.9283  0.0310
   92MOL   H20920411   3.253   7.124   5.490 -0.5744 -0.6964  0.3825
   92MOL   H21020412   3.425   7.106   5.437 -1.0345  1.4109 -2.3564
   92MOL   C21120413   3.587   6.854   5.448 -0.4669 -0.1501 -0.2028
   92MOL   C21220414   3.628   6.917   5.585  0.3530 -0.3251 -0.0037
   92MOL   C21320415   3.780   6.919   5.611  0.0318 -0.3592  0.5582
   92MOL   O21420416   3.862   6.859   5.539  0.1214  0.0531 -0.5148
   92MOL   C21520417   3.828   6.995   5.739 -0.2123  0.8494 -0.2597
   92MOL   H21620418   3.632   6.755   5.438 -0.4700 -0.1509 -0.2047
   92MOL   H21720419   3.627   6.913   5.366  0.2087  0.5162  0.5857
   92MOL   H21820420   3.576   6.874   5.670 -1.4708 -0.5124 -1.1840
   92MOL   H21920421   3.750   7.063   5.774 -0.3689  1.4752 -1.7491
   92MOL   H22020422   3.844   6.922   5.818  0.5988 -0.0215 -1.2118
   92MOL   H22120423   3.923   7.045   5.722 -1.2891  2.3605 -2.1370
   92MOL   H22220424   3.586   7.017   5.596  1.2366 -0.0323  0.8053
   93MOL     C120425   2.157   1.548   1.267 -0.6106 -0.1706 -0.0206
   93MOL     C220426   2.139   1.429   1.362  0.3029  0.4544 -0.5410
   93MOL     C320427   2.247   1.325   1.343 -0.1823  0.4447 -0.7015
   93MOL     O420428   2.352   1.329   1.407 -0.1066  0.0453  0.0695
   93MOL     C520429   2.226   1.208   1.244  0.3845 -0.4818 -0.7027
   93MOL     H620430   2.256   1.593   1.269  0.8861 -3.2889 -0.8273
   93MOL     H720431   2.093   1.632   1.296 -2.0023 -1.4387  0.6383
   93MOL     H820432   2.046   1.378   1.336  1.2209 -1.8404  0.5373
   93MOL     H920433   2.162   1.142   1.303  0.1080 -0.3480 -0.8486
   93MOL    H1020434   2.162   1.251   1.166 -0.4006  2.2145  1.3317
   93MOL    H1120435   2.321   1.166   1.212  0.0753 -0.7619 -1.2621
   93MOL    H1220436   2.114   1.534   1.167 -1.7421  1.7354  0.1556
   93MOL    C1320437   2.119   1.469   1.516 -0.0569 -0.6236 -0.6529
   93MOL    C1420438   2.112   1.364   1.627 -0.0937 -0.0119 -0.3473
   93MOL    C1520439   1.997   1.266   1.611  0.2461  0.6577  0.1298
   93MOL    O1620440   2.018   1.151   1.577 -0.0248 -0.0881  0.4202
   93MOL    C1720441   1.854   1.318   1.624 -0.0039  0.5521 -0.4702
   93MOL    H1820442   2.200   1.535   1.545  1.1946 -0.7299 -3.7351
   93MOL    H1920443   2.037   1.539   1.529  1.4892  1.1239 -0.2035
   93MOL    H2020444   2.208   1.313   1.622 -0.0488  0.2905 -4.1473
   93MOL    H2120445   1.808   1.265   1.707 -0.1513  0.3263 -0.6956
   93MOL    H2220446   1.853   1.427   1.634  0.4606  0.3919  1.5866
   93MOL    H2320447   1.807   1.293   1.529  1.0248  0.0006 -0.8347
   93MOL    C2420448   2.112   1.432   1.770  0.2518 -0.0963 -0.4982
   93MOL    C2520449   2.226   1.526   1.802 -0.3580  0.1309 -0.9535
   93MOL    C2620450   2.184   1.620   1.921 -0.0748  0.2721  0.0603
   93MOL    O2720451   2.205   1.575   2.036  0.1374  0.0641 -0.9233
   93MOL    C2820452   2.135   1.765   1.889 -0.8086 -0.4916  0.7884
   93MOL    H2920453   2.014   1.476   1.787 -0.1348 -1.1794  0.1805
   93MOL    H3020454   2.107   1.359   1.851 -2.8360  2.0790  1.3965
   93MOL    H3120455   2.265   1.587   1.720 -1.7553  0.1661 -1.6041
   93MOL    H3220456   2.220   1.831   1.909  0.3187 -1.5176 -0.4797
   93MOL    H3320457   2.096   1.777   1.787 -1.5142 -3.8913  0.6146
   93MOL    H3420458   2.063   1.799   1.963 -0.8822  3.5550 -1.0032
   93MOL    C3520459   2.354   1.448   1.818 -0.0681  0.0649  0.1614
   93MOL    C3620460   2.478   1.514   1.760  0.0452  0.4996  0.3009
   93MOL    C3720461   2.519   1.639   1.847 -0.3132 -0.0454  0.1902
   93MOL    O3820462   2.543   1.629   1.968 -0.5056  0.0422  0.1048
   93MOL    C3920463   2.515   1.776   1.778 -0.5762 -0.3267  0.2624
   93MOL    H4020464   2.346   1.357   1.760 -0.1444  0.8799 -1.1345
   93MOL    H4120465   2.370   1.416   1.921  1.6680 -1.1619 -0.4627
   93MOL    H4220466   2.459   1.549   1.659  0.7898 -1.2452 -0.4720
   93MOL    H4320467   2.616   1.815   1.761 -1.7331  2.6655 -0.1034
   93MOL    H4420468   2.444   1.839   1.832 -0.4735  1.8343 -2.0225
   93MOL    H4520469   2.486   1.766   1.673 -2.7497 -0.6777  0.8767
   93MOL    C4620470   2.594   1.416   1.752 -0.3990 -0.9978  0.3050
   93MOL    C4720471   2.636   1.379   1.615  0.3983  0.4181  0.3426
   93MOL    C4820472   2.688   1.502   1.545 -0.2738 -0.0344 -0.4263
   93MOL    O4920473   2.731   1.606   1.607 -0.1750  0.3831 -0.5912
   93MOL    C5020474   2.685   1.491   1.390  1.2121 -0.0071  0.0363
   93MOL    H5120475   2.573   1.327   1.811 -0.6424 -1.1376  0.0096
   93MOL    H5220476   2.683   1.456   1.800 -0.3354 -0.8307  0.0486
   93MOL    H5320477   2.561   1.324   1.558  1.6441 -1.8748  0.8383
   93MOL    H5420478   2.779   1.527   1.349  0.1144  1.9536 -0.7898
   93MOL    H5520479   2.658   1.390   1.357 -0.9268  0.3819  0.5081
   93MOL    H5620480   2.616   1.557   1.339  0.6168  0.8907  1.9686
   93MOL    C5720481   2.761   1.285   1.605 -0.2312 -0.0809 -0.1847
   93MOL    C5820482   2.759   1.165   1.694  0.0878  0.8854 -0.0106
   93MOL    C5920483   2.627   1.078   1.684 -0.3211 -0.5139  0.4860
   93MOL    O6020484   2.573   1.051   1.788  0.4211  0.0159 -0.7274
   93MOL    C6120485   2.563   1.037   1.546  0.2977 -0.4514 -0.0900
   93MOL    H6220486   2.857   1.333   1.623  0.4266 -0.7673 -1.7780
   93MOL    H6320487   2.767   1.240   1.506  0.1284  0.5477 -0.4515
   93MOL    H6420488   2.765   1.200   1.796  0.2821 -0.4696  0.4634
   93MOL    H6520489   2.518   0.940   1.563  1.3788 -0.7021  1.3883
   93MOL    H6620490   2.489   1.111   1.517  0.9214  0.7423  1.2852
   93MOL    H6720491   2.646   1.031   1.475  1.5306  1.6151  1.0918
   93MOL    C6820492   2.882   1.072   1.668 -0.2983  0.5758 -0.1999
   93MOL    C6920493   2.910   0.960   1.769 -0.6129  0.1064 -0.2914
   93MOL    C7020494   2.947   1.026   1.906 -0.2388 -1.2641 -0.9745
   93MOL    O7120495   3.041   1.103   1.921 -0.1070 -0.3256 -0.1635
   93MOL    C7220496   2.862   0.995   2.031  1.0185 -0.1247  0.8404
   93MOL    H7320497   2.860   1.018   1.576 -0.3613  0.4594 -0.1166
   93MOL    H7420498   2.979   1.115   1.644  0.3821 -1.7790 -1.7981
   93MOL    H7520499   2.818   0.903   1.778 -1.6231  1.4384 -1.8035
   93MOL    H7620500   2.757   0.999   2.004  1.6182 -0.4974 -1.6499
   93MOL    H7720501   2.880   0.895   2.069 -3.6133 -1.4467 -0.1198
   93MOL    H7820502   2.877   1.074   2.105  3.8150 -0.9382  1.1806
   93MOL    C7920503   3.024   0.870   1.727  0.0228 -0.2761  0.6024
   93MOL    C8020504   3.031   0.726   1.789 -0.6522  0.1559 -0.5165
   93MOL    C8120505   3.107   0.717   1.926  0.8140 -0.1543  0.1020
   93MOL    O8220506   3.216   0.760   1.958  0.1534 -0.2096  0.0346
   93MOL    C8320507   3.033   0.654   2.043  0.3240 -0.5281 -0.1342
   93MOL    H8420508   3.115   0.929   1.726 -1.6281  2.3726  1.5132
   93MOL    H8520509   3.016   0.852   1.620  1.1604  1.4011  0.2290
   93MOL    H8620510   2.933   0.680   1.800 -0.2745 -0.5311  0.0686
   93MOL    H8720511   2.954   0.722   2.072  1.6032  1.5734 -1.4192
   93MOL    H8820512   3.113   0.643   2.116  0.0141  0.2305  0.3182
   93MOL    H8920513   3.006   0.553   2.013 -0.4779 -0.0966 -0.9020
   93MOL    C9020514   3.107   0.622   1.693  0.1968 -0.2678 -0.5614
   93MOL    C9120515   3.068   0.617   1.547  0.1793  0.4476  0.4391
   93MOL    C9220516   3.136   0.506   1.466  0.0143 -0.7201  0.0401
   93MOL    O9320517   3.072   0.410   1.428 -0.2153  0.0922  0.4226
   93MOL    C9420518   3.276   0.530   1.434 -0.3596  0.1465  0.3337
   93MOL    H9520519   3.215   0.636   1.694  0.3493 -1.3167  2.0460
   93MOL    H9620520   3.094   0.522   1.734 -0.0242  2.5569  7.1525
   93MOL    H9720521   3.115   0.706   1.504  1.2952 -1.1381 -1.6867
   93MOL    H9820522   3.336   0.440   1.447 -1.7695 -0.4063  3.5640
   93MOL    H9920523   3.280   0.586   1.341  0.9589 -0.6664 -0.1096
   93MOL   H10020524   3.319   0.598   1.508  1.8225 -0.4043 -0.3762
   93MOL   C10120525   2.911   0.617   1.531  0.0176 -0.0993 -0.2827
   93MOL   C10220526   2.862   0.641   1.382 -0.2934 -0.0641 -0.0064
   93MOL   C10320527   2.915   0.773   1.323  0.5980 -0.4094  0.0328
   93MOL   O10420528   2.946   0.874   1.390  0.0471  0.5660  0.5230
   93MOL   C10520529   2.910   0.790   1.174 -0.6593  0.1312 -0.1368
   93MOL   H10620530   2.872   0.523   1.571 -0.9803  1.2999  2.1319
   93MOL   H10720531   2.869   0.694   1.595 -3.1583 -2.0350  0.0709
   93MOL   H10820532   2.901   0.566   1.313  1.2910  0.4562  0.3138
   93MOL   H10920533   2.833   0.867   1.165  1.8846  2.9698  1.3045
   93MOL   H11020534   3.007   0.831   1.146 -1.3926  2.5634  0.7483
   93MOL   H11120535   2.895   0.697   1.120  0.2441 -0.8073  1.1842
   93MOL   C11220536   2.708   0.636   1.374  0.0328 -0.5879 -0.1375
   93MOL   C11320537   2.645   0.495   1.374 -0.7123 -0.4408 -0.2435
   93MOL   C11420538   2.692   0.411   1.251  0.3465 -0.1276  0.5171
   93MOL   O11520539   2.745   0.459   1.150  0.1088 -0.5143 -0.5182
   93MOL   C11620540   2.669   0.257   1.263 -0.1682 -0.2705 -0.6043
   93MOL   H11720541   2.680   0.682   1.280  2.9411  0.6453 -0.4479
   93MOL   H11820542   2.670   0.693   1.459  1.1174  1.0986 -0.7772
   93MOL   H11920543   2.687   0.431   1.452 -0.4793  1.6972  1.4768
   93MOL   H12020544   2.675   0.219   1.366  1.2470 -0.7630 -0.8567
   93MOL   H12120545   2.572   0.248   1.215 -1.2078  0.5516  1.2567
   93MOL   H12220546   2.738   0.197   1.204 -2.2591 -3.4141 -0.0055
   93MOL   C12320547   2.491   0.507   1.389  0.5617 -0.7384  0.0773
   93MOL   C12420548   2.430   0.570   1.260 -0.0061 -0.5492  0.2621
   93MOL   C12520549   2.399   0.715   1.275  0.0438 -0.2680  0.0950
   93MOL   O12620550   2.402   0.773   1.383 -0.0150  0.3042 -0.3465
   93MOL   C12720551   2.349   0.796   1.154 -0.6018  0.1605  0.0085
   93MOL   H12820552   2.464   0.552   1.485 -0.8851 -0.9651 -0.2050
   93MOL   H12920553   2.456   0.404   1.390 -1.6230 -0.0491 -1.9851
   93MOL   H13020554   2.492   0.559   1.170  0.1444 -0.3469  0.3405
   93MOL   H13120555   2.250   0.835   1.176 -1.8868 -2.2328 -1.3888
   93MOL   H13220556   2.354   0.753   1.054 -0.6237  1.0729 -0.3919
   93MOL   H13320557   2.416   0.882   1.159  1.6874 -1.5663  0.0674
   93MOL   C13420558   2.309   0.490   1.220 -0.0472 -0.5309 -0.6117
   93MOL   C13520559   2.192   0.475   1.318 -0.3990  0.7922  0.2398
   93MOL   C13620560   2.094   0.591   1.313 -0.3314 -0.0421 -0.0255
   93MOL   O13720561   2.012   0.600   1.219 -0.4655 -0.2229 -0.3689
   93MOL   C13820562   2.093   0.692   1.421  0.3926  0.1562  0.1717
   93MOL   H13920563   2.348   0.392   1.190  1.6705  0.4790 -1.7526
   93MOL   H14020564   2.271   0.525   1.124 -0.2876  1.2281  0.1239
   93MOL   H14120565   2.213   0.466   1.425  0.1609 -2.7123 -0.0970
   93MOL   H14220566   1.991   0.720   1.448 -0.2358 -1.2867 -0.7014
   93MOL   H14320567   2.152   0.775   1.381  0.7254 -0.3526 -0.3956
   93MOL   H14420568   2.147   0.647   1.505  1.8224 -0.1682 -0.9118
   93MOL   C14520569   2.106   0.349   1.291 -0.2835  0.4118  0.7724
   93MOL   C14620570   2.168   0.219   1.348  0.2138 -0.1533 -0.0865
   93MOL   C14720571   2.162   0.218   1.504  0.1328 -0.4802 -0.0694
   93MOL   O14820572   2.057   0.246   1.565 -0.3183  0.3712  0.1133
   93MOL   C14920573   2.286   0.172   1.585  0.1390  0.2521 -0.5222
   93MOL   H15020574   2.102   0.338   1.182 -0.9046  1.3308  0.6910
   93MOL   H15120575   2.006   0.354   1.334  0.2864 -2.2323  2.5076
   93MOL   H15220576   2.274   0.219   1.323  0.9799  1.5331  2.8641
   93MOL   H15320577   2.332   0.257   1.635 -1.4190  0.3267  0.8370
   93MOL   H15420578   2.251   0.109   1.666  0.8742  1.3119  0.6330
   93MOL   H15520579   2.365   0.120   1.530  2.2554  0.8289  1.8822
   93MOL   C15620580   2.082   0.100   1.289  0.2717 -0.4715  0.4424
   93MOL   C15720581   2.156   7.822   1.317 -0.3906 -0.0555 -0.5042
   93MOL   C15820582   2.283   7.811   1.229  0.5223  1.0176 -0.1771
   93MOL   O15920583   2.286   7.842   1.107 -0.4919 -0.4238 -0.0452
   93MOL   C16020584   2.405   7.776   1.311 -0.4556  0.1582  0.0499
   93MOL   H16120585   1.986   0.080   1.336 -0.6273 -0.3717 -1.3102
   93MOL   H16220586   2.050   0.116   1.186 -2.0661  0.2801  1.2584
   93MOL   H16320587   2.189   7.812   1.421 -1.5007  1.3085 -0.0120
   93MOL   H16420588   2.397   7.770   1.419 -0.2686  0.8003  0.1025
   93MOL   H16520589   2.489   7.839   1.281 -0.8019  0.6878  0.1864
   93MOL   H16620590   2.430   7.673   1.288 -0.2534  0.2004  0.0772
   93MOL   C16720591   2.062   7.709   1.278 -0.2661 -0.7387  0.0559
   93MOL   C16820592   2.104   7.569   1.318 -1.3006 -0.6749 -0.7201
   93MOL   C16920593   1.999   7.462   1.282 -0.4974  0.5583 -0.2483
   93MOL   O17020594   1.918   7.437   1.369 -0.5842 -1.0900 -0.3742
   93MOL   C17120595   1.992   7.402   1.136 -0.4498 -0.3381  0.0665
   93MOL   H17220596   1.967   7.732   1.326 -0.7301  1.4616 -1.8615
   93MOL   H17320597   2.043   7.703   1.171  1.5273  0.8685 -0.3651
   93MOL   H17420598   2.187   7.551   1.250  1.5180  0.0551  2.4003
   93MOL   H17520599   1.891   7.388   1.099 -0.7102  0.1326  0.5801
   93MOL   H17620600   2.014   7.296   1.145 -0.4338 -0.3619 -0.2823
   93MOL   H17720601   2.067   7.450   1.073 -1.2174  1.9657  0.8524
   93MOL   C17820602   2.162   7.558   1.465 -0.0011  0.4463  0.0458
   93MOL   C17920603   2.215   7.421   1.519 -0.1375 -0.3237  0.5555
   93MOL   C18020604   2.261   7.428   1.659  0.3772  0.7254  0.1366
   93MOL   O18120605   2.348   7.512   1.684 -0.3177  0.3684 -0.3846
   93MOL   C18220606   2.225   7.320   1.764 -0.2236  0.0385  1.0563
   93MOL   H18320607   2.256   7.613   1.467  0.2406  0.0104  0.9141
   93MOL   H18420608   2.090   7.603   1.534  0.8051  2.8869 -0.6478
   93MOL   H18520609   2.132   7.350   1.516  0.5607 -1.1035 -0.8752
   93MOL   H18620610   2.306   7.248   1.772  1.0636  1.1507 -1.3385
   93MOL   H18720611   2.132   7.272   1.735 -1.6511  2.5332  1.3048
   93MOL   H18820612   2.223   7.379   1.856 -1.2563 -0.1076  1.1315
   93MOL   C18920613   2.328   7.363   1.424 -0.4567  0.4574 -0.0768
   93MOL   C19020614   2.359   7.215   1.464  0.2449  0.5504 -0.1943
   93MOL   C19120615   2.245   7.100   1.444  1.0753 -0.5549 -0.0431
   93MOL   O19220616   2.208   7.044   1.538  0.6626  0.6313  0.2774
   93MOL   C19320617   2.169   7.089   1.321 -0.0108 -0.3467  0.1091
   93MOL   H19420618   2.289   7.357   1.322  1.2801 -0.2493 -0.7003
   93MOL   H19520619   2.417   7.425   1.422  0.5141 -0.9027  0.6400
   93MOL   H19620620   2.376   7.226   1.571  4.1225  0.1963 -0.6881
   93MOL   H19720621   2.234   7.088   1.234 -0.2863  1.3475 -0.1269
   93MOL   H19820622   2.111   6.998   1.333  0.0352 -0.2556  1.1396
   93MOL   H19920623   2.107   7.178   1.310  1.9050  1.0841  0.4507
   93MOL   C20020624   2.494   7.173   1.391  1.1147 -0.1314 -0.5505
   93MOL   C20120625   2.552   7.034   1.433 -0.2029 -0.2774  0.2488
   93MOL   C20220626   2.615   7.041   1.569 -0.0358  0.2622  0.1738
   93MOL   O20320627   2.731   7.078   1.591  0.1692  0.1319  0.1912
   93MOL   C20420628   2.528   7.001   1.686 -0.0038  0.2605  0.3505
   93MOL   H20520629   2.487   7.166   1.283 -1.3947 -1.3308 -0.3307
   93MOL   H20620630   2.569   7.248   1.415  3.9617 -3.1595  0.3417
   93MOL   H20720631   2.479   6.954   1.445  1.6725 -2.1577 -0.3610
   93MOL   H20820632   2.587   6.969   1.772 -0.1846 -1.0156  0.0187
   93MOL   H20920633   2.473   7.093   1.707 -1.0339  0.1768 -1.7883
   93MOL   H21020634   2.461   6.919   1.657  0.4667  0.3354 -0.9744
   93MOL   C21120635   2.647   6.973   1.321  0.3642  0.2371 -0.0026
   93MOL   C21220636   2.706   6.838   1.340 -0.1031  0.2964  0.0057
   93MOL   C21320637   2.827   6.822   1.244  0.1955  0.0385  0.0007
   93MOL   O21420638   2.822   6.842   1.122 -0.3396  0.0392  0.6993
   93MOL   C21520639   2.962   6.781   1.305  0.5760  0.3234 -0.1461
   93MOL   H21620640   2.581   6.962   1.235 -1.5354 -2.0215  1.6516
   93MOL   H21720641   2.711   7.055   1.289 -1.1933  1.9572  1.1120
   93MOL   H21820642   2.634   6.759   1.320  1.6530 -1.1361 -0.7788
   93MOL   H21920643   3.045   6.844   1.273  1.4758 -0.7337  0.0414
   93MOL   H22020644   2.967   6.775   1.414 -0.2789 -1.5656 -0.1971
   93MOL   H22120645   2.984   6.682   1.265  2.2006  1.6861 -2.7191
   93MOL   H22220646   2.734   6.819   1.443 -1.9151  1.7480  0.7984
   94MOL     C120647   2.033   3.849   7.228  0.1708 -0.7321  0.4289
   94MOL     C220648   2.109   3.833   7.360 -0.1445  0.0129 -0.1332
   94MOL     C320649   2.248   3.885   7.332  0.4653 -0.1067 -0.4073
   94MOL     O420650   2.279   3.935   7.223  0.2759 -0.1277  0.2893
   94MOL     C520651   2.352   3.858   7.437  0.6900  0.0384  0.5075
   94MOL     H620652   2.082   3.779   7.159 -1.3112 -0.8784 -0.5065
   94MOL     H720653   2.030   3.950   7.185  0.1646 -0.2103  1.6452
   94MOL     H820654   2.112   3.727   7.386  0.7674 -0.3398 -1.6501
   94MOL     H920655   2.350   3.934   7.515  1.5495  0.4861  0.1014
   94MOL    H1020656   2.328   3.756   7.468 -2.5161  0.9788  1.3737
   94MOL    H1120657   2.449   3.839   7.392  2.2403 -0.8465  4.1267
   94MOL    H1220658   1.929   3.818   7.237 -0.2322  0.5127  0.1545
   94MOL    C1320659   2.030   3.913   7.474  0.5040 -0.4337 -0.9668
   94MOL    C1420660   2.074   3.891   7.619 -0.7300  0.1301 -0.0769
   94MOL    C1520661   2.056   3.748   7.667 -0.4143 -0.1521 -0.3569
   94MOL    O1620662   1.974   3.670   7.620  1.3711  0.2042  0.0706
   94MOL    C1720663   2.147   3.697   7.786 -0.0423  0.5013 -0.3337
   94MOL    H1820664   2.024   4.017   7.442  3.2556 -0.5604 -2.0834
   94MOL    H1920665   1.928   3.878   7.468  0.1755  0.2908  0.3086
   94MOL    H2020666   2.181   3.912   7.623 -1.2527  3.4906 -1.7930
   94MOL    H2120667   2.240   3.726   7.739  0.5092  2.9171  2.1489
   94MOL    H2220668   2.148   3.755   0.020  0.6068 -0.0769  0.0345
   94MOL    H2320669   2.148   3.589   7.802 -1.2031  0.6561  0.9157
   94MOL    C2420670   1.989   3.988   7.704  0.1259 -0.2107  1.0968
   94MOL    C2520671   2.046   4.028   7.844 -0.4287 -0.3701 -0.4853
   94MOL    C2620672   2.164   4.120   7.821  0.1071 -0.2175 -0.2400
   94MOL    O2720673   2.143   4.237   7.782  0.2843 -0.0032  0.0686
   94MOL    C2820674   2.309   4.066   7.838 -0.1405 -0.7418 -0.1626
   94MOL    H2920675   1.965   4.082   7.655 -1.2733 -1.4553 -0.6644
   94MOL    H3020676   1.891   3.942   7.716  0.3720 -1.3309 -0.8540
   94MOL    H3120677   2.088   3.938   0.032 -0.2343  0.1017  0.2662
   94MOL    H3220678   2.312   3.975   0.040  1.3470  0.0888  1.0685
   94MOL    H3320679   2.365   4.066   7.745 -0.0213  3.2265 -0.1687
   94MOL    H3420680   2.362   4.140   0.040  1.0594 -0.7585 -1.1986
   94MOL    C3520681   1.941   4.093   0.080 -0.2041 -0.3419 -0.4889
   94MOL    C3620682   1.826   4.017   0.133 -0.8243 -0.0040 -0.7264
   94MOL    C3720683   1.703   4.026   0.043 -1.0123  0.0437  0.2771
   94MOL    O3820684   1.662   3.938   7.824  0.2864  0.4736  0.2041
   94MOL    C3920685   1.625   4.154   0.050  0.3098 -0.3180  0.8374
   94MOL    H4020686   1.902   4.176   0.021  0.9745  1.9867  1.8929
   94MOL    H4120687   1.991   4.153   0.156  0.3407  0.2120 -1.2642
   94MOL    H4220688   1.802   4.069   0.226 -1.0572 -0.4194 -0.5479
   94MOL    H4320689   1.529   4.133   0.096 -0.6359  1.1443 -0.3746
   94MOL    H4420690   1.616   4.218   7.819 -2.0802 -0.3254  1.0240
   94MOL    H4520691   1.677   4.225   0.114  2.8020  1.1316 -2.6211
   94MOL    C4620692   1.859   3.874   0.166  0.0183 -0.1879 -0.3183
   94MOL    C4720693   1.761   3.791   0.253 -0.5791  0.3823  0.2355
   94MOL    C4820694   1.792   3.640   0.233  0.9795  0.4416  0.0679
   94MOL    O4920695   1.889   3.587   0.285  0.0139  0.4259 -0.0424
   94MOL    C5020696   1.710   3.561   0.134  0.2938  0.1738  0.1714
   94MOL    H5120697   1.959   3.871   0.209 -0.6561 -2.7105  1.1683
   94MOL    H5220698   1.867   3.824   0.069  1.7130 -0.1522 -0.2233
   94MOL    H5320699   1.659   3.806   0.220 -0.8025  0.7254  1.0662
   94MOL    H5420700   1.710   3.453   0.145 -0.4709  0.2454  0.8569
   94MOL    H5520701   1.614   3.607   0.109 -0.8487 -1.4818  1.4914
   94MOL    H5620702   1.753   3.581   0.035 -0.8260  0.4716 -0.2578
   94MOL    C5720703   1.775   3.841   0.404 -0.5578 -0.0258 -0.5717
   94MOL    C5820704   1.720   3.748   0.516 -0.6034  0.3906 -0.0756
   94MOL    C5920705   1.830   3.678   0.597 -0.8225 -0.4536  0.3498
   94MOL    O6020706   1.912   3.745   0.661 -0.3240  0.2573  0.4672
   94MOL    C6120707   1.822   3.532   0.600  0.1598  0.4744 -0.0733
   94MOL    H6220708   1.740   3.944   0.418 -1.2782 -0.5266  1.4285
   94MOL    H6320709   1.883   3.848   0.417 -0.5228  0.8142 -1.2201
   94MOL    H6420710   1.659   3.671   0.469 -0.7676  0.8042 -0.5427
   94MOL    H6520711   1.922   3.500   0.570  1.3108  1.1061  2.9008
   94MOL    H6620712   1.771   3.482   0.683 -0.4115  0.4792 -0.4223
   94MOL    H6720713   1.756   3.511   0.516 -1.1478  0.9486  0.8243
   94MOL    C6820714   1.619   3.828   0.605  0.3497  0.1947  0.2142
   94MOL    C6920715   1.548   3.748   0.721 -0.2552 -0.0673 -0.4157
   94MOL    C7020716   1.444   3.649   0.672 -0.5789 -0.3077 -0.4972
   94MOL    O7120717   1.426   3.637   0.552 -0.0601  0.0758  0.3841
   94MOL    C7220718   1.368   3.557   0.773 -1.0369 -0.9198 -0.0843
   94MOL    H7320719   1.670   3.920   0.634  0.2615  0.9628 -2.0146
   94MOL    H7420720   1.541   3.863   0.538 -0.4648  0.6057  1.3641
   94MOL    H7520721   1.631   3.686   0.755  1.8182  1.5453 -2.3705
   94MOL    H7620722   1.333   3.470   0.717 -0.9685  0.8228 -2.9181
   94MOL    H7720723   1.426   3.520   0.857 -1.4520  1.9724  1.5219
   94MOL    H7820724   1.286   3.606   0.826 -0.6388 -0.8233  0.4397
   94MOL    C7920725   1.491   3.852   0.822 -0.6823 -0.3877 -0.1465
   94MOL    C8020726   1.573   3.894   0.944 -0.0517 -0.2444 -0.4932
   94MOL    C8120727   1.572   3.784   1.050  0.0120 -0.1601  0.6197
   94MOL    O8220728   1.467   3.726   1.078 -0.1102  0.0693  0.0353
   94MOL    C8320729   1.705   3.727   1.102 -0.4099 -0.1464 -0.4094
   94MOL    H8420730   1.395   3.816   0.858  0.1975 -1.0988  1.5261
   94MOL    H8520731   1.468   3.943   0.765  0.2068  0.2530  0.5097
   94MOL    H8620732   1.676   3.892   0.910  0.6361 -0.0354  1.4870
   94MOL    H8720733   1.706   3.714   1.211 -0.7170  1.4854 -0.1906
   94MOL    H8820734   1.788   3.791   1.073  0.6107 -1.3206 -0.1251
   94MOL    H8920735   1.713   3.636   1.044 -1.4873 -0.8622  0.5466
   94MOL    C9020736   1.538   4.036   0.990 -0.0858 -0.3495 -0.6299
   94MOL    C9120737   1.608   4.091   1.115 -0.1978 -0.2283 -0.4438
   94MOL    C9220738   1.762   4.104   1.096  0.0635  0.7729  0.4281
   94MOL    O9320739   1.835   4.047   1.173  0.6001  0.1311 -0.3762
   94MOL    C9420740   1.814   4.186   0.979  0.8691 -0.3519 -0.0204
   94MOL    H9520741   1.540   4.113   0.913 -0.2210 -0.4483 -0.7328
   94MOL    H9620742   1.431   4.047   1.010  0.6113  2.1074  2.1473
   94MOL    H9720743   1.583   4.014   1.188  0.0401  0.0144 -0.1034
   94MOL    H9820744   1.917   4.160   0.958  1.4519  1.7020  0.2336
   94MOL    H9920745   1.765   4.159   0.885  0.9733 -2.1795  0.4197
   94MOL   H10020746   1.806   4.294   0.992  1.5094 -0.2308 -0.6474
   94MOL   C10120747   1.554   4.216   1.178 -0.2361  0.5908  0.8873
   94MOL   C10220748   1.608   4.259   1.319 -0.7922 -0.3365 -0.2890
   94MOL   C10320749   1.555   4.167   1.429  0.7804  0.6223  0.0039
   94MOL   O10420750   1.435   4.123   1.421 -0.3544  0.0406 -0.0156
   94MOL   C10520751   1.640   4.146   1.545 -0.9092  0.0220 -0.2572
   94MOL   H10620752   1.564   4.294   1.102  2.3414  0.0566  0.6493
   94MOL   H10720753   1.447   4.196   1.184 -0.0414 -0.9591 -0.4951
   94MOL   H10820754   1.717   4.256   1.319 -0.7314  0.9647 -2.4579
   94MOL   H10920755   1.623   4.048   1.589 -0.3513  0.3976  0.8046
   94MOL   H11020756   1.746   4.158   1.522 -0.7992  0.6843  0.5753
   94MOL   H11120757   1.612   4.217   1.623  0.1290  0.7917 -0.5669
   94MOL   C11220758   1.560   4.399   1.353 -0.0581 -0.7372  0.1570
   94MOL   C11320759   1.614   4.510   1.258 -0.7270 -0.0687 -0.3299
   94MOL   C11420760   1.765   4.506   1.249  0.4745  0.0765 -0.5388
   94MOL   O11520761   1.824   4.494   1.140  0.7759  0.3740  0.7450
   94MOL   C11620762   1.845   4.508   1.380 -0.8803 -0.4337 -0.7915
   94MOL   H11720763   1.567   4.421   1.459 -0.3680 -0.1186  0.0522
   94MOL   H11820764   1.451   4.398   1.352 -0.0811  0.6399 -0.1671
   94MOL   H11920765   1.577   4.498   1.156 -0.3316 -0.0686 -0.4761
   94MOL   H12020766   1.810   4.599   1.429 -0.3069  0.3484 -1.8285
   94MOL   H12120767   1.840   4.413   1.433  1.7531 -0.1135  0.0791
   94MOL   H12220768   1.950   4.519   1.356 -0.7748  2.4724  0.7312
   94MOL   C12320769   1.555   4.647   1.300 -0.8100  0.1715  0.2206
   94MOL   C12420770   1.589   4.784   1.231  0.2163 -0.3244 -0.3811
   94MOL   C12520771   1.520   4.795   1.093 -0.5746 -0.0960 -0.5051
   94MOL   O12620772   1.399   4.822   1.084  0.2187  0.9427 -0.3103
   94MOL   C12720773   1.597   4.743   0.971 -0.5025 -0.0115  0.5124
   94MOL   H12820774   1.578   4.668   1.404  2.7073  2.5650 -0.9344
   94MOL   H12920775   1.447   4.636   1.302 -0.4885 -3.3653  0.0971
   94MOL   H13020776   1.535   4.853   1.295 -0.4087  1.2405 -2.5336
   94MOL   H13120777   1.545   4.765   0.878  1.7031  1.5497 -0.3892
   94MOL   H13220778   1.625   4.639   0.986 -0.5966 -0.0032  0.7521
   94MOL   H13320779   1.692   4.794   0.959 -0.7445  0.1524 -0.7703
   94MOL   C13420780   1.729   4.840   1.239 -0.5775 -1.1285  0.6868
   94MOL   C13520781   1.739   4.979   1.311 -0.0297 -0.1543  0.6005
   94MOL   C13620782   1.708   4.968   1.466 -0.4230 -0.8921  0.2201
   94MOL   O13720783   1.681   4.863   1.524 -0.2332 -0.0692 -0.2174
   94MOL   C13820784   1.704   5.105   1.537  0.6018 -0.2332 -0.9834
   94MOL   H13920785   1.782   4.847   1.144 -0.0163  0.4032  1.1005
   94MOL   H14020786   1.793   4.771   1.294 -0.5210 -1.0308  0.7436
   94MOL   H14120787   1.658   5.036   1.266  1.1483  0.1870 -1.1643
   94MOL   H14220788   1.697   5.186   1.465  0.1177 -0.0088 -0.6886
   94MOL   H14320789   1.790   5.124   1.601  1.5482 -1.6540 -1.8250
   94MOL   H14420790   1.606   5.123   1.583  0.2809 -1.0687 -1.3265
   94MOL   C14520791   1.876   5.059   1.285 -0.4424 -0.2269  0.1155
   94MOL   C14620792   1.887   5.122   1.148 -0.1798 -0.2950 -0.0376
   94MOL   C14720793   1.773   5.224   1.130  0.4930 -0.1017 -0.2657
   94MOL   O14820794   1.691   5.248   1.216  0.4629 -0.0609  0.5230
   94MOL   C14920795   1.743   5.289   0.993  0.4085  0.0554  0.1500
   94MOL   H15020796   1.946   4.976   1.293 -2.3668 -1.7969  1.3216
   94MOL   H15120797   1.898   5.132   1.363 -1.5894  1.6171 -1.2720
   94MOL   H15220798   1.876   5.043   1.074  0.7916 -0.5496  0.0867
   94MOL   H15320799   1.718   5.217   0.915 -0.0868  0.4291 -0.0314
   94MOL   H15420800   1.655   5.350   1.009 -0.4055 -1.3053  0.9379
   94MOL   H15520801   1.822   5.347   0.944 -0.7990  1.1351 -0.5223
   94MOL   C15620802   2.025   5.187   1.117  0.4032  0.1075 -0.2192
   94MOL   C15720803   2.134   5.082   1.102 -0.4689 -0.1819 -0.2841
   94MOL   C15820804   2.266   5.123   1.162  0.5809 -0.4316  0.1914
   94MOL   O15920805   2.372   5.140   1.103 -0.7306 -0.2348  0.4630
   94MOL   C16020806   2.260   5.167   1.311 -0.4062  0.2972  0.6204
   94MOL   H16120807   2.019   5.247   1.026  0.9139  0.2125 -0.1799
   94MOL   H16220808   2.044   5.263   1.192 -0.9350  1.5922 -1.3471
   94MOL   H16320809   2.114   5.004   1.176  0.8750  0.3027  0.6127
   94MOL   H16420810   2.249   5.275   1.317 -0.3016  0.3150  0.4954
   94MOL   H16520811   2.345   5.127   1.367 -0.8935 -1.0968  0.3910
   94MOL   H16620812   2.170   5.124   1.355  0.1404 -0.3969  1.0833
   94MOL   C16720813   2.146   5.019   0.951 -0.5951  0.2476 -0.2587
   94MOL   C16820814   2.220   4.879   0.931 -0.1040 -0.2531 -0.0218
   94MOL   C16920815   2.226   4.844   0.780 -0.3820 -0.2232  0.6205
   94MOL   O17020816   2.136   4.781   0.722 -0.1658 -0.0212  0.1164
   94MOL   C17120817   2.352   4.893   0.707 -0.7239  0.0482 -1.1005
   94MOL   H17220818   2.044   5.010   0.911 -0.0170  3.1242 -2.5816
   94MOL   H17320819   2.187   5.095   0.884 -3.1115  0.4280 -1.7027
   94MOL   H17420820   2.324   4.886   0.964 -0.1014  0.2500 -0.1367
   94MOL   H17520821   2.440   4.901   0.771  0.1804 -1.5547 -2.1147
   94MOL   H17620822   2.335   4.989   0.658 -0.3431  1.9091  2.2867
   94MOL   H17720823   2.379   4.820   0.631  0.2187  0.2551 -0.9728
   94MOL   C17820824   2.153   4.762   1.013  0.5767 -1.1970 -0.5337
   94MOL   C17920825   2.243   4.642   1.020  0.3331  0.8496 -0.6928
   94MOL   C18020826   2.166   4.517   1.079  0.1312 -0.3180  0.0676
   94MOL   O18120827   2.143   4.506   1.195  0.2482 -0.3941 -0.7289
   94MOL   C18220828   2.122   4.411   0.980 -0.2409  0.5480  0.0068
   94MOL   H18320829   2.128   4.788   1.116 -0.2594  2.3512 -1.5621
   94MOL   H18420830   2.057   4.736   0.968 -0.5461  1.8452 -0.0557
   94MOL   H18520831   2.266   4.613   0.917  1.5469 -0.1597 -0.1638
   94MOL   H18620832   2.159   4.417   0.878  0.6113  2.1417  0.3890
   94MOL   H18720833   2.013   4.406   0.984 -0.1925  0.1630  1.3366
   94MOL   H18820834   2.154   4.313   1.016  1.6831  1.2045  0.1322
   94MOL   C18920835   2.376   4.665   1.104  0.4578  0.4320  0.0648
   94MOL   C19020836   2.483   4.547   1.103 -0.4375 -0.1078 -0.1819
   94MOL   C19120837   2.517   4.510   0.957 -0.1572  0.7220  0.2773
   94MOL   O19220838   2.519   4.598   0.867  0.1365  0.0706  0.1394
   94MOL   C19320839   2.565   4.374   0.909 -0.0939  0.0266 -0.6009
   94MOL   H19420840   2.419   4.760   1.072  1.2939 -0.2037 -0.7597
   94MOL   H19520841   2.340   4.673   1.206 -1.4498 -0.3972 -0.5091
   94MOL   H19620842   2.436   4.462   1.152 -1.8299 -0.3995 -1.9519
   94MOL   H19720843   2.577   4.319   1.003  0.9338  1.6285  0.2427
   94MOL   H19820844   2.496   4.330   0.837  0.4544  0.6999 -1.5431
   94MOL   H19920845   2.662   4.381   0.861 -1.1302 -0.6723 -2.8442
   94MOL   C20020846   2.612   4.600   1.183 -0.1603  0.9282  0.3293
   94MOL   C20120847   2.716   4.500   1.215 -0.6977  0.0876  0.0476
   94MOL   C20220848   2.659   4.402   1.323  0.0815 -0.3369 -0.1735
   94MOL   O20320849   2.651   4.437   1.438  0.5759 -0.3664  0.1951
   94MOL   C20420850   2.628   4.261   1.273 -0.1668  0.4542  0.1014
   94MOL   H20520851   2.652   4.690   1.138 -1.0262  1.2976  0.2740
   94MOL   H20620852   2.564   4.643   1.272 -1.3542  1.1046 -0.3824
   94MOL   H20720853   2.727   4.450   1.119 -0.4685  0.4303 -0.1018
   94MOL   H20820854   2.626   4.197   1.362  0.9774 -0.8181 -0.7626
   94MOL   H20920855   2.527   4.257   1.231 -0.4998 -0.3589  0.9634
   94MOL   H21020856   2.703   4.223   1.205  1.9558  3.2209  0.8076
   94MOL   C21120857   2.852   4.573   1.243 -0.8397 -0.3281 -0.4799
   94MOL   C21220858   2.957   4.504   1.339 -0.4322 -0.2033 -0.9902
   94MOL   C21320859   3.021   4.376   1.286 -0.2855  0.1817  0.4883
   94MOL   O21420860   3.001   4.343   1.167 -0.1091  0.7805 -0.2682
   94MOL   C21520861   3.112   4.292   1.371 -0.0005  0.2735 -0.5181
   94MOL   H21620862   2.894   4.600   1.146 -0.0752  1.3277  0.2859
   94MOL   H21720863   2.819   4.666   1.290 -3.5436 -0.6539 -1.6337
   94MOL   H21820864   2.915   4.480   1.436  2.7581  2.3389  1.1231
   94MOL   H21920865   3.046   4.215   1.413 -1.3208  1.1867 -0.8738
   94MOL   H22020866   3.189   4.257   1.302 -0.4446  0.5501 -1.1574
   94MOL   H22120867   3.148   4.354   1.453  2.0541 -1.1454 -0.3088
   94MOL   H22220868   3.041   4.573   1.353 -1.6957  1.8673 -3.1258
   95MOL     C120869   5.254   5.848   2.973  0.8806  0.1739 -0.1163
   95MOL     C220870   5.382   5.881   2.893  0.3723  0.5622 -0.8446
   95MOL     C320871   5.430   6.019   2.930 -0.4153  0.4948 -0.3431
   95MOL     O420872   5.517   6.025   3.019 -0.2211  0.3087  0.6191
   95MOL     C520873   5.375   6.140   2.852  1.0347 -0.2803 -0.6148
   95MOL     H620874   5.267   5.826   3.079 -0.8978 -0.2181  0.0366
   95MOL     H720875   5.201   5.765   2.928 -2.1141  1.0984  1.5582
   95MOL     H820876   5.352   5.891   2.789 -0.5822 -2.7555 -0.9514
   95MOL     H920877   5.448   6.221   2.858 -0.6633  1.5025 -3.1449
   95MOL    H1020878   5.372   6.125   2.744 -3.1219 -1.3305 -0.4370
   95MOL    H1120879   5.279   6.179   2.886  1.1184  2.1131 -2.9916
   95MOL    H1220880   5.182   5.930   2.968 -0.0346 -0.4924  1.6217
   95MOL    C1320881   5.499   5.779   2.910 -0.4204 -0.7097 -0.1398
   95MOL    C1420882   5.633   5.806   2.842  0.1923 -0.3018 -0.2772
   95MOL    C1520883   5.619   5.808   2.689 -0.1372 -0.5034  0.1799
   95MOL    O1620884   5.530   5.746   2.626 -0.2462  0.6553 -0.5187
   95MOL    C1720885   5.709   5.898   2.606 -0.1650  0.4214 -0.2413
   95MOL    H1820886   5.519   5.743   3.010  0.2450  0.2769  0.0834
   95MOL    H1920887   5.453   5.692   2.863 -0.9513 -0.0175 -0.9253
   95MOL    H2020888   5.676   5.904   2.861 -0.0540  0.4672 -3.3953
   95MOL    H2120889   5.746   5.971   2.678 -1.9316  1.6644 -0.5399
   95MOL    H2220890   5.801   5.854   2.568 -1.0168 -1.2373 -0.4306
   95MOL    H2320891   5.649   5.946   2.528 -0.9532 -0.6523 -0.2973
   95MOL    C2420892   5.737   5.693   2.873 -0.0114 -0.9818 -0.3283
   95MOL    C2520893   5.796   5.713   3.020 -0.1395 -0.6473 -0.7837
   95MOL    C2620894   5.820   5.577   3.080  0.3972  0.8984 -0.2218
   95MOL    O2720895   5.890   5.492   3.026  0.6962 -0.1171  0.3793
   95MOL    C2820896   5.744   5.525   3.199 -0.7262 -0.0995  0.0242
   95MOL    H2920897   5.686   5.597   2.865 -0.6290 -0.8037  1.3655
   95MOL    H3020898   5.820   5.703   2.803 -0.3557  2.1932 -0.3593
   95MOL    H3120899   5.714   5.756   3.077  0.9100  1.6204 -0.9593
   95MOL    H3220900   5.701   5.430   3.168  1.2305 -1.2792  0.8638
   95MOL    H3320901   5.805   5.502   3.286  2.0151  2.3694 -1.1416
   95MOL    H3420902   5.661   5.587   3.235  2.1685  2.7569  2.0737
   95MOL    C3520903   5.914   5.807   3.022 -0.1130 -0.2221  0.1286
   95MOL    C3620904   5.999   5.815   3.150 -0.4889  0.0627 -1.0111
   95MOL    C3720905   5.922   5.858   3.281 -0.0486  0.1869  0.3934
   95MOL    O3820906   5.891   5.775   3.363  0.0536  0.0455  0.3012
   95MOL    C3920907   5.883   6.006   3.294 -0.3442  0.1737  0.6786
   95MOL    H4020908   5.880   5.909   3.005 -3.2765 -1.3219 -0.3903
   95MOL    H4120909   5.976   5.778   2.937 -1.6573 -0.4735 -0.9283
   95MOL    H4220910   6.064   5.899   3.127  3.2159 -1.7413  2.1037
   95MOL    H4320911   5.959   6.080   3.269 -0.3829 -0.6006 -1.8723
   95MOL    H4420912   5.856   6.029   3.397  0.3781  3.1285  0.2500
   95MOL    H4520913   5.806   6.032   3.221  0.3122  1.0384  0.2815
   95MOL    C4620914   6.093   5.693   3.171  0.6499 -0.2753 -0.6270
   95MOL    C4720915   6.209   5.703   3.283  0.4524  0.6017 -0.2839
   95MOL    C4820916   6.277   5.563   3.287 -0.5597  0.2557 -0.3832
   95MOL    O4920917   6.388   5.534   3.229 -0.0743 -0.1081  0.0505
   95MOL    C5020918   6.205   5.460   3.365  0.4928 -0.0524 -0.1756
   95MOL    H5120919   6.152   5.670   3.082  0.6903 -0.6764 -0.5000
   95MOL    H5220920   6.032   5.610   3.206 -0.2754  0.9617  0.7273
   95MOL    H5320921   6.171   5.728   3.383 -1.0800  0.4919 -0.8187
   95MOL    H5420922   6.120   5.496   3.422  1.4851  1.7292  0.2121
   95MOL    H5520923   6.186   5.374   3.300 -0.9374  0.0662  0.0718
   95MOL    H5620924   6.290   5.425   3.424  1.4164  1.1092 -0.8038
   95MOL    C5720925   6.308   5.817   3.253  0.0953  0.0136 -0.3562
   95MOL    C5820926   6.364   5.901   3.368 -0.2961  0.3716  0.6746
   95MOL    C5920927   6.493   5.977   3.317 -0.0617  0.1422  0.1733
   95MOL    O6020928   6.486   6.096   3.278  0.1956 -0.0422 -0.2285
   95MOL    C6120929   6.623   5.898   3.316 -0.1809  0.2740  0.3268
   95MOL    H6220930   6.269   5.870   3.166  0.0490  1.6298  0.6335
   95MOL    H6320931   6.399   5.772   3.212  0.9579 -1.4960  3.0348
   95MOL    H6420932   6.399   5.838   3.449  0.8258  1.4736  1.0707
   95MOL    H6520933   6.662   5.907   3.215  1.2383  0.7634  0.9095
   95MOL    H6620934   6.706   5.933   3.378  0.8924 -1.5672 -0.0417
   95MOL    H6720935   6.605   5.793   3.340 -1.9040  0.7830  1.3620
   95MOL    C6820936   6.253   5.995   3.428  0.9980 -0.1960 -0.4113
   95MOL    C6920937   6.279   6.069   3.570  0.3732 -0.1227  0.8015
   95MOL    C7020938   6.289   5.969   3.684  0.1209 -0.0907 -0.0576
   95MOL    O7120939   6.189   5.909   3.722 -0.8407  0.4644  0.0766
   95MOL    C7220940   6.423   5.942   3.748 -0.3444 -0.0702 -0.5507
   95MOL    H7320941   6.223   6.059   3.345 -0.5217 -0.6939 -0.2520
   95MOL    H7420942   6.163   5.936   3.439 -0.0464  1.2414 -1.1360
   95MOL    H7520943   6.384   6.095   3.555  1.4014 -3.7777  1.1576
   95MOL    H7620944   6.498   5.917   3.673 -0.3266  0.7135 -0.8036
   95MOL    H7720945   6.461   6.027   3.805 -0.3219 -1.5589  1.7191
   95MOL    H7820946   6.412   5.863   3.822 -1.2427 -0.7200 -1.3615
   95MOL    C7920947   6.180   6.185   3.601 -0.0985  0.0344 -0.5037
   95MOL    C8020948   6.162   6.298   3.490 -0.0812 -0.1422 -0.6536
   95MOL    C8120949   6.307   6.357   3.466 -0.2144  1.1508  0.3238
   95MOL    O8220950   6.392   6.367   3.556  0.0251 -0.6754  0.3267
   95MOL    C8320951   6.354   6.396   3.325  0.9403  0.0671 -0.2393
   95MOL    H8420952   6.211   6.230   3.695  1.4292 -1.5850 -0.2073
   95MOL    H8520953   6.075   6.156   3.609  0.2723 -1.8872 -2.0904
   95MOL    H8620954   6.113   6.238   3.413  1.2224 -2.5502  0.3351
   95MOL    H8720955   6.278   6.359   3.256  0.6131 -0.5312  0.4310
   95MOL    H8820956   6.447   6.345   3.303  1.2720  1.1421 -1.3563
   95MOL    H8920957   6.361   6.504   3.314 -1.0381  0.2296 -0.1895
   95MOL    C9020958   6.069   6.413   3.549 -0.2966  0.0163  0.1923
   95MOL    C9120959   6.014   6.510   3.437  0.0013  0.4632 -0.4587
   95MOL    C9220960   5.901   6.439   3.364 -0.3869  0.2510  0.2962
   95MOL    O9320961   5.786   6.442   3.402 -0.0825 -0.3363  0.4125
   95MOL    C9420962   5.935   6.385   3.221 -0.2625  0.3146 -0.1586
   95MOL    H9520963   5.978   6.372   3.592 -3.3776  3.7468 -2.5160
   95MOL    H9620964   6.120   6.456   3.636 -0.1559  1.0664 -0.4106
   95MOL    H9720965   6.090   6.538   3.364 -1.0629 -0.3062 -1.8772
   95MOL    H9820966   5.940   6.461   3.143 -3.2332  1.1417  0.3801
   95MOL    H9920967   6.022   6.320   3.229  0.0506  1.0082  2.5293
   95MOL   H10020968   5.846   6.327   3.196 -0.4906  0.5602  0.0761
   95MOL   C10120969   5.969   6.639   3.501  0.7402 -0.1292  0.6718
   95MOL   C10220970   5.901   6.743   3.407 -0.3041  0.4939  0.6045
   95MOL   C10320971   5.968   6.774   3.272  0.2160 -0.2642 -0.0572
   95MOL   O10420972   6.091   6.792   3.255 -0.0452  0.0483  0.0181
   95MOL   C10520973   5.876   6.778   3.149  0.1480  0.5967  0.1225
   95MOL   H10620974   5.900   6.613   3.581 -0.4140  2.3551  0.5144
   95MOL   H10720975   6.059   6.682   3.547 -0.4714  2.4544  0.6993
   95MOL   H10820976   5.814   6.688   3.371  0.7247 -0.2561 -0.8182
   95MOL   H10920977   5.852   6.674   3.125 -3.4151  1.0016  1.5453
   95MOL   H11020978   5.794   6.849   3.163 -0.9230 -0.0255 -2.5833
   95MOL   H11120979   5.936   6.815   3.067  1.4123  0.6301  1.0561
   95MOL   C11220980   5.856   6.876   3.460  0.6939 -0.4917 -0.6442
   95MOL   C11320981   5.733   6.860   3.558  0.4907 -1.0318  0.0264
   95MOL   C11420982   5.609   6.810   3.485 -0.2197 -0.1434 -0.0135
   95MOL   O11520983   5.565   6.857   3.382  0.3934 -0.4334  0.3621
   95MOL   C11620984   5.515   6.714   3.563 -0.2222 -0.5342  0.0509
   95MOL   H11720985   5.841   6.952   3.383  0.0251 -1.3031 -1.3317
   95MOL   H11820986   5.942   6.912   3.516  0.9015 -3.1440  0.8177
   95MOL   H11920987   5.757   6.792   3.640 -0.9375 -0.6591  0.7704
   95MOL   H12020988   5.446   6.779   3.618 -0.2326  0.4934 -1.1512
   95MOL   H12120989   5.459   6.646   3.499  1.1280 -2.5855  1.0132
   95MOL   H12220990   5.568   6.660   3.642  0.0814 -1.3186 -0.6899
   95MOL   C12320991   5.698   6.998   3.612  0.2554 -0.2268  0.2281
   95MOL   C12420992   5.797   7.065   3.710 -0.4602  1.0001  0.1303
   95MOL   C12520993   5.827   6.968   3.826  0.1079 -0.0899  0.1274
   95MOL   O12620994   5.732   6.932   3.894 -0.1155  0.2407  0.5539
   95MOL   C12720995   5.957   6.895   3.834 -0.5299 -0.1455 -1.4307
   95MOL   H12820996   5.606   6.987   3.669 -0.0195 -0.9249 -0.3491
   95MOL   H12920997   5.663   7.062   3.531  1.8158 -2.0223 -1.9053
   95MOL   H13020998   5.890   7.073   3.654  0.6360 -0.1667  1.7583
   95MOL   H13120999   6.012   6.913   3.741 -1.4314 -0.0395 -1.9529
   95MOL   H13221000   5.959   6.790   3.864  0.3909  0.7048  1.5876
   95MOL   H13321001   6.021   6.945   3.906 -0.5387 -0.3238 -1.2998
   95MOL   C13421002   5.750   7.205   3.755 -0.3969 -0.6114 -0.2329
   95MOL   C13521003   5.845   7.278   3.854  0.8099 -0.2244  0.3089
   95MOL   C13621004   5.972   7.322   3.777  0.0001  0.0426  0.0208
   95MOL   O13721005   5.968   7.429   3.714 -0.2356 -0.3479 -0.6795
   95MOL   C13821006   6.100   7.236   3.772 -0.8157 -0.2271 -0.6952
   95MOL   H13921007   5.655   7.186   3.806 -1.1168  1.9315 -0.5472
   95MOL   H14021008   5.732   7.272   3.670 -4.2444  0.6792  1.4986
   95MOL   H14121009   5.891   7.208   3.924  0.3260  0.9296  1.7916
   95MOL   H14221010   6.111   7.226   3.663  1.7421  2.0144 -0.6965
   95MOL   H14321011   6.096   7.140   3.823  2.2969  0.3336  0.7123
   95MOL   H14421012   6.183   7.289   3.817 -0.7502 -1.8128  1.1057
   95MOL   C14521013   5.784   7.393   3.935 -0.4267 -0.5268 -0.3306
   95MOL   C14621014   5.839   7.428   4.079 -0.5159  0.4101  0.1902
   95MOL   C14721015   5.880   7.574   4.104  0.0360 -0.2130 -0.0663
   95MOL   O14821016   5.810   7.657   4.163 -0.1090  0.4833 -0.0497
   95MOL   C14921017   6.008   7.613   4.032 -0.0177 -0.0167 -0.9477
   95MOL   H15021018   5.679   7.370   3.952 -0.4942  0.2065  0.2367
   95MOL   H15121019   5.763   7.480   3.875 -6.1232 -2.0511 -0.8205
   95MOL   H15221020   5.929   7.369   4.093 -0.6375 -0.1299 -1.2712
   95MOL   H15321021   6.029   7.553   3.944 -3.1074  0.3472 -1.9927
   95MOL   H15421022   6.015   7.718   4.004 -0.7755 -0.2387 -1.9715
   95MOL   H15521023   6.092   7.603   4.101  0.3187 -0.9648 -1.4962
   95MOL   C15621024   5.741   7.394   4.196 -0.3871  0.7707  0.0906
   95MOL   C15721025   5.744   7.258   4.269 -1.2160  0.0756  0.7160
   95MOL   C15821026   5.863   7.237   4.363 -0.3024 -0.2771  0.0154
   95MOL   O15921027   5.975   7.267   4.322  0.0484 -0.4523 -0.2123
   95MOL   C16021028   5.844   7.208   4.514  0.2314  0.0317 -0.1187
   95MOL   H16121029   5.765   7.458   4.281  1.6199  2.3159 -1.5858
   95MOL   H16221030   5.639   7.428   4.181 -0.6848 -0.8979 -1.7963
   95MOL   H16321031   5.659   7.273   4.336  0.4293 -1.7021  3.2741
   95MOL   H16421032   5.932   7.190   4.575 -0.2461  0.8433  0.8409
   95MOL   H16521033   5.781   7.119   4.511 -2.6681  2.0227 -0.1478
   95MOL   H16621034   5.793   7.293   4.560  1.5790  0.9490 -0.3076
   95MOL   C16721035   5.726   7.138   4.185 -0.3616 -0.3033  0.2372
   95MOL   C16821036   5.585   7.081   4.153 -0.2231 -0.3460 -0.0633
   95MOL   C16921037   5.506   7.182   4.058 -0.3252  0.9579  0.5674
   95MOL   O17021038   5.483   7.293   4.099  0.6089  0.2954  1.0415
   95MOL   C17121039   5.442   7.134   3.929 -0.6065  0.5691  0.3493
   95MOL   H17221040   5.780   7.162   4.094 -0.2336 -1.9136 -0.1288
   95MOL   H17321041   5.802   7.066   4.213  0.9848  0.6784 -0.8037
   95MOL   H17421042   5.604   6.984   4.106  1.7303 -0.4149  0.8067
   95MOL   H17521043   5.469   7.199   3.846 -0.3860  0.3485  0.2460
   95MOL   H17621044   5.333   7.133   3.929 -0.6436 -0.1454 -2.1240
   95MOL   H17721045   5.478   7.034   3.904 -1.3073  0.5443 -0.6047
   95MOL   C17821046   5.503   7.053   4.281  1.1943  0.5827  0.0760
   95MOL   C17921047   5.392   6.940   4.255 -0.1884  0.3123 -0.1450
   95MOL   C18021048   5.276   6.985   4.163  0.2064  0.6954  0.2915
   95MOL   O18121049   5.255   6.915   4.061 -0.3723  0.6035 -0.2758
   95MOL   C18221050   5.178   7.094   4.197  0.6053 -0.2480  0.3975
   95MOL   H18321051   5.560   7.012   4.365 -0.1204 -2.5973 -0.5084
   95MOL   H18421052   5.466   7.147   4.321  0.9490  1.0496 -1.2246
   95MOL   H18521053   5.446   6.856   4.212 -0.2180 -0.1430  0.6848
   95MOL   H18621054   5.080   7.079   4.152 -0.1420  1.0242  1.5808
   95MOL   H18721055   5.213   7.183   4.144  1.1503  0.2244  1.5492
   95MOL   H18821056   5.176   7.122   4.302  0.4471 -0.2385  0.3927
   95MOL   C18921057   5.342   6.892   4.398 -0.2238  0.1794 -0.2929
   95MOL   C19021058   5.258   6.768   4.399 -0.6435  0.1252 -0.0767
   95MOL   C19121059   5.325   6.641   4.331 -0.5259 -0.0994 -0.4143
   95MOL   O19221060   5.436   6.601   4.370  0.2023  0.5121  0.0721
   95MOL   C19321061   5.245   6.570   4.221  0.2328 -0.3932  0.7249
   95MOL   H19421062   5.427   6.873   4.463 -0.9953 -2.8383 -0.1059
   95MOL   H19521063   5.293   6.978   4.442  0.2751  0.6927 -0.7165
   95MOL   H19621064   5.170   6.782   4.336 -0.9988  0.6798  0.5421
   95MOL   H19721065   5.287   6.482   4.171  1.6305  0.7343 -0.1026
   95MOL   H19821066   5.156   6.521   4.261  0.0248  0.7117  1.6226
   95MOL   H19921067   5.203   6.637   4.147 -0.2556 -1.3752  0.0939
   95MOL   C20021068   5.204   6.743   4.541 -0.1346 -0.3001  0.6244
   95MOL   C20121069   5.097   6.631   4.550 -1.0931  0.1875 -0.5415
   95MOL   C20221070   4.960   6.676   4.508  1.0825  1.4851  0.1891
   95MOL   O20321071   4.924   6.785   4.537  0.0662  0.1463  0.3017
   95MOL   C20421072   4.860   6.572   4.446 -0.0199  0.2639  0.4818
   95MOL   H20521073   5.289   6.731   4.608  0.2078  1.0283  0.4532
   95MOL   H20621074   5.160   6.839   4.570  0.9573  0.4988 -0.2917
   95MOL   H20721075   5.124   6.552   4.480  0.2263 -0.2292  0.3990
   95MOL   H20821076   4.758   6.594   4.478 -0.5899  1.4926 -2.0902
   95MOL   H20921077   4.863   6.585   4.338  1.0924  1.5090  0.6409
   95MOL   H21021078   4.899   6.471   4.455 -1.5863 -0.5960 -2.0275
   95MOL   C21121079   5.092   6.582   4.691 -0.5015 -0.5080  0.3187
   95MOL   C21221080   5.200   6.481   4.727 -0.1251  0.0582 -0.1264
   95MOL   C21321081   5.166   6.396   4.850  0.1058 -0.4375 -0.0246
   95MOL   O21421082   5.193   6.435   4.961  0.5209  0.6886  0.8092
   95MOL   C21521083   5.106   6.264   4.827 -0.2922 -0.0510 -0.8118
   95MOL   H21621084   5.079   6.663   4.763  1.9008 -0.2393  0.5144
   95MOL   H21721085   5.003   6.521   4.698 -0.1489 -1.1568 -0.7112
   95MOL   H21821086   5.290   6.538   4.750 -2.0728  3.5220 -0.7308
   95MOL   H21921087   5.171   6.183   4.862 -0.4104 -0.1185 -0.7449
   95MOL   H22021088   5.013   6.267   4.884 -0.3254  0.6578 -0.9114
   95MOL   H22121089   5.069   6.248   4.726 -0.8079  1.8024 -0.9154
   95MOL   H22221090   5.226   6.422   4.640  0.6962 -1.0466  0.8571
   96MOL     C121091   4.125   0.519   4.973  0.6118  0.3411 -0.2700
   96MOL     C221092   4.230   0.426   4.906  0.7020 -0.4223  0.1485
   96MOL     C321093   4.323   0.342   4.998  0.3793 -0.4573 -0.5335
   96MOL     O421094   4.283   0.239   5.053 -0.1360  0.3900 -0.0706
   96MOL     C521095   4.464   0.384   4.997 -0.9072 -0.3473 -0.6180
   96MOL     H621096   4.075   0.591   4.907 -0.5816 -1.5754 -1.5117
   96MOL     H721097   4.177   0.583   5.044 -0.5236 -1.4216  2.2287
   96MOL     H821098   4.284   0.493   4.839  1.3940 -0.1741  0.9498
   96MOL     H921099   4.487   0.455   5.077 -0.7650 -1.9578  0.8019
   96MOL    H1021100   4.527   0.296   5.010  0.7061  0.2248 -4.1650
   96MOL    H1121101   4.486   0.430   4.901  0.3369  3.3710  1.3388
   96MOL    H1221102   4.049   0.464   5.029  2.0635 -0.5042  0.8862
   96MOL    C1321103   4.159   0.324   4.806  0.0935 -0.2381 -0.1792
   96MOL    C1421104   4.242   0.261   4.693 -0.7014 -0.0906  0.6514
   96MOL    C1521105   4.250   0.337   4.561  0.5809  0.8216  0.2875
   96MOL    O1621106   4.197   0.298   4.456 -0.3607 -0.0767 -0.4841
   96MOL    C1721107   4.325   0.470   4.565  0.3625 -0.0005  1.3222
   96MOL    H1821108   4.098   0.255   4.864 -0.0135  0.6007  0.7271
   96MOL    H1921109   4.073   0.371   4.756 -0.4313 -0.7622  0.2297
   96MOL    H2021110   4.344   0.254   4.730 -0.0880  0.1821 -0.9304
   96MOL    H2121111   4.379   0.489   4.658  0.9209 -1.1062  1.2271
   96MOL    H2221112   4.395   0.462   4.482  0.4464  2.4131  1.1388
   96MOL    H2321113   4.254   0.550   4.545 -0.1524 -0.9554 -0.7842
   96MOL    C2421114   4.194   0.113   4.665 -0.0055 -0.3871  0.3542
   96MOL    C2521115   4.254   0.007   4.762 -0.0013  0.3797  0.2870
   96MOL    C2621116   4.149   7.766   4.806 -0.5681  0.0897  0.2485
   96MOL    O2721117   4.119   7.673   4.736 -0.1470  0.4121 -0.6396
   96MOL    C2821118   4.090   7.794   4.945  0.0755 -0.2300 -0.3170
   96MOL    H2921119   4.085   0.119   4.668  0.0908  3.4367 -1.0382
   96MOL    H3021120   4.200   0.079   4.562 -2.0934  1.0043 -0.2577
   96MOL    H3121121   4.278   0.058   4.855 -1.0767  0.4297  0.5383
   96MOL    H3221122   4.161   7.844   5.011 -0.3972  2.5245 -1.8670
   96MOL    H3321123   4.014   0.012   4.932  0.4402  0.1802 -0.0721
   96MOL    H3421124   4.056   7.701   4.993 -0.4630  0.6302  0.9976
   96MOL    C3521125   4.377   7.799   4.694 -0.2240  0.0974 -0.2426
   96MOL    C3621126   4.503   0.031   4.665 -1.0103 -0.1372 -0.6502
   96MOL    C3721127   4.562   0.107   4.779 -0.6507 -0.2101  0.1758
   96MOL    O3821128   4.572   0.228   4.773 -0.6232 -0.2747  0.2444
   96MOL    C3921129   4.630   0.022   4.891  0.2629  0.2663 -0.0976
   96MOL    H4021130   4.367   7.749   4.598  5.1191  2.9343 -2.4686
   96MOL    H4121131   4.414   7.721   4.761  0.5171  0.0523 -0.7115
   96MOL    H4221132   4.457   0.109   4.605  0.8444  0.9985 -0.6527
   96MOL    H4321133   4.735   0.003   4.866  0.1865  0.2259 -0.3919
   96MOL    H4421134   4.574   7.790   4.916 -1.3422  1.5259  0.9260
   96MOL    H4521135   4.629   0.088   4.978  0.1537  1.6801 -1.1467
   96MOL    C4621136   4.615   7.826   4.581 -0.1042 -0.0445  0.0440
   96MOL    C4721137   4.580   7.796   4.431  0.1711 -0.4099  0.6090
   96MOL    C4821138   4.527   0.070   4.353  0.2893  0.0926 -0.5392
   96MOL    O4921139   4.574   0.184   4.371  0.6889 -0.4391 -0.3813
   96MOL    C5021140   4.407   0.055   4.266  0.2739 -0.3524  0.6797
   96MOL    H5121141   4.636   7.725   4.615  3.2920  0.1113 -1.3536
   96MOL    H5221142   4.712   0.019   4.585  0.8975 -1.8703 -0.4523
   96MOL    H5321143   4.494   7.729   4.438  1.2396 -1.9813 -1.0093
   96MOL    H5421144   4.310   0.073   4.312 -0.0860 -3.4240  1.2539
   96MOL    H5521145   4.406   0.133   4.190  1.0914 -0.6482  0.3569
   96MOL    H5621146   4.404   7.816   4.215 -1.6001  0.7991 -1.5127
   96MOL    C5721147   4.677   7.703   4.354  1.2220 -0.2996 -0.1714
   96MOL    C5821148   4.597   7.596   4.260 -0.1259  0.1618  0.5685
   96MOL    C5921149   4.628   7.623   4.106 -0.0085  0.6444 -0.9256
   96MOL    O6021150   4.553   7.695   4.045  0.3524  0.2916 -0.2887
   96MOL    C6121151   4.746   7.553   4.031  0.2558  0.1250 -0.8655
   96MOL    H6221152   4.740   7.647   4.423  1.8946  0.7843  0.1007
   96MOL    H6321153   4.750   7.757   4.294  1.4907 -1.6599 -1.0897
   96MOL    H6421154   4.491   7.617   4.274 -0.0215  0.0403  1.5968
   96MOL    H6521155   4.714   7.498   3.943 -0.3851 -1.6186  0.4112
   96MOL    H6621156   4.819   7.632   4.014 -0.7178  1.1057 -0.5541
   96MOL    H6721157   4.786   7.477   4.099  0.0959  1.3296  0.5901
   96MOL    C6821158   4.616   7.451   4.315  0.2653 -0.1326 -0.4623
   96MOL    C6921159   4.496   7.363   4.286  0.2657 -0.6249 -0.2839
   96MOL    C7021160   4.367   7.400   4.359  0.9930 -0.8541 -0.8006
   96MOL    O7121161   4.367   7.461   4.466 -0.5325 -0.0457 -0.1477
   96MOL    C7221162   4.244   7.358   4.293 -0.5068 -0.5428  0.4154
   96MOL    H7321163   4.702   7.405   4.267  1.6060  1.0263  0.7763
   96MOL    H7421164   4.639   7.457   4.422  0.4625  0.5923 -0.5411
   96MOL    H7521165   4.469   7.398   4.186  3.3908 -0.3218 -1.0833
   96MOL    H7621166   4.194   7.279   4.348 -1.5793 -0.0248  0.2141
   96MOL    H7721167   4.173   7.441   4.280  0.4180  0.0047 -1.3471
   96MOL    H7821168   4.260   7.331   4.188 -2.7723 -3.3909  0.7440
   96MOL    C7921169   4.527   7.213   4.290  0.1707 -0.1618  0.2221
   96MOL    C8021170   4.581   7.153   4.161 -0.4828  0.7969 -0.1065
   96MOL    C8121171   4.514   7.199   4.034  0.2827  0.0150 -0.4665
   96MOL    O8221172   4.570   7.295   3.979  0.1146  0.2661  0.0148
   96MOL    C8321173   4.368   7.156   4.005 -0.1727  0.1409  0.7080
   96MOL    H8421174   4.439   7.152   4.308 -0.8189  0.8401 -1.1717
   96MOL    H8521175   4.593   7.204   4.377 -1.1831  0.3736  1.3325
   96MOL    H8621176   4.674   7.210   4.149 -0.1817  0.6025  1.2293
   96MOL    H8721177   4.377   7.118   3.903  0.6107 -1.2277  1.2651
   96MOL    H8821178   4.296   7.236   4.016 -1.2904 -0.4019 -2.3272
   96MOL    H8921179   4.335   7.074   4.068 -0.0336 -1.4015 -1.1724
   96MOL    C9021180   4.602   6.995   4.171 -0.8293 -0.1610 -0.8357
   96MOL    C9121181   4.657   6.919   4.048  0.3590 -0.6828 -0.7050
   96MOL    C9221182   4.812   6.948   4.047  0.3677  0.0107  0.2352
   96MOL    O9321183   4.864   7.013   3.960 -1.0047 -0.1442 -0.2513
   96MOL    C9421184   4.892   6.881   4.156 -0.1353  0.2240  0.0984
   96MOL    H9521185   4.658   6.969   4.261  0.4033  0.0966 -1.5314
   96MOL    H9621186   4.507   6.950   4.202 -0.4960  0.4639  1.1115
   96MOL    H9721187   4.607   6.958   3.960 -0.6582 -0.2653  0.0414
   96MOL    H9821188   4.863   6.776   4.165  0.7487  0.0406  0.9578
   96MOL    H9921189   4.999   6.876   4.135  0.1486  0.2461  1.4631
   96MOL   H10021190   4.868   6.936   4.247 -0.9243 -1.5479  0.9926
   96MOL   C10121191   4.625   6.768   4.034 -0.7903 -0.0960 -0.0187
   96MOL   C10221192   4.667   6.710   3.895 -0.2466 -0.0803 -0.2897
   96MOL   C10321193   4.611   6.781   3.770  0.2586  0.3121 -0.0911
   96MOL   O10421194   4.491   6.776   3.738  0.7560  0.0485  0.5799
   96MOL   C10521195   4.717   6.840   3.678  0.9498 -0.7966  0.1213
   96MOL   H10621196   4.671   6.717   4.119  1.5470  1.5323 -0.2455
   96MOL   H10721197   4.517   6.756   4.042 -0.8751  0.7230  0.1440
   96MOL   H10821198   4.776   6.718   3.903 -0.5165  0.4483  4.5532
   96MOL   H10921199   4.717   6.801   3.576  0.7724 -0.9235  0.1701
   96MOL   H11021200   4.678   6.941   3.671 -0.4982 -1.2073  2.0198
   96MOL   H11121201   4.816   6.848   3.722  1.0318  2.9403 -0.5682
   96MOL   C11221202   4.631   6.563   3.890  0.5875 -0.1958  0.3141
   96MOL   C11321203   4.696   6.486   3.775 -0.1684  0.3091  0.6102
   96MOL   C11421204   4.618   6.366   3.720 -0.5242 -0.5367  0.4732
   96MOL   O11521205   4.674   6.263   3.706  0.5854 -0.6215 -0.9498
   96MOL   C11621206   4.492   6.392   3.643  0.3425  0.4234 -0.8750
   96MOL   H11721207   4.523   6.551   3.883  0.4028  2.2071 -1.8470
   96MOL   H11821208   4.647   6.510   3.983 -1.3384 -1.7556 -0.2156
   96MOL   H11921209   4.687   6.553   3.690 -2.0565 -0.3453  0.2664
   96MOL   H12021210   4.401   6.384   3.702  1.1519 -0.4054  0.3034
   96MOL   H12121211   4.489   6.495   3.607 -0.8372  2.1936  3.9556
   96MOL   H12221212   4.490   6.322   3.559  0.8729 -1.5172  0.6849
   96MOL   C12321213   4.855   6.450   3.795 -0.1261 -0.6527 -0.8136
   96MOL   C12421214   4.895   6.329   3.899 -0.4555  0.2400 -0.1427
   96MOL   C12521215   4.875   6.371   4.044  0.2573  0.0464  0.2982
   96MOL   O12621216   4.946   6.454   4.105 -0.1603  0.2492 -0.3788
   96MOL   C12721217   4.768   6.291   4.119  0.4668  0.0053  0.1247
   96MOL   H12821218   4.912   6.538   3.826 -2.3623  0.2891  0.7262
   96MOL   H12921219   4.896   6.425   3.698 -0.2689 -0.5716 -0.8947
   96MOL   H13021220   4.827   6.246   3.887  0.3206 -0.4079 -0.0960
   96MOL   H13121221   4.738   6.333   4.215  1.5249  0.9524  0.0589
   96MOL   H13221222   4.808   6.195   4.151 -1.0763 -0.9493 -0.8115
   96MOL   H13321223   4.684   6.266   4.055  1.1636  1.2642 -1.3194
   96MOL   C13421224   5.035   6.281   3.873  0.0950  0.9534 -0.0103
   96MOL   C13521225   5.087   6.170   3.972  0.0762 -0.3591  0.4709
   96MOL   C13621226   5.027   6.029   3.952  0.1557  0.2865 -0.3521
   96MOL   O13721227   5.033   5.968   3.847 -0.0600 -0.4709 -0.2425
   96MOL   C13821228   4.976   5.969   4.070 -0.5073 -0.0072  0.5489
   96MOL   H13921229   5.098   6.369   3.867  1.3784  0.0952  0.7751
   96MOL   H14021230   5.038   6.239   3.772 -3.3371 -0.3044  0.3484
   96MOL   H14121231   5.066   6.211   4.071 -0.8912  1.9642 -0.6395
   96MOL   H14221232   5.024   5.989   4.166 -1.5113  2.9642  0.4668
   96MOL   H14321233   4.973   5.863   4.042 -0.7528 -0.0117  0.5897
   96MOL   H14421234   4.870   5.993   4.069  0.0298  2.4013  0.1725
   96MOL   C14521235   5.246   6.172   3.963  0.1966 -0.0136  0.1911
   96MOL   C14621236   5.320   6.089   4.076  0.0314 -0.2516  0.9000
   96MOL   C14721237   5.435   6.017   4.008 -0.8603 -0.3973 -0.0243
   96MOL   O14821238   5.448   5.891   4.021  0.2518  0.0111 -0.4319
   96MOL   C14921239   5.542   6.097   3.946 -0.5985 -0.0166  0.1968
   96MOL   H15021240   5.282   6.274   3.949  1.0331 -0.2173  0.7980
   96MOL   H15121241   5.270   6.126   3.867  0.7275  0.2309  0.2033
   96MOL   H15221242   5.261   6.006   4.117  0.6742 -2.0813 -1.7120
   96MOL   H15321243   5.604   6.039   3.877  0.0574  1.0008 -0.0763
   96MOL   H15421244   5.503   6.183   3.890  1.1772 -0.7073 -2.1949
   96MOL   H15521245   5.606   6.123   4.030 -1.1845 -1.0924  0.9828
   96MOL   C15621246   5.346   6.190   4.190  0.2799  0.1311  1.0228
   96MOL   C15721247   5.346   6.130   4.326  0.4155  0.0215 -1.2841
   96MOL   C15821248   5.201   6.129   4.389 -0.5671 -0.4405 -0.3221
   96MOL   O15921249   5.114   6.209   4.358 -0.9367 -0.4646  0.4101
   96MOL   C16021250   5.171   6.023   4.493 -0.2078 -0.3595  0.2459
   96MOL   H16121251   5.438   6.242   4.163 -0.7574  1.0650 -0.8058
   96MOL   H16221252   5.282   6.277   4.183  0.3787  0.1230  0.0180
   96MOL   H16321253   5.385   6.028   4.321  1.3259  0.2082  1.0966
   96MOL   H16421254   5.200   5.925   4.453  0.5201 -0.4798  1.0440
   96MOL   H16521255   5.067   6.025   4.523  0.1066  1.7592  1.3102
   96MOL   H16621256   5.233   6.046   4.580  0.6834 -0.7936 -0.2573
   96MOL   C16721257   5.438   6.203   4.422  0.0426 -0.0800 -0.4296
   96MOL   C16821258   5.593   6.196   4.383 -0.1622 -0.3754 -0.0588
   96MOL   C16921259   5.648   6.057   4.417 -0.2165 -0.5476 -0.1545
   96MOL   O17021260   5.669   6.018   4.530 -0.4704 -0.4619 -0.7932
   96MOL   C17121261   5.704   5.981   4.302 -0.1709  0.6612  0.7180
   96MOL   H17221262   5.405   6.307   4.427 -0.1310 -0.1695  0.4044
   96MOL   H17321263   5.424   6.160   4.521  0.3221  2.0243  0.5624
   96MOL   H17421264   5.607   6.219   4.278 -0.9596 -0.6821 -0.2386
   96MOL   H17521265   5.710   6.046   4.214 -0.2878  0.4452  0.5478
   96MOL   H17621266   5.641   5.892   4.293 -0.2141  0.7148  0.4649
   96MOL   H17721267   5.804   5.941   4.320 -0.2228  0.1190 -0.1689
   96MOL   C17821268   5.670   6.306   4.464 -0.1738  0.5553 -0.2812
   96MOL   C17921269   5.813   6.332   4.421  0.5263 -0.5104  0.4838
   96MOL   C18021270   5.913   6.263   4.519  0.8925  0.2446  0.8307
   96MOL   O18121271   5.917   6.291   4.638 -0.0160  0.0110  0.2258
   96MOL   C18221272   5.997   6.148   4.464 -0.7068  0.4001  0.6233
   96MOL   H18321273   5.603   6.392   4.463 -1.0546 -0.0961  0.9214
   96MOL   H18421274   5.673   6.278   4.569  2.6919  2.2846  0.1326
   96MOL   H18521275   5.839   6.288   4.325  0.8831 -1.7663  1.1386
   96MOL   H18621276   6.080   6.145   4.535  0.8788  1.9027 -1.0877
   96MOL   H18721277   6.037   6.180   4.368 -0.5674 -0.5979  0.3503
   96MOL   H18821278   5.947   6.052   4.463  0.0880 -0.0880  3.2601
   96MOL   C18921279   5.843   6.481   4.417  0.4994  0.2613 -1.0270
   96MOL   C19021280   5.770   6.572   4.311 -0.0501 -0.5946  0.4491
   96MOL   C19121281   5.788   6.725   4.344 -0.1110  0.9818  0.7443
   96MOL   O19221282   5.848   6.797   4.266 -0.1933 -0.1521  0.5730
   96MOL   C19321283   5.719   6.778   4.469  0.8073  0.7002  0.2904
   96MOL   H19421284   5.829   6.524   4.516 -0.4625 -1.0370 -0.5939
   96MOL   H19521285   5.950   6.487   4.397  0.6688 -1.4294 -0.6699
   96MOL   H19621286   5.663   6.565   4.331  0.0793  0.0928  1.4279
   96MOL   H19721287   5.707   6.694   4.537  1.1022 -1.2603 -1.9956
   96MOL   H19821288   5.766   6.870   4.503  1.0636  0.5964  0.2181
   96MOL   H19921289   5.619   6.814   4.445  0.8132  1.5742  1.4964
   96MOL   C20021290   5.810   6.538   4.168 -0.7808  0.2899 -0.0728
   96MOL   C20121291   5.731   6.601   4.050  0.5122 -0.6357 -0.0049
   96MOL   C20221292   5.584   6.554   4.037  0.1607  0.0977  0.3602
   96MOL   O20321293   5.545   6.443   4.070  0.3464 -0.0495  0.5047
   96MOL   C20421294   5.497   6.647   3.950  1.1236  0.3267  0.8086
   96MOL   H20521295   5.916   6.565   4.169  0.4828 -4.1930  2.7704
   96MOL   H20621296   5.791   6.431   4.163 -1.6365  0.4258  0.3069
   96MOL   H20721297   5.728   6.710   4.058 -0.9225 -0.7431  1.1327
   96MOL   H20821298   5.438   6.717   4.009 -2.4915 -1.4353 -0.5387
   96MOL   H20921299   5.565   6.705   3.889  0.8047 -0.4691 -0.3215
   96MOL   H21021300   5.421   6.590   3.897  1.3294  1.9416 -1.3122
   96MOL   C21121301   5.807   6.567   3.915  0.2797  0.5814 -0.9919
   96MOL   C21221302   5.811   6.426   3.858  0.2582  0.6930 -0.2418
   96MOL   C21321303   5.939   6.354   3.898 -0.1011 -0.6330  0.5327
   96MOL   O21421304   6.035   6.413   3.940 -0.0622  0.2330 -0.7142
   96MOL   C21521305   5.942   6.199   3.890 -0.1493 -0.5164  0.2201
   96MOL   H21621306   5.762   6.626   3.835 -2.8446  0.3776  0.5193
   96MOL   H21721307   5.908   6.607   3.923 -0.0610  0.9252  2.0825
   96MOL   H21821308   5.818   6.443   3.751 -0.0933  0.9970 -0.2168
   96MOL   H21921309   6.041   6.174   3.852 -0.1630  0.5673 -0.5733
   96MOL   H22021310   5.920   6.152   3.986 -2.4203 -1.5088 -0.7516
   96MOL   H22121311   5.870   6.167   3.816  0.4399 -1.0405 -0.1254
   96MOL   H22221312   5.724   6.366   3.880  0.3785  0.7925  0.5397
   97MOL     C121313   0.295   6.623   4.647 -0.7352  0.3090 -0.2644
   97MOL     C221314   0.261   6.666   4.797  0.2750 -0.1766  0.1658
   97MOL     C321315   0.224   6.806   4.807 -0.4429  0.2073  0.5931
   97MOL     O421316   0.108   6.845   4.813  0.1048  0.2662 -0.4693
   97MOL     C521317   0.339   6.907   4.817  0.4265 -0.0853 -0.3142
   97MOL     H621318   0.300   6.712   4.584  0.7684 -0.4145 -1.2007
   97MOL     H721319   0.220   6.551   4.616 -0.5770 -0.0946  0.2811
   97MOL     H821320   0.358   6.653   4.844  1.4693  1.0096 -1.9011
   97MOL     H921321   0.397   6.919   4.725  1.5512  0.4187  0.4372
   97MOL    H1021322   0.293   7.005   4.834 -1.4309 -1.0107  0.0969
   97MOL    H1121323   0.411   6.874   4.892  0.8322  2.3048  0.3856
   97MOL    H1221324   0.385   6.562   4.642 -0.7332  0.1558  1.2466
   97MOL    C1321325   0.158   6.567   4.870 -0.1232 -0.2984 -0.6192
   97MOL    C1421326   0.216   6.448   4.954  0.7227  0.4634  0.2695
   97MOL    C1521327   0.259   6.321   4.875  0.0762  0.4840 -0.1545
   97MOL    O1621328   0.180   6.233   4.840 -0.1306 -0.1383  0.3585
   97MOL    C1721329   0.406   6.306   4.840  0.1029  0.0013 -0.4885
   97MOL    H1821330   0.111   6.629   4.947 -0.7268  0.6050 -1.7004
   97MOL    H1921331   0.073   6.542   4.806 -0.1074  1.7601 -1.4730
   97MOL    H2021332   0.312   6.493   4.978  0.3508  1.4843 -0.1621
   97MOL    H2121333   0.415   6.259   4.743  2.0201 -1.5492  0.4182
   97MOL    H2221334   0.441   6.409   4.830  0.6871 -0.1783 -0.3150
   97MOL    H2321335   0.466   6.250   4.911  0.4789  0.7258 -0.2278
   97MOL    C2421336   0.142   6.418   5.082 -0.3349  0.5059 -0.6048
   97MOL    C2521337   0.202   6.299   5.173  0.2237  0.6798 -0.3654
   97MOL    C2621338   0.341   6.323   5.233 -0.1677  0.2176  0.2137
   97MOL    O2721339   0.397   6.427   5.245  0.1893 -0.4076  0.3370
   97MOL    C2821340   0.426   6.196   5.267  0.1592  0.9710 -0.6841
   97MOL    H2921341   0.141   6.506   5.147 -0.7824  0.2312 -0.2423
   97MOL    H3021342   0.037   6.396   5.064 -0.9160  1.3055  1.5678
   97MOL    H3121343   0.226   6.211   5.113 -0.2865 -0.0831  0.5301
   97MOL    H3221344   0.466   6.201   5.368 -1.1368 -0.8314 -0.0520
   97MOL    H3321345   0.363   6.108   5.249  1.2837  0.0425 -0.1179
   97MOL    H3421346   0.514   6.192   5.203  0.1855 -0.1615 -0.5877
   97MOL    C3521347   0.106   6.250   5.283  0.0149 -0.6602  0.9094
   97MOL    C3621348   7.821   6.211   5.234  0.5830 -0.2432 -0.4355
   97MOL    C3721349   7.820   6.107   5.124 -0.6152 -0.1396 -0.1801
   97MOL    O3821350   0.009   5.999   5.145 -0.6442  0.1981 -0.2653
   97MOL    C3921351   7.759   6.138   4.987  1.1867 -0.2280  0.2840
   97MOL    H4021352   0.087   6.328   5.356  0.1522  0.1902  0.0396
   97MOL    H4121353   0.148   6.163   5.334  0.7155  0.7025  2.7048
   97MOL    H4221354   7.778   6.305   5.198 -3.1151 -1.7189 -0.0633
   97MOL    H4321355   7.822   6.215   4.942  1.0162 -0.9382 -1.1930
   97MOL    H4421356   7.665   6.192   4.994 -0.8605 -3.5815 -0.3118
   97MOL    H4521357   7.758   6.061   4.910  0.7725  1.5904 -1.5931
   97MOL    C4621358   7.728   6.170   5.358  0.0689  0.1969 -0.0581
   97MOL    C4721359   7.574   6.153   5.318 -0.3216  0.0195  0.4045
   97MOL    C4821360   7.496   6.068   5.421 -0.4547  0.2199 -0.0814
   97MOL    O4921361   7.466   6.123   5.527 -0.3126 -0.4082  0.0821
   97MOL    C5021362   7.469   5.918   5.393 -0.0074 -0.3438 -0.0970
   97MOL    H5121363   7.731   6.252   5.430 -0.1974  0.2830 -0.1433
   97MOL    H5221364   7.760   6.085   5.418 -0.5298 -0.4509 -0.6523
   97MOL    H5321365   7.565   6.088   5.231 -0.7770  1.8241 -0.9330
   97MOL    H5421366   7.535   5.848   5.445  0.0287  0.3022  0.7274
   97MOL    H5521367   7.369   5.882   5.418 -0.1556  0.3224  0.2664
   97MOL    H5621368   7.479   5.900   5.286  1.4038 -0.3415  0.0210
   97MOL    C5721369   7.502   6.289   5.287  0.0092  0.2640 -0.2155
   97MOL    C5821370   7.367   6.284   5.206 -0.0846 -0.3231 -0.3624
   97MOL    C5921371   7.295   6.418   5.208 -0.0070 -0.3227  0.6231
   97MOL    O6021372   7.361   6.522   5.224  0.2250  0.5240  0.5201
   97MOL    C6121373   7.141   6.426   5.219  0.9427 -0.6670  0.3393
   97MOL    H6221374   7.565   6.357   5.231  1.1226 -1.8491 -1.6090
   97MOL    H6321375   7.481   6.336   5.383  0.6639  0.7424 -0.3108
   97MOL    H6421376   7.303   6.210   5.253 -1.1740 -0.9585 -2.7705
   97MOL    H6521377   7.106   6.486   5.136 -2.0284 -2.5316  0.2080
   97MOL    H6621378   7.089   6.331   5.215  0.9147 -0.8180  2.9499
   97MOL    H6721379   7.112   6.475   5.312  0.2047 -2.0087  0.8218
   97MOL    C6821380   7.387   6.239   5.057 -0.0479  0.0036  0.2862
   97MOL    C6921381   7.264   6.215   4.967  0.1098  0.1488  0.1874
   97MOL    C7021382   7.188   6.090   5.014  0.8106 -0.2066 -0.2179
   97MOL    O7121383   7.234   6.028   5.111  0.6339 -0.0261  0.0553
   97MOL    C7221384   7.059   6.048   4.951  0.0339 -0.4092 -0.2153
   97MOL    H7321385   7.455   6.311   5.011  0.3184  0.4124  1.4651
   97MOL    H7421386   7.448   6.149   5.057 -0.8224 -0.5432  2.0863
   97MOL    H7521387   7.193   6.298   4.965 -0.8320 -0.6526 -3.7012
   97MOL    H7621388   7.078   5.993   4.859  0.2942  2.3294 -1.8614
   97MOL    H7721389   6.995   6.002   5.026 -0.3447 -0.0470 -0.3121
   97MOL    H7821390   7.009   6.136   4.909  0.6271 -0.0568 -0.1958
   97MOL    C7921391   7.312   6.203   4.824  0.0618  0.3860  0.1888
   97MOL    C8021392   7.382   6.315   4.750 -0.2648  0.3766  0.1440
   97MOL    C8121393   7.300   6.444   4.729  0.3945  0.7409  0.7478
   97MOL    O8221394   7.219   6.453   4.637 -0.0236  0.5524  0.4332
   97MOL    C8321395   7.315   6.561   4.834 -0.2187 -0.3603  0.2281
   97MOL    H8421396   7.228   6.172   4.762 -0.0121  0.6751  0.1414
   97MOL    H8521397   7.382   6.119   4.826 -0.1999 -0.0042 -3.4298
   97MOL    H8621398   7.470   6.339   4.809 -0.6610  2.3190 -0.0371
   97MOL    H8721399   7.229   6.628   4.839  0.3591  0.4109 -0.1664
   97MOL    H8821400   7.410   6.614   4.823 -0.2044 -0.5206 -0.4061
   97MOL    H8921401   7.331   6.519   4.933 -1.9641  1.7443  1.4602
   97MOL    C9021402   7.429   6.261   4.604 -0.9066 -0.0368  0.1438
   97MOL    C9121403   7.542   6.346   4.533 -0.4827 -0.3080  0.2102
   97MOL    C9221404   7.677   6.283   4.552 -0.0315 -0.7301 -0.2902
   97MOL    O9321405   7.736   6.220   4.465 -0.4762  0.1496  0.6723
   97MOL    C9421406   7.747   6.305   4.682  0.8834 -0.3285  0.1112
   97MOL    H9521407   7.479   6.166   4.619  2.1563  1.5498  0.3269
   97MOL    H9621408   7.340   6.242   4.544 -0.7367  0.1864 -0.1812
   97MOL    H9721409   7.536   6.446   4.576 -1.2717  0.2319 -1.1166
   97MOL    H9821410   7.724   6.237   4.763  0.8989 -0.2087  0.2156
   97MOL    H9921411   7.856   6.300   4.670  0.7703 -2.3652 -0.2980
   97MOL   H10021412   7.730   6.409   4.709 -0.2543 -0.3402 -0.5564
   97MOL   C10121413   7.518   6.356   4.383  0.5406 -0.5135 -0.1842
   97MOL   C10221414   7.617   6.429   4.288 -0.0245  0.1827 -1.1450
   97MOL   C10321415   7.601   6.575   4.311  0.6195  0.5026  0.2100
   97MOL   O10421416   7.503   6.630   4.268  0.1909  0.0907 -0.4398
   97MOL   C10521417   7.707   6.634   4.392  0.0983 -0.3205 -0.2860
   97MOL   H10621418   7.494   6.255   4.350  3.2008 -1.1376 -0.3034
   97MOL   H10721419   7.421   6.405   4.374 -0.1763 -1.5604  1.5427
   97MOL   H10821420   7.722   6.403   4.299 -0.4431 -0.5476  1.4824
   97MOL   H10921421   7.682   6.735   4.424  0.2696 -0.4720  0.3439
   97MOL   H11021422   7.708   6.577   4.485  1.6558 -2.5497 -1.6077
   97MOL   H11121423   7.809   6.628   4.353 -0.1036  1.7241 -1.1835
   97MOL   C11221424   7.595   6.401   4.135 -0.1490  0.6872  0.4772
   97MOL   C11321425   7.686   6.472   4.035  0.8464 -0.1696  0.0180
   97MOL   C11421426   7.602   6.551   3.930  0.2224  0.3900 -0.3058
   97MOL   O11521427   7.523   6.495   3.860 -0.1851  0.2960 -0.5270
   97MOL   C11621428   7.627   6.694   3.923  0.1899  0.3345 -1.2485
   97MOL   H11721429   7.490   6.426   4.121  0.2399  2.2331  0.2721
   97MOL   H11821430   7.597   6.293   4.120  2.3004  0.9613 -1.5081
   97MOL   H11921431   7.744   6.547   4.087  1.8289 -1.0119  0.1416
   97MOL   H12021432   7.730   6.721   3.898  0.2526  0.4814 -0.8421
   97MOL   H12121433   7.555   6.748   3.862 -0.7770 -0.3279 -0.7196
   97MOL   H12221434   7.618   6.731   4.026 -2.0109 -0.9138 -0.9618
   97MOL   C12321435   7.800   6.389   3.968  0.7013  0.8689 -0.2555
   97MOL   C12421436   0.089   6.420   4.014  0.6950 -0.0356  0.6642
   97MOL   C12521437   0.120   6.374   4.156 -0.8594 -0.3535 -0.3947
   97MOL   O12621438   0.145   6.456   4.239  0.2018  0.4418  0.2445
   97MOL   C12721439   0.091   6.235   4.196 -0.6362 -0.1485  0.4420
   97MOL   H12821440   7.800   6.405   3.860 -2.0319  0.8012 -0.3134
   97MOL   H12921441   7.776   6.283   3.978  1.4239  0.9038  2.1419
   97MOL   H13021442   0.146   6.361   3.943 -1.9375 -1.1013 -0.6508
   97MOL   H13121443   0.112   6.217   4.302  0.8813  1.8608  0.4978
   97MOL   H13221444   0.162   6.166   4.151 -0.9718  0.4500 -1.0386
   97MOL   H13321445   7.846   6.198   4.184 -1.0651  1.3985 -0.7477
   97MOL   C13421446   0.128   6.569   3.982 -0.1818 -0.2329  0.2644
   97MOL   C13521447   0.276   6.590   3.965  0.8923 -0.1394  0.2492
   97MOL   C13621448   0.332   6.535   3.830 -0.1402 -0.1809 -0.5420
   97MOL   O13721449   0.318   6.599   3.731 -0.2893 -0.3687  0.3129
   97MOL   C13821450   0.417   6.413   3.837  0.3191 -0.3427 -0.2611
   97MOL   H13921451   0.110   6.630   4.070 -1.2487 -0.0313 -0.0879
   97MOL   H14021452   0.084   6.606   3.889  1.4307 -1.5366 -1.0528
   97MOL   H14121453   0.323   6.530   4.044  1.2127  0.0061  0.1679
   97MOL   H14221454   0.447   6.383   3.937  1.1808 -0.1284 -0.4489
   97MOL   H14321455   0.494   6.410   3.760 -0.2042  0.6144 -0.8248
   97MOL   H14421456   0.348   6.344   3.788  0.3360 -0.5043 -0.0574
   97MOL   C14521457   0.317   6.739   3.981 -0.0547 -0.4675 -0.0792
   97MOL   C14621458   0.302   6.799   4.131 -0.4109 -0.2496 -0.2954
   97MOL   C14721459   0.447   6.800   4.195  0.8942  0.1691 -0.4234
   97MOL   O14821460   0.528   6.889   4.177 -0.1726  0.0930  0.0716
   97MOL   C14921461   0.495   6.673   4.261 -0.0424  0.9355 -0.3962
   97MOL   H15021462   0.244   6.801   3.928  0.6694 -0.5333 -1.1440
   97MOL   H15121463   0.413   6.760   3.934 -0.7220  0.5588 -1.0193
   97MOL   H15221464   0.248   6.729   4.195  0.0339  0.7234  1.1874
   97MOL   H15321465   0.577   6.686   4.332 -0.6409 -1.3793  0.8043
   97MOL   H15421466   0.409   6.625   4.309  2.3795 -1.7403  1.4848
   97MOL   H15521467   0.527   6.595   4.191 -0.5295  0.9170 -0.6016
   97MOL   C15621468   0.244   6.946   4.136 -0.5152 -0.2393 -0.0714
   97MOL   C15721469   0.199   6.989   4.278  0.5705  0.4226 -0.1845
   97MOL   C15821470   0.072   6.907   4.322 -1.0299 -0.3249  0.3939
   97MOL   O15921471   7.849   6.867   4.240 -0.2045  0.7444 -0.4929
   97MOL   C16021472   0.040   6.892   4.475  0.3036  0.0297 -0.2551
   97MOL   H16121473   0.322   7.012   4.097 -1.9272  1.1337 -0.6398
   97MOL   H16221474   0.159   6.955   4.068 -0.9885 -2.4781  0.1896
   97MOL   H16321475   0.273   6.966   4.354  0.8099 -1.4809 -0.9875
   97MOL   H16421476   0.074   6.791   4.498  2.0164  0.5160 -0.5732
   97MOL   H16521477   7.791   6.911   4.483  0.6861  1.4289  2.2523
   97MOL   H16621478   0.103   6.968   4.523  0.8188  0.9072 -2.2648
   97MOL   C16721479   0.156   7.139   4.278  0.0773 -0.6818 -0.1785
   97MOL   C16821480   0.262   7.244   4.256 -0.4516 -0.3934 -0.4345
   97MOL   C16921481   0.362   7.242   4.370  0.3497  0.0666  0.2934
   97MOL   O17021482   0.323   7.269   4.483  0.1667 -0.1373  0.4816
   97MOL   C17121483   0.507   7.222   4.332 -0.1416 -0.6933  0.6185
   97MOL   H17221484   0.090   7.150   4.191 -0.3744  0.9379  0.3436
   97MOL   H17321485   0.115   7.170   4.374 -1.1776 -1.6058 -0.4058
   97MOL   H17421486   0.313   7.220   4.162  0.7275 -2.4957  0.7105
   97MOL   H17521487   0.572   7.237   4.418  0.2814 -0.0598  0.1919
   97MOL   H17621488   0.536   7.314   4.281 -1.2646  0.8270  2.6321
   97MOL   H17721489   0.538   7.136   4.273  1.5652  1.6541 -2.0462
   97MOL   C17821490   0.195   7.392   4.243 -0.5410  0.2002 -0.0903
   97MOL   C17921491   0.292   7.500   4.187  0.4305  0.3360 -0.2451
   97MOL   C18021492   0.293   7.631   4.266 -0.8542 -0.8744 -0.1672
   97MOL   O18121493   0.223   7.724   4.228 -0.0108 -0.1398  0.1986
   97MOL   C18221494   0.370   7.638   4.394 -0.2198  0.4493  0.0061
   97MOL   H18321495   0.105   7.378   4.183 -0.0994  0.8252 -0.8982
   97MOL   H18421496   0.154   7.425   4.339 -0.9152 -2.5437  0.7341
   97MOL   H18521497   0.395   7.463   4.191  0.6789  1.0333  0.0415
   97MOL   H18621498   0.474   7.613   4.374 -0.1190 -0.5722  1.8101
   97MOL   H18721499   0.326   7.558   4.453 -0.7344 -1.2689 -2.6130
   97MOL   H18821500   0.385   7.737   4.437  1.3827 -0.6291  1.9651
   97MOL   C18921501   0.247   7.535   4.037  0.2982 -0.8294  0.5151
   97MOL   C19021502   0.343   7.481   3.929  0.2957 -0.4585 -0.3450
   97MOL   C19121503   0.353   7.327   3.934  0.5060 -0.4820 -0.3189
   97MOL   O19221504   0.261   7.251   3.904  0.0659 -0.7392 -0.0388
   97MOL   C19321505   0.485   7.261   3.977 -0.5708 -0.4678  0.0276
   97MOL   H19421506   0.147   7.496   4.020 -0.4455  0.9806  0.5831
   97MOL   H19521507   0.245   7.642   4.014  0.7863 -0.9410 -0.0896
   97MOL   H19621508   0.438   7.525   3.960 -1.8492  3.1431  1.4760
   97MOL   H19721509   0.464   7.156   3.997  1.3258 -1.4681 -2.8716
   97MOL   H19821510   0.552   7.262   3.891 -0.2851  0.0550  0.2494
   97MOL   H19921511   0.535   7.295   4.069 -1.5397  0.4987  0.2021
   97MOL   C20021512   0.307   7.536   3.785 -0.3047  0.6731  0.2708
   97MOL   C20121513   0.413   7.513   3.676 -0.2272  0.6301  0.4247
   97MOL   C20221514   0.538   7.603   3.692  0.1149 -0.8799 -0.2958
   97MOL   O20321515   0.525   7.705   3.755  0.1988  0.1386  0.5169
   97MOL   C20421516   0.664   7.568   3.626  0.0550  0.1139 -0.0715
   97MOL   H20521517   0.220   7.476   3.757  0.4399 -0.8615  1.1612
   97MOL   H20621518   0.278   7.641   3.787  1.5712  1.2451 -1.2827
   97MOL   H20721519   0.459   7.414   3.677 -1.6452 -0.0300  0.9467
   97MOL   H20821520   0.695   7.636   3.547 -0.7870 -0.0428 -0.5390
   97MOL   H20921521   0.745   7.571   3.700  0.1296  0.2141 -0.1579
   97MOL   H21021522   0.667   7.464   3.592 -3.2339 -0.3318  0.8539
   97MOL   C21121523   0.346   7.526   3.540  0.1018  0.2922  0.3362
   97MOL   C21221524   0.297   7.667   3.505 -1.0937  0.5128 -0.1302
   97MOL   C21321525   0.243   7.664   3.361 -0.2647  1.1099  0.3328
   97MOL   O21421526   0.300   7.610   3.267 -0.4663 -0.1460 -0.0242
   97MOL   C21521527   0.110   7.732   3.327  0.6021 -0.2226 -0.5104
   97MOL   H21621528   0.418   7.506   3.461  0.6735  0.0462  0.9172
   97MOL   H21721529   0.267   7.451   3.536  1.1560 -0.8821  1.4420
   97MOL   H21821530   0.372   7.744   3.522  0.2309 -0.7330 -0.2758
   97MOL   H21921531   0.072   7.683   3.237 -0.9516  0.4291 -0.2189
   97MOL   H22021532   0.045   7.731   3.414  0.3377  0.4601 -0.6979
   97MOL   H22121533   0.131   7.835   3.299 -1.3782  0.1350 -0.7436
   97MOL   H22221534   0.221   7.697   3.576 -0.6953 -1.9479  1.3930
   98MOL     C121535   2.919   5.413   1.641 -0.3068 -0.0434  0.6609
   98MOL     C221536   3.063   5.380   1.668 -0.0691 -0.0010  0.1536
   98MOL     C321537   3.159   5.481   1.599  0.0039  0.0943  0.1920
   98MOL     O421538   3.151   5.597   1.625 -0.0062  0.6931 -0.3269
   98MOL     C521539   3.266   5.422   1.509 -0.4661 -0.8344 -0.5781
   98MOL     H621540   2.879   5.490   1.708  0.2460 -0.7509  1.8165
   98MOL     H721541   2.859   5.321   1.638  0.1418 -0.3334  0.6111
   98MOL     H821542   3.079   5.289   1.611  0.3812  0.1465  0.0424
   98MOL     H921543   3.271   5.315   1.524  0.4985 -1.2801 -3.6327
   98MOL    H1021544   3.259   5.454   1.404  1.0400  2.0295  0.1335
   98MOL    H1121545   3.350   5.480   1.547 -0.5799  0.2018 -1.8689
   98MOL    H1221546   2.913   5.451   1.539 -0.4914 -1.4106  0.1415
   98MOL    C1321547   3.096   5.358   1.822  0.0350  0.4974  0.4423
   98MOL    C1421548   3.238   5.306   1.851  0.1167  0.3447  0.1173
   98MOL    C1521549   3.278   5.187   1.758 -0.0156 -0.1431 -0.5117
   98MOL    O1621550   3.196   5.111   1.713  0.1297  0.6972 -0.5052
   98MOL    C1721551   3.420   5.177   1.717 -0.1443  0.3917  1.0224
   98MOL    H1821552   3.073   5.449   1.878  3.0247  0.9302  1.0321
   98MOL    H1921553   3.025   5.285   1.861 -1.7313  2.3889  0.8508
   98MOL    H2021554   3.306   5.389   1.833 -0.0824  0.6092  0.5938
   98MOL    H2121555   3.462   5.277   1.710 -2.8130  1.5778  1.3593
   98MOL    H2221556   3.473   5.123   1.796  0.3053  1.1820  1.2665
   98MOL    H2321557   3.426   5.111   1.631 -1.0962  0.2962  1.0245
   98MOL    C2421558   3.239   5.264   2.001 -0.2449 -0.0975  0.2412
   98MOL    C2521559   3.372   5.283   2.077 -0.6928 -0.3053 -0.1877
   98MOL    C2621560   3.460   5.156   2.071 -0.4687 -0.2518  0.8866
   98MOL    O2721561   3.579   5.177   2.049 -0.0119  0.8454 -0.2843
   98MOL    C2821562   3.414   5.014   2.103 -0.3820  0.3935  0.4520
   98MOL    H2921563   3.165   5.325   2.054  0.5742  3.2214 -2.2403
   98MOL    H3021564   3.206   5.160   2.006  0.6580 -0.4210 -0.4585
   98MOL    H3121565   3.350   5.278   2.184  0.0878  1.0162  0.0405
   98MOL    H3221566   3.330   4.994   2.035 -0.8561  0.5525  0.9831
   98MOL    H3321567   3.495   4.944   2.083 -0.2064  0.8514 -0.4616
   98MOL    H3421568   3.376   5.012   2.205  0.2356 -0.6457  0.6658
   98MOL    C3521569   3.439   5.417   2.037  0.0553  1.1025 -0.7281
   98MOL    C3621570   3.539   5.478   2.131  0.5961  0.0868  0.0959
   98MOL    C3721571   3.649   5.552   2.060 -0.6513  0.3400  0.2669
   98MOL    O3821572   3.642   5.670   2.038 -0.5110 -0.2103 -0.1849
   98MOL    C3921573   3.761   5.462   2.002 -0.5003 -0.7220  0.0016
   98MOL    H4021574   3.357   5.483   2.009  0.5444  1.6038 -0.9726
   98MOL    H4121575   3.481   5.384   1.942 -0.4428  0.3977 -0.7113
   98MOL    H4221576   3.589   5.392   2.177 -0.4413 -2.1202 -2.7283
   98MOL    H4321577   3.774   5.501   1.900 -3.4996  1.8014  0.4920
   98MOL    H4421578   3.731   5.358   1.990 -4.4125  0.3039  0.1662
   98MOL    H4521579   3.855   5.466   2.056 -1.2619 -0.5672  1.3421
   98MOL    C4621580   3.457   5.558   2.235  0.0379 -0.8102 -0.1804
   98MOL    C4721581   3.528   5.643   2.348 -0.2993  0.6174 -0.1453
   98MOL    C4821582   3.410   5.700   2.427  0.8013 -1.2009  0.1419
   98MOL    O4921583   3.346   5.637   2.509  0.1525 -0.4877 -0.1540
   98MOL    C5021584   3.376   5.844   2.386 -0.7488 -0.1941  0.4365
   98MOL    H5121585   3.388   5.489   2.283  0.2021 -0.3889  0.6631
   98MOL    H5221586   3.386   5.619   2.179  0.4850  0.2151  0.3445
   98MOL    H5321587   3.586   5.725   2.307  0.4588 -0.9696 -2.3499
   98MOL    H5421588   3.433   5.863   2.295 -0.6851 -1.9074  0.1088
   98MOL    H5521589   3.270   5.843   2.360 -0.4330  0.1888 -0.9482
   98MOL    H5621590   3.394   5.920   2.463 -0.5657 -0.7543  0.9444
   98MOL    C5721591   3.622   5.571   2.445  0.4031 -0.4729  0.4562
   98MOL    C5821592   3.737   5.672   2.489 -0.2718  0.3087  0.4138
   98MOL    C5921593   3.776   5.665   2.631  0.4966  0.6720 -0.2699
   98MOL    O6021594   3.846   5.575   2.674  0.1519  0.6177 -0.6002
   98MOL    C6121595   3.707   5.760   2.732 -0.2050  0.4079  0.6068
   98MOL    H6221596   3.678   5.488   2.402 -1.5742 -1.7579  0.3010
   98MOL    H6321597   3.571   5.550   2.538  1.4868 -0.3814  1.0745
   98MOL    H6421598   3.687   5.769   2.487  0.6316  0.7633 -0.7209
   98MOL    H6521599   3.721   5.718   2.831  2.4589 -2.7881 -1.0200
   98MOL    H6621600   3.751   5.858   2.719  2.5919 -1.0217 -1.3286
   98MOL    H6721601   3.603   5.757   2.699  0.1512  0.2137 -0.5301
   98MOL    C6821602   3.851   5.674   2.384  0.9012 -0.2806 -0.5221
   98MOL    C6921603   3.949   5.798   2.395  0.4908  0.4646 -0.3177
   98MOL    C7021604   3.867   5.928   2.381  0.0652 -0.0083 -0.5877
   98MOL    O7121605   3.828   5.966   2.273 -0.5364 -0.0533  0.3458
   98MOL    C7221606   3.846   6.009   2.511 -0.2535 -0.3596 -0.1415
   98MOL    H7321607   3.901   5.579   2.404  0.4056 -0.5228 -0.4162
   98MOL    H7421608   3.815   5.668   2.282 -4.0125  0.2767  1.0331
   98MOL    H7521609   3.996   5.797   2.493  2.6998 -1.7486 -1.3534
   98MOL    H7621610   3.933   6.006   2.576  0.3599 -0.0957 -0.9407
   98MOL    H7721611   3.834   6.112   2.479 -0.7639 -0.4364 -0.1968
   98MOL    H7821612   3.759   5.973   2.565 -2.2039 -0.1301 -3.0246
   98MOL    C7921613   4.066   5.787   2.302  0.3759 -1.1112 -0.5335
   98MOL    C8021614   4.171   5.898   2.318  0.0584  0.6039 -1.4907
   98MOL    C8121615   4.229   5.957   2.189  0.5364  0.8980 -0.3277
   98MOL    O8221616   4.343   5.947   2.150 -0.3292  0.1077  0.5680
   98MOL    C8321617   4.128   6.042   2.117 -0.1660 -0.8448  0.1578
   98MOL    H8421618   4.032   5.772   2.200  0.7422  1.0264 -0.9967
   98MOL    H8521619   4.105   5.690   2.332 -0.2994 -0.4405  2.6999
   98MOL    H8621620   4.114   5.984   2.355 -0.2583 -0.4112  0.4524
   98MOL    H8721621   4.162   6.076   2.019  2.3620 -0.6747  1.0525
   98MOL    H8821622   4.102   6.129   2.177  0.9389  0.9164 -1.8432
   98MOL    H8921623   4.030   5.999   2.097 -0.6672  0.5769 -0.4881
   98MOL    C9021624   4.281   5.865   2.426 -0.6127 -0.0199  0.3785
   98MOL    C9121625   4.285   5.973   2.536  1.0515 -0.3219 -0.3592
   98MOL    C9221626   4.365   5.927   2.661 -0.1046 -0.2839  0.1745
   98MOL    O9321627   4.486   5.918   2.655 -0.2390 -0.1533 -0.5878
   98MOL    C9421628   4.284   5.887   2.782 -0.2155 -0.0183  0.5438
   98MOL    H9521629   4.262   5.769   2.473 -0.3448 -1.3573 -2.1218
   98MOL    H9621630   4.383   5.861   2.386 -0.2360  1.4553  1.1705
   98MOL    H9721631   4.179   5.984   2.556  1.3774 -1.1172  2.0394
   98MOL    H9821632   4.226   5.969   2.824 -1.9955  0.3835 -2.5730
   98MOL    H9921633   4.206   5.817   2.753  0.5317 -1.1733  1.3003
   98MOL   H10021634   4.348   5.838   2.856 -1.5814 -3.3245 -0.3935
   98MOL   C10121635   4.330   6.113   2.499  0.4587 -0.6800 -0.4103
   98MOL   C10221636   4.295   6.228   2.594  0.5171 -0.4982  0.0430
   98MOL   C10321637   4.142   6.248   2.622 -0.3399 -0.8022  0.3761
   98MOL   O10421638   4.067   6.233   2.524  0.0866  0.0825  0.4691
   98MOL   C10521639   4.097   6.284   2.765 -0.4345  0.2914  0.7043
   98MOL   H10621640   4.439   6.115   2.499  0.4847 -0.6276  1.2416
   98MOL   H10721641   4.294   6.137   2.399 -1.6769 -1.2781  0.1866
   98MOL   H10821642   4.324   6.212   2.697 -0.7421 -0.8049  0.3617
   98MOL   H10921643   4.121   6.389   2.785 -0.3214  0.0045  2.1081
   98MOL   H11021644   3.991   6.265   2.783 -0.6621 -0.9596 -1.7620
   98MOL   H11121645   4.159   6.226   2.832  0.6883 -0.7596 -1.1870
   98MOL   C11221646   4.361   6.360   2.539  1.3036 -0.2442 -0.5617
   98MOL   C11321647   4.318   6.412   2.400 -0.1419  0.3507  0.1222
   98MOL   C11421648   4.438   6.460   2.317 -0.2655 -0.0156  0.5437
   98MOL   O11521649   4.467   6.578   2.314 -0.2972  0.1718  0.3067
   98MOL   C11621650   4.512   6.354   2.226 -0.4734  0.2265 -0.0574
   98MOL   H11721651   4.468   6.339   2.537  1.2381 -0.6026 -0.4153
   98MOL   H11821652   4.351   6.445   2.607  2.9511 -0.0591 -0.5284
   98MOL   H11921653   4.276   6.326   2.347  0.7551 -0.0295  0.0099
   98MOL   H12021654   4.449   6.265   2.227 -0.7236  0.4021 -0.1116
   98MOL   H12121655   4.491   6.404   2.132  0.6080  1.4480  0.3365
   98MOL   H12221656   4.615   6.335   2.254 -0.5567  2.1489  1.7367
   98MOL   C12321657   4.205   6.513   2.408 -0.1010  0.0012  0.4791
   98MOL   C12421658   4.116   6.547   2.281  0.5253  0.5529  0.0290
   98MOL   C12521659   4.061   6.420   2.219 -0.3959 -0.4517 -1.0402
   98MOL   O12621660   4.134   6.357   2.151 -0.9052  0.7922  0.3737
   98MOL   C12721661   3.919   6.374   2.243  0.4212  0.8760  1.1266
   98MOL   H12821662   4.256   6.604   2.440  1.1639  1.3389 -4.8893
   98MOL   H12921663   4.137   6.487   2.490  2.2386 -0.5363  2.3134
   98MOL   H13021664   4.037   6.613   2.316  1.0870  1.9637 -1.3158
   98MOL   H13121665   3.855   6.417   2.166  1.9741  1.8851  0.3745
   98MOL   H13221666   3.894   6.415   2.341  0.8946  0.0214  1.6111
   98MOL   H13321667   3.905   6.266   2.249  0.3240  0.8919  1.1857
   98MOL   C13421668   4.189   6.629   2.171  0.0252  0.0268 -0.3402
   98MOL   C13521669   4.107   6.707   2.068 -0.2857 -0.2204 -0.1872
   98MOL   C13621670   4.018   6.814   2.140 -0.3577  0.2496  0.0968
   98MOL   O13721671   4.018   6.831   2.262  0.4018  0.1755  0.0636
   98MOL   C13821672   3.935   6.899   2.050  0.8656  0.1385 -0.9145
   98MOL   H13921673   4.262   6.560   2.127  1.4423  0.3524  1.4303
   98MOL   H14021674   4.260   6.697   2.219  0.0869 -0.7879  0.7457
   98MOL   H14121675   4.031   6.635   2.037 -0.6207  0.2270 -0.3964
   98MOL   H14221676   3.996   6.977   2.004 -1.2545  2.4057  0.0399
   98MOL   H14321677   3.850   6.945   2.100  0.4597 -1.3924 -0.1411
   98MOL   H14421678   3.902   6.835   1.968 -1.2779 -0.4290  0.3553
   98MOL   C14521679   4.190   6.760   1.948  0.4737 -0.4812  0.0928
   98MOL   C14621680   4.267   6.896   1.951  0.5450 -0.8637  0.1421
   98MOL   C14721681   4.395   6.889   2.037 -0.3910  1.0760  0.4461
   98MOL   O14821682   4.505   6.859   1.987 -0.4978  0.1821  0.6421
   98MOL   C14921683   4.392   6.944   2.175  0.3597  0.7309  0.3597
   98MOL   H15021684   4.121   6.765   1.864  0.0868 -0.6873  0.3940
   98MOL   H15121685   4.266   6.686   1.921  1.0602 -0.4652  1.6547
   98MOL   H15221686   4.209   6.975   1.998  0.3053 -1.0628  0.1849
   98MOL   H15321687   4.291   6.977   2.199 -1.2627 -2.3040 -2.0267
   98MOL   H15421688   4.426   6.874   2.251 -0.4529  0.2986  0.3220
   98MOL   H15521689   4.472   7.018   2.176 -0.5519  1.7259  0.3900
   98MOL   C15621690   4.290   6.954   1.807 -0.5871  0.3847  0.0239
   98MOL   C15721691   4.171   7.039   1.761  0.4422 -0.3545  0.2107
   98MOL   C15821692   4.074   6.948   1.682  0.3831  0.4971  0.2766
   98MOL   O15921693   3.953   6.958   1.697  0.0489  0.6514 -0.8389
   98MOL   C16021694   4.129   6.870   1.562 -0.2674  0.5239 -0.6376
   98MOL   H16121695   4.384   7.007   1.816 -0.8237  0.6829  0.8352
   98MOL   H16221696   4.321   6.879   1.734 -0.5418 -1.6983  2.0982
   98MOL   H16321697   4.121   7.063   1.855  0.8297  0.5478  0.1876
   98MOL   H16421698   4.173   6.775   1.594 -3.2403 -0.6562  0.1459
   98MOL   H16521699   4.209   6.923   1.513  0.7387 -0.5765 -0.2182
   98MOL   H16621700   4.039   6.863   1.500 -1.5732  0.2780  1.2347
   98MOL   C16721701   4.204   7.164   1.680  0.5520  0.6279  0.8946
   98MOL   C16821702   4.098   7.273   1.667  0.2357 -0.2451  0.4654
   98MOL   C16921703   4.132   7.387   1.577 -1.1308  0.1861 -0.8848
   98MOL   O17021704   4.254   7.420   1.568 -0.3150  0.1506 -0.1250
   98MOL   C17121705   4.020   7.465   1.506 -0.1905 -0.2005 -0.1549
   98MOL   H17221706   4.305   7.203   1.698  1.9778 -1.7313 -1.5923
   98MOL   H17321707   4.235   7.135   1.580 -0.1284 -0.5452  1.0131
   98MOL   H17421708   4.018   7.219   1.616 -0.1931 -0.4344  1.3346
   98MOL   H17521709   3.919   7.472   1.546  0.7774 -1.0284  2.5273
   98MOL   H17621710   4.008   7.407   1.414  0.2417 -2.8046  1.3709
   98MOL   H17721711   4.053   7.566   1.484  0.5525 -0.4103 -0.0182
   98MOL   C17821712   4.056   7.325   1.811  0.8126 -0.1820  0.1842
   98MOL   C17921713   4.149   7.400   1.908 -0.2203  1.1034 -0.0170
   98MOL   C18021714   4.281   7.331   1.936 -0.1419 -0.0932 -1.2387
   98MOL   O18121715   4.285   7.214   1.980 -0.9656  0.1817 -0.5789
   98MOL   C18221716   4.410   7.395   1.885  0.8324  0.3047 -0.0764
   98MOL   H18321717   3.971   7.393   1.805  0.0854 -0.8211  2.6267
   98MOL   H18421718   4.008   7.250   1.874  0.8421  1.1809  1.8791
   98MOL   H18521719   4.174   7.490   1.851 -0.6072  0.8284 -0.6261
   98MOL   H18621720   4.444   7.465   1.962  1.7148 -0.3479  0.1363
   98MOL   H18721721   4.381   7.470   1.811  1.9245 -1.3846 -2.2783
   98MOL   H18821722   4.485   7.330   1.840  0.0033  1.4976 -3.3315
   98MOL   C18921723   4.071   7.437   2.041  0.1001 -0.7157  0.3863
   98MOL   C19021724   4.154   7.523   2.141  0.3690 -0.4929 -0.1434
   98MOL   C19121725   4.190   7.656   2.082 -0.3261  0.7306 -0.0953
   98MOL   O19221726   4.112   7.717   2.014 -0.6653  0.2006 -0.3184
   98MOL   C19321727   4.321   7.728   2.108  0.0920  0.5392 -0.5765
   98MOL   H19421728   3.980   7.492   2.020 -0.8318 -1.4351  2.4305
   98MOL   H19521729   4.038   7.342   2.085  1.0496 -1.7521 -1.0807
   98MOL   H19621730   4.248   7.470   2.156  1.1660  0.3671 -1.9154
   98MOL   H19721731   4.320   7.834   2.082  1.9051  0.2712 -1.8063
   98MOL   H19821732   4.355   7.704   2.209  1.1904  0.7410 -0.8858
   98MOL   H19921733   4.401   7.687   2.046  0.1864  0.7592 -0.6022
   98MOL   C20021734   4.069   7.532   2.272  0.2229  1.0557  0.3295
   98MOL   C20121735   4.148   7.531   2.400  0.4037 -0.2520 -0.8874
   98MOL   C20221736   4.239   7.408   2.411  0.0087  0.3233 -0.2508
   98MOL   O20321737   4.357   7.414   2.387  0.1979 -0.3484  0.1943
   98MOL   C20421738   4.180   7.274   2.458  0.1506 -0.6698  0.3129
   98MOL   H20521739   4.008   7.620   2.292  0.9226  1.9575 -1.3571
   98MOL   H20621740   3.998   7.449   2.272 -0.6835  1.8252  0.2497
   98MOL   H20721741   4.219   7.610   2.376  0.8189 -0.4827 -0.4317
   98MOL   H20821742   4.164   7.270   2.566 -2.6266  2.0391  0.0764
   98MOL   H20921743   4.085   7.242   2.414 -1.3418  2.2004  1.3231
   98MOL   H21021744   4.240   7.189   2.427  2.9873  1.2767  0.2783
   98MOL   C21121745   4.078   7.558   2.535  0.5788 -0.1470 -0.0159
   98MOL   C21221746   4.036   7.705   2.548 -0.2251  0.6326 -0.5008
   98MOL   C21321747   3.948   7.722   2.673  0.1610 -1.0484  0.3113
   98MOL   O21421748   3.977   7.663   2.774  0.0856 -0.7528  0.6834
   98MOL   C21521749   3.822   7.801   2.663  0.5346  0.5965  0.1079
   98MOL   H21621750   3.987   7.499   2.546 -0.5398  1.7598  1.2747
   98MOL   H21721751   4.144   7.528   2.617  0.8796  1.9655  0.5404
   98MOL   H21821752   3.976   7.728   2.460 -0.0909  1.7824 -0.2975
   98MOL   H21921753   3.756   7.777   2.580  1.7418  1.1988 -1.0331
   98MOL   H22021754   3.756   7.792   2.750 -1.2787 -1.4620 -1.4408
   98MOL   H22121755   3.839   0.051   2.654 -1.0297  0.7481 -1.2194
   98MOL   H22221756   4.116   7.779   2.553  0.1759  0.1648  0.0418
   99MOL     C121757   4.997   7.074   1.870 -0.1209  0.0130 -0.1553
   99MOL     C221758   4.857   7.030   1.847 -0.4445 -0.0186  0.1489
   99MOL     C321759   4.817   7.044   1.701  0.0362 -0.4379  0.6389
   99MOL     O421760   4.810   6.943   1.622  0.3258  1.0251 -0.4943
   99MOL     C521761   4.802   7.183   1.646 -0.3530  0.6465 -0.3997
   99MOL     H621762   5.023   7.119   1.966 -0.2144 -0.0617 -0.0938
   99MOL     H721763   5.024   7.157   1.806  1.7073 -0.4243  0.0222
   99MOL     H821764   4.790   7.094   1.904 -0.2489 -1.0719  1.5716
   99MOL     H921765   4.776   7.259   1.720  3.1261  0.8848  0.6797
   99MOL    H1021766   4.894   7.205   1.592  0.7189  0.5326  1.3213
   99MOL    H1121767   4.726   7.193   1.569  0.1611  0.1144 -0.9806
   99MOL    H1221768   5.065   6.992   1.848 -1.5970 -1.4122  0.4244
   99MOL    C1321769   4.829   6.889   1.909 -0.2498 -0.2537 -0.3967
   99MOL    C1421770   4.868   6.854   2.054  0.8595  0.0605 -0.1044
   99MOL    C1521771   4.876   6.702   2.082  0.0790  0.4296  0.0416
   99MOL    O1621772   4.985   6.645   2.109  0.0432  0.1124 -0.1053
   99MOL    C1721773   4.750   6.613   2.063  0.7447 -0.7653 -0.8104
   99MOL    H1821774   4.728   6.857   1.881 -0.2507  0.5150 -1.2986
   99MOL    H1921775   4.878   6.806   1.858 -2.2167 -1.0278 -1.0792
   99MOL    H2021776   4.970   6.886   2.073 -0.1987  2.5484  1.6316
   99MOL    H2121777   4.751   6.558   1.969 -2.2345 -0.1144 -1.2456
   99MOL    H2221778   4.735   6.543   2.145  0.2005  1.0957  0.7041
   99MOL    H2321779   4.658   6.669   2.051  1.4178  0.6092  0.2972
   99MOL    C2421780   4.786   6.934   2.158 -0.4866 -0.4421  0.0975
   99MOL    C2521781   4.805   6.906   2.315 -0.2237 -0.4723  0.0076
   99MOL    C2621782   4.951   6.926   2.365  0.7764  0.5949 -0.3772
   99MOL    O2721783   5.012   6.837   2.422 -0.3779 -0.4156  0.4757
   99MOL    C2821784   5.012   7.063   2.376 -0.7595  0.2159 -0.3830
   99MOL    H2921785   4.819   7.036   2.144 -1.1787 -0.2960 -0.5533
   99MOL    H3021786   4.682   6.930   2.125  0.6839  1.2623 -4.0881
   99MOL    H3121787   4.795   6.798   2.331  3.2455 -0.7411  0.8008
   99MOL    H3221788   4.956   7.131   2.440 -0.2509  0.3893 -0.1236
   99MOL    H3321789   5.103   7.067   2.436  0.2851  2.1514 -2.0037
   99MOL    H3421790   5.025   7.121   2.284 -1.1449 -0.2812 -0.7485
   99MOL    C3521791   4.708   6.989   2.411 -0.7344 -0.1562 -0.5387
   99MOL    C3621792   4.683   6.919   2.553  0.4587 -0.6838 -0.5615
   99MOL    C3721793   4.560   6.985   2.618  0.6055  0.6064 -0.3289
   99MOL    O3821794   4.464   7.025   2.553  0.3129 -0.1053  0.5813
   99MOL    C3921795   4.569   6.998   2.769  0.0791  0.1347 -0.1750
   99MOL    H4021796   4.628   7.018   2.343 -1.1202 -3.2911 -1.5297
   99MOL    H4121797   4.735   7.094   2.418 -1.7448 -0.0624  3.4577
   99MOL    H4221798   4.769   6.949   2.612 -0.0666 -0.4901  0.1058
   99MOL    H4321799   4.504   7.080   2.802  0.9905  0.6718  0.3375
   99MOL    H4421800   4.674   7.014   2.795 -0.0216  1.4061 -0.4839
   99MOL    H4521801   4.540   6.903   2.813  1.3951 -0.3828 -0.4079
   99MOL    C4621802   4.654   6.765   2.542 -0.2894  0.3513  0.0140
   99MOL    C4721803   4.760   6.674   2.583  0.1404  0.7490  0.0610
   99MOL    C4821804   4.812   6.687   2.725  0.5906 -0.2691  0.7685
   99MOL    O4921805   4.728   6.690   2.816 -0.4724  0.1247 -0.1766
   99MOL    C5021806   4.959   6.677   2.756 -0.4580 -0.3543  0.4909
   99MOL    H5121807   4.623   6.746   2.439  3.4148  1.3672 -1.3975
   99MOL    H5221808   4.572   6.733   2.606 -0.5291 -2.3937 -1.5747
   99MOL    H5321809   4.846   6.701   2.521  0.4226 -2.1201 -0.8787
   99MOL    H5421810   5.012   6.766   2.725  2.2760 -2.4664 -1.1164
   99MOL    H5521811   4.968   6.667   2.865 -0.0798  0.7693  0.5656
   99MOL    H5621812   4.998   6.587   2.708 -1.2883  0.5980 -1.9912
   99MOL    C5721813   4.714   6.528   2.553  0.2979  0.8693  0.3902
   99MOL    C5821814   4.816   6.424   2.564 -1.5004 -0.1599  0.3304
   99MOL    C5921815   4.757   6.279   2.548 -0.8433  0.0858  0.2702
   99MOL    O6021816   4.767   6.223   2.440  0.0909 -0.2800  0.3109
   99MOL    C6121817   4.703   6.202   2.671  0.5453 -0.4757  0.9012
   99MOL    H6221818   4.678   6.518   2.451  1.1992 -0.6634  0.2257
   99MOL    H6321819   4.626   6.507   2.615  0.1690  2.8910  0.9513
   99MOL    H6421820   4.855   6.429   2.665  1.4083 -0.1056 -0.7380
   99MOL    H6521821   4.644   6.264   2.738 -0.0508  0.1864 -0.2235
   99MOL    H6621822   4.637   6.118   2.650 -0.1112 -0.2823  2.1390
   99MOL    H6721823   4.777   6.167   2.743  0.6565  1.4199  1.7319
   99MOL    C6821824   4.939   6.446   2.467 -1.0025 -0.3519 -0.3329
   99MOL    C6921825   5.060   6.344   2.463  0.3358  0.0925  0.0098
   99MOL    C7021826   5.079   6.276   2.603  1.1388  0.4378  0.3096
   99MOL    O7121827   5.051   6.337   2.701 -0.0076  0.0314 -0.0732
   99MOL    C7221828   5.113   6.125   2.608  0.1137 -0.0478 -0.4114
   99MOL    H7321829   4.896   6.462   2.368 -4.6363 -2.3765  0.8397
   99MOL    H7421830   4.981   6.543   2.496 -2.3431  0.6234 -1.5723
   99MOL    H7521831   5.034   6.261   2.397  1.3759 -0.4043  0.2093
   99MOL    H7621832   5.219   6.104   2.621 -0.2559 -1.7067 -0.0428
   99MOL    H7721833   5.063   6.076   2.691 -1.7929  0.7936 -1.0434
   99MOL    H7821834   5.065   6.074   2.524  2.2090 -0.2433 -1.5411
   99MOL    C7921835   5.199   6.401   2.434 -1.0926  0.1058  0.4141
   99MOL    C8021836   5.213   6.469   2.294  0.3805  0.0502 -0.8042
   99MOL    C8121837   5.239   6.357   2.190 -1.1085 -0.3189  0.2375
   99MOL    O8221838   5.347   6.291   2.167  0.2090 -0.2872 -0.4340
   99MOL    C8321839   5.124   6.323   2.094 -0.2202  0.4091 -0.1300
   99MOL    H8421840   5.275   6.323   2.439 -1.1113  0.0795  0.2862
   99MOL    H8521841   5.224   6.477   2.509 -0.6445 -0.4593  0.8446
   99MOL    H8621842   5.125   6.530   2.272  0.5502  0.8904  0.7339
   99MOL    H8721843   5.051   6.403   2.097 -0.2265  0.4086 -0.2686
   99MOL    H8821844   5.069   6.234   2.126  0.0593  0.3592  0.2288
   99MOL    H8921845   5.162   6.303   1.994 -2.1539  0.2722 -0.8550
   99MOL    C9021846   5.324   6.578   2.299  0.2714  0.1781  0.1036
   99MOL    C9121847   5.323   6.678   2.181  0.7768 -0.0223 -0.7952
   99MOL    C9221848   5.374   6.820   2.208  0.3903 -0.4246 -0.4661
   99MOL    O9321849   5.480   6.831   2.272  0.0010 -0.2596 -0.3690
   99MOL    C9421850   5.286   6.945   2.186  0.6825 -0.2358 -0.0877
   99MOL    H9521851   5.315   6.635   2.391 -0.4001  2.6870 -1.4800
   99MOL    H9621852   5.413   6.518   2.319  0.7247  0.7012 -0.3237
   99MOL    H9721853   5.222   6.712   2.156 -0.4631 -1.4683  1.9560
   99MOL    H9821854   5.182   6.930   2.212  0.5744 -1.3368 -1.1010
   99MOL    H9921855   5.326   7.026   2.247 -1.2097  0.9284 -0.3546
   99MOL   H10021856   5.298   6.982   2.084 -0.5890 -0.4080 -0.3007
   99MOL   C10121857   5.396   6.623   2.053 -0.8002 -0.1060  0.1667
   99MOL   C10221858   5.356   6.686   1.911 -0.0356 -0.8111  0.1405
   99MOL   C10321859   5.240   6.605   1.849 -0.4507  0.3929 -0.6545
   99MOL   O10421860   5.240   6.480   1.851 -0.2194 -0.0434 -0.7649
   99MOL   C10521861   5.119   6.682   1.791 -0.2508 -0.2269  0.2920
   99MOL   H10621862   5.503   6.630   2.071 -0.6916 -0.2308 -0.4058
   99MOL   H10721863   5.389   6.514   2.044  0.3707 -0.0609 -1.6051
   99MOL   H10821864   5.312   6.785   1.919  2.8461  0.6374 -1.1090
   99MOL   H10921865   5.123   6.775   1.847 -0.3960  1.1292 -1.9164
   99MOL   H11021866   5.113   6.704   1.685 -2.2935 -0.0330  0.4278
   99MOL   H11121867   5.030   6.624   1.817 -0.2874 -0.2871  0.0267
   99MOL   C11221868   5.479   6.696   1.816  0.3644 -0.2768 -0.5605
   99MOL   C11321869   5.494   6.820   1.735 -0.0931  0.0106  0.4691
   99MOL   C11421870   5.486   6.943   1.822 -0.0728  0.4125  0.0172
   99MOL   O11521871   5.396   7.021   1.814 -0.2790 -0.6055  0.2851
   99MOL   C11621872   5.610   6.975   1.904 -0.1814 -0.4404  0.0485
   99MOL   H11721873   5.480   6.605   1.757  0.4483 -0.4527 -0.2886
   99MOL   H11821874   5.575   6.691   1.868  0.9477 -0.2303 -1.6287
   99MOL   H11921875   5.592   6.837   1.691 -0.7174 -0.4082 -1.1167
   99MOL   H12021876   5.585   6.968   2.010 -1.1137  1.6541 -0.0137
   99MOL   H12121877   5.702   6.918   1.888  0.3004  0.1693  0.6183
   99MOL   H12221878   5.645   7.076   1.882  0.9862 -0.2628  2.5738
   99MOL   C12321879   5.396   6.824   1.616  0.5697  0.2188 -0.4001
   99MOL   C12421880   5.420   6.942   1.518 -0.3229  0.3301  0.0852
   99MOL   C12521881   5.294   6.995   1.449 -0.6151 -0.2629  0.1863
   99MOL   O12621882   5.295   7.009   1.327 -0.2060  0.1313  0.5062
   99MOL   C12721883   5.177   7.051   1.528  0.5755 -0.2404 -0.0672
   99MOL   H12821884   5.296   6.834   1.659 -0.6960 -2.2204 -2.6309
   99MOL   H12921885   5.393   6.728   1.564 -0.7752  0.6307 -1.1234
   99MOL   H13021886   5.445   7.027   1.582  1.4106  1.8448 -2.5120
   99MOL   H13121887   5.087   6.991   1.542 -1.6455  3.0131  0.2012
   99MOL   H13221888   5.134   7.146   1.497  2.7186  1.2767  1.4311
   99MOL   H13321889   5.202   7.064   1.633 -1.1027  0.3757  0.2696
   99MOL   C13421890   5.542   6.914   1.418  0.4550 -0.5556 -0.0288
   99MOL   C13521891   5.609   7.036   1.352 -0.1435  0.0430 -0.7848
   99MOL   C13621892   5.708   7.107   1.444  0.1159  0.6547 -0.6632
   99MOL   O13721893   5.806   7.043   1.481 -0.3275  0.0170  0.0575
   99MOL   C13821894   5.671   7.244   1.501  0.9048 -0.0714  0.4297
   99MOL   H13921895   5.503   6.833   1.356  1.7168 -3.4840  2.8113
   99MOL   H14021896   5.623   6.861   1.470 -0.6381 -0.0251  2.2981
   99MOL   H14121897   5.528   7.107   1.332  1.6897  2.6119  0.5965
   99MOL   H14221898   5.684   7.320   1.423  1.7102  0.5330  1.1466
   99MOL   H14321899   5.754   7.277   1.563  0.1291  0.9840  0.9172
   99MOL   H14421900   5.585   7.247   1.567  0.2657 -0.9470 -0.3439
   99MOL   C14521901   5.666   6.994   1.218 -0.2769 -0.2190 -1.1049
   99MOL   C14621902   5.706   7.110   1.122  0.2394 -0.0594 -0.3248
   99MOL   C14721903   5.776   7.060   0.991  0.0610 -0.2331  0.0889
   99MOL   O14821904   5.725   7.072   0.882  0.9797 -0.4059 -0.4705
   99MOL   C14921905   5.912   6.990   1.004 -0.4142  0.3689 -0.4366
   99MOL   H15021906   5.607   6.921   1.162 -2.8038  1.3967 -0.6036
   99MOL   H15121907   5.754   6.934   1.238 -0.2797 -0.0421 -0.5717
   99MOL   H15221908   5.787   7.172   1.160  2.0173 -1.9497 -0.9898
   99MOL   H15321909   5.923   6.909   0.932  0.6594 -1.1107  1.3440
   99MOL   H15421910   5.972   7.070   0.960 -1.9041  1.0966 -1.1776
   99MOL   H15521911   5.930   6.962   1.108 -0.9801 -0.6636 -0.6083
   99MOL   C15621912   5.582   7.202   1.095 -0.1846  0.2180  0.4032
   99MOL   C15721913   5.600   7.324   0.997 -0.1625  0.7187  0.7800
   99MOL   C15821914   5.712   7.420   1.044 -0.0211 -0.0802  0.5798
   99MOL   O15921915   5.801   7.449   0.968  0.1014  0.0701  0.7649
   99MOL   C16021916   5.702   7.471   1.184  0.0428  0.3115 -0.3641
   99MOL   H16121917   5.500   7.144   1.054  0.6440 -0.0104 -0.9798
   99MOL   H16221918   5.554   7.245   1.191 -1.2356 -2.2840  1.2693
   99MOL   H16321919   5.641   7.286   0.903  0.3913 -0.5610  1.5234
   99MOL   H16421920   5.776   7.418   1.245 -0.2673  0.8234  0.4682
   99MOL   H16521921   5.604   7.444   1.223  1.3202 -0.5136  2.4196
   99MOL   H16621922   5.713   7.579   1.186 -0.7665  0.3943  1.5427
   99MOL   C16721923   5.471   7.394   0.964  0.4678 -0.3372 -0.2901
   99MOL   C16821924   5.472   7.527   0.879  0.3781  0.0846 -0.0591
   99MOL   C16921925   5.487   7.649   0.966  0.6823 -0.0619  0.5787
   99MOL   O17021926   5.416   7.672   1.068 -0.0649  0.1094 -0.1491
   99MOL   C17121927   5.594   7.743   0.934  0.7932 -0.4616  0.1776
   99MOL   H17221928   5.420   7.312   0.915 -0.1584  0.9879 -1.8934
   99MOL   H17321929   5.411   7.401   1.055  0.2827 -2.4836 -0.2226
   99MOL   H17421930   5.554   7.532   0.806  0.5657 -0.0965  0.1405
   99MOL   H17521931   5.591   7.765   0.827  1.4939  3.9835  0.9674
   99MOL   H17621932   5.693   7.710   0.967 -0.0372 -3.2795  0.0250
   99MOL   H17721933   5.576   7.839   0.981  1.3171  0.7681 -2.0568
   99MOL   C17821934   5.342   7.531   0.787  0.3759  0.3711 -0.4024
   99MOL   C17921935   5.327   7.643   0.678 -0.3477 -0.2114 -0.1152
   99MOL   C18021936   5.180   7.682   0.660  0.1735  0.0892  0.6044
   99MOL   O18121937   5.118   7.660   0.559 -0.0821  0.0238 -0.3264
   99MOL   C18221938   5.105   7.759   0.770  0.7749 -0.3453 -0.2405
   99MOL   H18321939   5.342   7.437   0.733 -1.9507  0.0714  0.0907
   99MOL   H18421940   5.258   7.531   0.856 -0.3213 -0.3615 -1.2493
   99MOL   H18521941   5.371   7.731   0.724 -0.3105 -0.1047 -0.3554
   99MOL   H18621942   5.056   7.849   0.735  1.8019 -0.4317 -1.9327
   99MOL   H18721943   5.173   7.771   0.854 -2.2726 -0.0194  2.2634
   99MOL   H18821944   5.021   7.692   0.792  1.2406 -0.8562  0.0103
   99MOL   C18921945   5.394   7.609   0.542 -0.3832  0.1082  0.0731
   99MOL   C19021946   5.415   7.730   0.455 -0.0815 -0.4285 -0.0636
   99MOL   C19121947   5.506   7.839   0.528  0.0644  0.0099 -0.5102
   99MOL   O19221948   5.598   7.811   0.603  0.2300 -0.0437  0.8185
   99MOL   C19321949   5.475   0.124   0.520 -0.3082 -0.2640 -0.0668
   99MOL   H19421950   5.482   7.545   0.552 -1.0715 -1.2488 -2.2226
   99MOL   H19521951   5.328   7.537   0.492  0.0772  0.2757 -0.7769
   99MOL   H19621952   5.323   7.788   0.457 -0.4750 -1.0595  2.4525
   99MOL   H19721953   5.470   0.160   0.623  0.3219  0.9036 -0.4415
   99MOL   H19821954   5.554   0.177   0.467 -0.9986  0.1333 -0.7027
   99MOL   H19921955   5.375   0.134   0.476 -0.2746  1.1233  0.1651
   99MOL   C20021956   5.457   7.702   0.304 -0.3140 -0.9345  0.3114
   99MOL   C20121957   5.350   7.742   0.192 -0.2256 -0.4782  0.1289
   99MOL   C20221958   5.318   0.032   0.194  0.0179 -0.3906 -0.1250
   99MOL   O20321959   5.206   0.080   0.226  0.9362  0.2178 -0.4286
   99MOL   C20421960   5.428   0.132   0.155 -0.0683 -0.1432 -0.3730
   99MOL   H20521961   5.556   7.736   0.274 -1.2045  1.2869 -0.1977
   99MOL   H20621962   5.460   7.593   0.294 -3.8554 -1.1795  1.1352
   99MOL   H20721963   5.395   7.728   0.094  0.9840 -2.6549  0.9639
   99MOL   H20821964   5.489   0.171   0.236  1.0764  1.1645 -1.8287
   99MOL   H20921965   5.502   0.092   0.085  2.4862 -2.5850  3.4966
   99MOL   H21021966   5.378   0.225   0.129 -0.1942 -0.2718 -0.5979
   99MOL   C21121967   5.213   7.663   0.200  0.9692  0.3948 -0.1663
   99MOL   C21221968   5.234   7.528   0.122  0.6044  0.2979  0.5415
   99MOL   C21321969   5.100   7.456   0.104 -0.0779 -0.2759 -0.1867
   99MOL   O21421970   5.078   7.344   0.150  0.1545 -0.0275 -0.0119
   99MOL   C21521971   4.991   7.532   0.035 -0.0878 -0.3368 -0.5488
   99MOL   H21621972   5.172   7.644   0.300  0.6092  0.6084 -0.2705
   99MOL   H21721973   5.132   7.720   0.155  0.8020 -0.3752 -0.8451
   99MOL   H21821974   5.294   7.455   0.178 -0.0014  0.3519  1.2649
   99MOL   H21921975   4.899   7.545   0.093  0.0208 -0.7521 -0.2863
   99MOL   H22021976   5.012   7.635   0.005  0.8476 -0.5223 -0.5417
   99MOL   H22121977   4.960   7.476   7.804 -1.7879 -0.2152 -0.0477
   99MOL   H22221978   5.276   7.545   0.023 -0.0920 -1.3071 -0.0540
  100MOL     C121979   3.364   7.191   5.792  0.2373 -0.4860  0.3251
  100MOL     C221980   3.488   7.199   5.895  0.7012 -0.2885  0.6713
  100MOL     C321981   3.561   7.338   5.886 -0.1348  0.0623  0.0241
  100MOL     O421982   3.514   7.440   5.927 -0.1285  0.2176 -0.5509
  100MOL     C521983   3.696   7.346   5.816 -0.4330  1.6909  0.1159
  100MOL     H621984   3.304   7.281   5.799 -1.3865 -1.1028 -4.3096
  100MOL     H721985   3.299   7.103   5.794 -0.7324  0.1874 -0.8979
  100MOL     H821986   3.557   7.128   5.848  1.2894 -0.0744  1.2207
  100MOL     H921987   3.672   7.329   5.711  1.2270 -1.5739  0.1747
  100MOL    H1021988   3.748   7.440   5.832  0.8809  0.7529  1.5040
  100MOL    H1121989   3.758   7.274   5.869  0.5777  3.5919  1.5600
  100MOL    H1221990   3.412   7.190   5.694  1.2052  0.1765  0.7852
  100MOL    C1321991   3.454   7.142   6.035 -0.1490 -0.6622 -0.0349
  100MOL    C1421992   3.566   7.102   6.127 -0.4604 -0.0565  0.1872
  100MOL    C1521993   3.657   6.987   6.081  1.3690  0.2785  0.9554
  100MOL    O1621994   3.611   6.898   6.017 -0.3776  0.3458 -0.9423
  100MOL    C1721995   3.808   6.990   6.108  0.3817 -0.7847 -0.4748
  100MOL    H1821996   3.383   7.211   6.079  0.7006 -0.4415  1.0315
  100MOL    H1921997   3.400   7.048   6.025 -0.8289 -0.3491  0.6520
  100MOL    H2021998   3.624   7.190   6.155  0.3815 -0.4947 -0.1609
  100MOL    H2121999   3.858   7.032   6.020  0.4241  0.1495 -0.0141
  100MOL    H2222000   3.831   7.063   6.185  1.9213 -0.7861 -0.9186
  100MOL    H2322001   3.848   6.896   6.144  0.9021 -0.1624  0.6035
  100MOL    C2422002   3.503   7.057   6.259  0.6748 -0.2538 -0.9741
  100MOL    C2522003   3.586   7.071   6.389  0.1093  0.3044  0.4345
  100MOL    C2622004   3.631   7.215   6.423  0.5395 -0.1731 -0.6687
  100MOL    O2722005   3.746   7.253   6.439 -0.2411  0.7742  0.6123
  100MOL    C2822006   3.515   7.310   6.443  0.0512 -0.2632  0.0811
  100MOL    H2922007   3.410   7.111   6.278  1.4238  0.8130 -0.3316
  100MOL    H3022008   3.473   6.952   6.249  0.7464 -0.2788 -0.9227
  100MOL    H3122009   3.680   7.019   6.367  0.2336 -0.1066  1.8846
  100MOL    H3222010   3.544   7.402   6.493  1.3035 -1.7556  2.2043
  100MOL    H3322011   3.491   7.325   6.338  1.4442 -2.9326 -0.6649
  100MOL    H3422012   3.429   7.265   6.493 -1.4736  0.0236 -2.2013
  100MOL    C3522013   3.527   6.995   6.509 -0.5233 -0.1895 -0.5617
  100MOL    C3622014   3.630   6.978   6.623 -0.3415  0.5300  0.9081
  100MOL    C3722015   3.579   7.026   6.763  0.4305 -0.4092 -0.1719
  100MOL    O3822016   3.484   6.968   6.810 -0.3055  0.4010  0.1745
  100MOL    C3922017   3.643   7.141   6.837  0.4839 -0.2181  0.2326
  100MOL    H4022018   3.509   6.892   6.475 -1.1439 -0.7486  1.4171
  100MOL    H4122019   3.430   7.039   6.531 -0.4793  0.5014 -1.7077
  100MOL    H4222020   3.716   7.043   6.602 -0.2967 -0.7417 -3.4536
  100MOL    H4322021   3.660   7.125   6.943  0.6188  1.0470  0.4075
  100MOL    H4422022   3.570   7.222   6.842 -1.8646 -1.9705 -3.3218
  100MOL    H4522023   3.735   7.174   6.788  1.4139 -1.0155  1.4207
  100MOL    C4622024   3.688   6.832   6.623 -0.1049  0.5032  0.5465
  100MOL    C4722025   3.824   6.835   6.698  0.6121  0.0220  0.3461
  100MOL    C4822026   3.862   6.690   6.747 -0.4304 -0.6873 -0.1485
  100MOL    O4922027   3.965   6.637   6.709  0.2841  0.2791 -0.0610
  100MOL    C5022028   3.774   6.630   6.855 -0.0190  0.4430  0.1081
  100MOL    H5122029   3.711   6.795   6.523 -2.2194  0.2933  0.1081
  100MOL    H5222030   3.620   6.764   6.674  0.0012  1.1698  1.5849
  100MOL    H5322031   3.808   6.889   6.791 -1.2058 -2.6688  1.6808
  100MOL    H5422032   3.679   6.601   6.810  0.0416  1.2546 -0.5495
  100MOL    H5522033   3.817   6.533   6.880  1.6769  0.9660 -0.7568
  100MOL    H5622034   3.761   6.684   6.949 -0.8965  1.0785 -0.3641
  100MOL    C5722035   3.940   6.914   6.618  0.7650  0.5083  0.8027
  100MOL    C5822036   4.066   6.935   6.701  0.3182  0.0037 -0.3902
  100MOL    C5922037   4.191   6.912   6.611 -0.9332 -0.2076 -0.1010
  100MOL    O6022038   4.220   6.990   6.527 -0.1054  0.1746  0.0013
  100MOL    C6122039   4.273   6.793   6.648 -0.0727  0.0701 -0.7217
  100MOL    H6222040   3.909   7.010   6.577 -0.3023 -0.3554 -0.4526
  100MOL    H6322041   3.961   6.853   6.531  0.2924 -0.5706  1.4241
  100MOL    H6422042   4.055   6.857   6.775  0.0626  0.7785  0.3978
  100MOL    H6522043   4.361   6.784   6.585  1.8974  0.1706  1.9008
  100MOL    H6622044   4.313   6.813   6.748  1.0002  0.9143 -1.3060
  100MOL    H6722045   4.214   6.702   6.642  1.0210 -0.7058  0.1919
  100MOL    C6822046   4.072   7.073   6.767  0.0384 -0.3285  0.2834
  100MOL    C6922047   4.120   7.065   6.913  0.2489 -0.0480  0.2305
  100MOL    C7022048   4.021   6.996   6.999 -0.1707 -0.0937  0.7488
  100MOL    O7122049   3.903   7.042   6.993 -0.1988  0.7518  0.0599
  100MOL    C7222050   4.055   6.874   7.081 -1.0243  0.1967 -0.2334
  100MOL    H7322051   4.145   7.132   6.713  1.5047 -1.1554  1.3348
  100MOL    H7422052   3.976   7.126   6.767  0.0399 -0.3116 -1.0213
  100MOL    H7522053   4.212   7.006   6.918 -1.0225 -2.4968 -3.2163
  100MOL    H7622054   4.114   6.903   7.167  0.8235 -1.9479 -0.7359
  100MOL    H7722055   3.965   6.822   7.113 -1.0204 -0.2747 -0.9680
  100MOL    H7822056   4.112   6.806   7.017  0.8156  1.4121  0.0757
  100MOL    C7922057   4.144   7.210   6.965  0.4970 -0.3256 -0.0723
  100MOL    C8022058   4.265   7.284   6.907 -0.1962  0.5746 -0.3924
  100MOL    C8122059   4.391   7.206   6.940  0.0475 -0.1440 -0.0039
  100MOL    O8222060   4.430   7.220   7.056 -0.2157 -0.5491  0.0680
  100MOL    C8322061   4.466   7.139   6.827 -0.0797  0.5264  0.3752
  100MOL    H8422062   4.156   7.202   7.073  2.3821 -1.7052 -0.3366
  100MOL    H8522063   4.052   7.267   6.956 -0.2891 -1.5776 -0.1208
  100MOL    H8622064   4.253   7.289   6.799 -0.3332  1.0171 -0.3592
  100MOL    H8722065   4.542   7.070   6.862  1.4425  0.7834 -2.3146
  100MOL    H8822066   4.518   7.210   6.763  1.1016  1.2837  2.1677
  100MOL    H8922067   4.396   7.082   6.765 -0.4889  1.6856 -0.2484
  100MOL    C9022068   4.269   7.426   6.967  0.9130  0.4701 -0.4621
  100MOL    C9122069   4.374   7.520   6.900  0.1061 -0.3699 -0.7100
  100MOL    C9222070   4.319   7.560   6.763 -0.5775 -0.5199 -0.4236
  100MOL    O9322071   4.199   7.539   6.730 -0.1161  0.1705 -0.2277
  100MOL    C9422072   4.409   7.603   6.650  0.2500  0.3418 -0.2729
  100MOL    H9522073   4.170   7.472   6.963 -0.2429 -2.0198 -1.8040
  100MOL    H9622074   4.289   7.418   7.074  1.8689  0.2475 -0.6526
  100MOL    H9722075   4.465   7.461   6.890 -0.4598 -1.7989  1.9513
  100MOL    H9822076   4.431   7.709   6.665  0.6613  0.0604  1.2650
  100MOL    H9922077   4.496   7.538   6.646 -0.3900 -0.7063  1.9638
  100MOL   H10022078   4.363   7.596   6.552 -0.2396  0.0420 -0.0261
  100MOL   C10122079   4.394   7.646   6.985  0.0737 -1.0525 -0.5380
  100MOL   C10222080   4.535   7.710   6.987 -0.1821  0.5128 -0.1615
  100MOL   C10322081   4.641   7.621   7.058 -0.0496 -0.0887  0.6224
  100MOL   O10422082   4.649   7.619   7.183 -0.0599 -0.7618  0.7251
  100MOL   C10522083   4.738   7.544   6.967  0.3525 -0.0257  0.2819
  100MOL   H10622084   4.321   7.722   6.957 -2.3998 -2.8330  0.8562
  100MOL   H10722085   4.353   7.628   7.084 -0.0848  2.2708  0.0566
  100MOL   H10822086   4.574   7.707   6.885  2.2258  0.5135  0.7336
  100MOL   H10922087   4.700   7.539   6.865  0.7928 -1.5806  0.1708
  100MOL   H11022088   4.825   7.608   6.961 -1.3928  2.6006  2.1022
  100MOL   H11122089   4.770   7.444   6.997 -0.8055  0.1926  2.3267
  100MOL   C11222090   4.543   7.853   7.046 -0.1415  0.1968  0.4631
  100MOL   C11322091   4.677   0.062   7.015 -0.4605 -0.0872 -0.6872
  100MOL   C11422092   4.712   0.159   7.131 -0.2746 -0.0966 -0.8193
  100MOL   O11522093   4.649   0.266   7.144 -0.2587 -0.1738 -0.1431
  100MOL   C11622094   4.820   0.122   7.230  0.5876 -0.6302  0.0962
  100MOL   H11722095   4.534   7.846   7.154 -0.3040 -2.4992  0.2938
  100MOL   H11822096   4.458   0.047   7.002 -0.8866 -1.2136  0.2221
  100MOL   H11922097   4.757   7.845   7.017  0.4530  0.8966  0.1909
  100MOL   H12022098   4.771   0.132   7.327 -0.4391 -0.7643 -0.3950
  100MOL   H12122099   4.835   0.014   7.225  0.3385 -0.6986  0.8053
  100MOL   H12222100   4.915   0.175   7.235 -1.4851  3.0289  2.1551
  100MOL   C12322101   4.677   0.131   6.875  0.6670 -0.2010 -0.2451
  100MOL   C12422102   4.810   0.176   6.803 -0.3063 -0.1888  0.0868
  100MOL   C12522103   4.905   0.058   6.793 -0.0957 -0.1172  0.1194
  100MOL   O12622104   4.997   0.045   6.874  0.0364  0.6278 -0.2623
  100MOL   C12722105   4.887   7.826   6.678 -0.0540  0.4017  0.2014
  100MOL   H12822106   4.612   0.218   6.875  1.8533  0.7168 -1.4433
  100MOL   H12922107   4.624   0.077   6.797  2.1863  0.2495 -1.6345
  100MOL   H13022108   4.782   0.198   6.700  0.8719 -3.5184 -1.0326
  100MOL   H13122109   4.807   7.752   6.686 -0.5021  0.5239 -2.7276
  100MOL   H13222110   4.983   7.775   6.667 -0.4686 -0.6507  1.2725
  100MOL   H13322111   4.867   0.023   6.586  0.6495 -1.5466 -1.1474
  100MOL   C13422112   4.874   0.301   6.868 -0.0171  0.5605  0.3799
  100MOL   C13522113   5.007   0.345   6.801 -0.4067 -0.0692 -0.1435
  100MOL   C13622114   4.995   0.408   6.663  0.2372  0.0938  0.1202
  100MOL   O13722115   4.990   0.533   6.648  0.0588  0.0085  0.5230
  100MOL   C13822116   4.974   0.321   6.538 -0.4643 -0.1074  0.4662
  100MOL   H13922117   4.895   0.286   6.974 -0.2092  1.1246  0.4990
  100MOL   H14022118   4.808   0.388   6.871  0.8166  1.1968  0.7049
  100MOL   H14122119   5.084   0.268   6.811 -1.8661 -1.5431 -0.2213
  100MOL   H14222120   4.899   0.242   6.548  0.0680 -0.4243  2.0512
  100MOL   H14322121   5.071   0.273   6.524 -1.6005 -2.1443 -0.7256
  100MOL   H14422122   4.954   0.382   6.450  0.8402 -0.1121  0.1581
  100MOL   C14522123   5.062   0.456   6.894 -0.2128 -0.1184 -0.3619
  100MOL   C14622124   5.217   0.483   6.891 -0.2463 -0.2589 -0.4721
  100MOL   C14722125   5.253   0.594   6.991 -0.0141  0.2816 -0.3363
  100MOL   O14822126   5.282   0.570   7.110 -0.2296  0.0620  0.1223
  100MOL   C14922127   5.246   0.740   6.950 -0.4471  0.4490 -0.6821
  100MOL   H15022128   5.050   0.431   6.999  0.7874 -1.0864 -0.4695
  100MOL   H15122129   5.016   0.555   6.886  1.2230  0.6515  0.6723
  100MOL   H15222130   5.236   0.519   6.790  2.2582 -0.2316 -0.0182
  100MOL   H15322131   5.263   0.753   6.843 -1.5890  0.9821 -0.8097
  100MOL   H15422132   5.156   0.795   6.978 -0.2333 -1.0512  3.2956
  100MOL   H15522133   5.332   0.777   7.005 -1.9096  1.2903  1.0741
  100MOL   C15622134   5.304   0.360   6.908  0.0937 -0.5036  0.0842
  100MOL   C15722135   5.464   0.388   6.909 -0.1692 -0.8888  0.8153
  100MOL   C15822136   5.511   0.431   6.767  0.4148  0.7778 -1.1879
  100MOL   O15922137   5.467   0.383   6.664 -0.0108 -0.3836  0.1935
  100MOL   C16022138   5.636   0.522   6.769 -0.6217 -0.0266  0.2928
  100MOL   H16122139   5.278   0.314   7.003  3.0562  2.3477  2.4031
  100MOL   H16222140   5.286   0.284   6.833  1.1692 -1.7090  1.0249
  100MOL   H16322141   5.500   0.465   6.976  0.4140  1.1735 -1.7863
  100MOL   H16422142   5.640   0.560   6.667  1.3456 -3.1612 -0.8521
  100MOL   H16522143   5.728   0.469   6.790 -1.2648 -0.8316  1.1361
  100MOL   H16622144   5.626   0.599   6.846 -2.4168 -0.6181  0.6850
  100MOL   C16722145   5.545   0.255   6.947  0.2097 -0.3064 -0.5496
  100MOL   C16822146   5.672   0.269   7.027  0.1637  0.1954 -1.1220
  100MOL   C16922147   5.774   0.159   6.991  0.2088  0.5166  0.5467
  100MOL   O17022148   5.734   0.049   6.954  0.0190 -0.2129  1.0224
  100MOL   C17122149   5.917   0.195   6.985  0.1984 -0.1142 -0.8496
  100MOL   H17222150   5.483   0.183   7.001  0.8945  0.1237  0.8518
  100MOL   H17322151   5.553   0.194   6.857 -1.5972  0.4990 -1.2850
  100MOL   H17422152   5.723   0.362   7.000  1.9654 -0.0534  1.3474
  100MOL   H17522153   5.983   0.127   7.038 -0.1338  0.0040 -0.2845
  100MOL   H17622154   5.932   0.292   7.032  0.4085  0.4959 -2.1437
  100MOL   H17722155   5.958   0.197   6.884 -0.0173 -1.7992 -0.9836
  100MOL   C17822156   5.649   0.276   7.179 -0.2691 -0.0155  0.2675
  100MOL   C17922157   5.598   0.406   7.248  0.0983 -0.2567  0.0751
  100MOL   C18022158   5.697   0.517   7.218 -0.2464  0.2472  0.3895
  100MOL   O18122159   5.816   0.500   7.189 -0.1476  0.6025 -0.1823
  100MOL   C18222160   5.635   0.653   7.228  0.2289 -0.4757 -0.4347
  100MOL   H18322161   5.588   0.192   7.211 -1.1206  0.4203 -0.1693
  100MOL   H18422162   5.738   0.249   7.236  0.3923 -0.0568 -0.7726
  100MOL   H18522163   5.510   0.425   7.187 -0.1737 -0.7056  0.3277
  100MOL   H18622164   5.646   0.703   7.132  1.6693 -2.3179 -1.2580
  100MOL   H18722165   5.670   0.714   7.311  0.2395 -2.3095  0.9346
  100MOL   H18822166   5.531   0.644   7.261  0.0967  1.2333 -0.3377
  100MOL   C18922167   5.568   0.408   7.400 -0.0652  0.3063 -0.0158
  100MOL   C19022168   5.423   0.408   7.444 -0.4046 -0.3370 -0.1276
  100MOL   C19122169   5.352   0.281   7.387  0.1160  0.0958  0.1477
  100MOL   O19222170   5.401   0.169   7.379 -0.1499 -0.0389  0.3016
  100MOL   C19322171   5.201   0.301   7.357  0.1995 -0.4349  0.3321
  100MOL   H19422172   5.631   0.327   7.437  0.1317  0.3675 -0.2181
  100MOL   H19522173   5.614   0.494   7.447  3.7110 -1.1616 -0.8838
  100MOL   H19622174   5.377   0.495   7.397 -0.4884 -0.0251  0.5249
  100MOL   H19722175   5.151   0.216   7.403  3.0292 -1.1325  2.2194
  100MOL   H19822176   5.169   0.399   7.393  1.5835 -0.4021  1.4991
  100MOL   H19922177   5.188   0.285   7.250 -0.9421 -1.4148  0.6041
  100MOL   C20022178   5.411   0.413   7.595 -0.7326  0.0526 -0.5943
  100MOL   C20122179   5.277   0.459   7.662 -0.2035 -0.2625  0.1877
  100MOL   C20222180   5.271   0.614   7.659  0.3633 -0.3338  0.2203
  100MOL   O20322181   5.298   0.680   7.759  0.2347  0.1352 -0.3915
  100MOL   C20422182   5.253   0.683   7.525 -0.4137  0.3844 -0.4143
  100MOL   H20522183   5.430   0.308   7.617  0.1131  0.2514 -0.3368
  100MOL   H20622184   5.491   0.474   7.636 -0.5314 -0.2904 -0.4731
  100MOL   H20722185   5.195   0.424   7.598 -2.0059 -0.1218  2.3817
  100MOL   H20822186   5.352   0.706   7.486 -0.2113  0.0776 -0.0823
  100MOL   H20922187   5.205   0.630   7.443  0.6589  1.7365 -1.9443
  100MOL   H21022188   5.195   0.774   7.537 -0.0271  0.4154  1.3961
  100MOL   C21122189   5.259   0.403   7.806  0.6437  0.0687 -0.0845
  100MOL   C21222190   5.167   0.291   7.839 -0.0301 -0.7593 -0.0037
  100MOL   C21322191   5.198   0.167   7.756  0.5850  0.3235 -0.2074
  100MOL   O21422192   5.309   0.125   7.735  0.0636 -0.0557 -0.1806
  100MOL   C21522193   5.074   0.090   7.713  0.2244  0.8498  0.3520
  100MOL   H21622194   5.352   0.384   0.002  0.9037 -1.0165 -0.9014
  100MOL   H21722195   5.214   0.487   0.001 -0.8033  0.4292 -1.8346
  100MOL   H21822196   5.067   0.318   7.807 -0.6372 -1.9255  0.8853
  100MOL   H21922197   5.017   0.073   7.805 -0.2282  2.0992  0.3005
  100MOL   H22022198   5.006   0.145   7.649  0.1176 -1.5432 -1.6878
  100MOL   H22122199   5.104   7.858   7.659 -0.0452  1.8005 -1.3896
  100MOL   H22222200   5.172   0.274   0.089  0.5625  0.6382  0.1993
  101MOL     C122201   3.459   7.570   5.015 -0.0150  0.6896  0.4201
  101MOL     C222202   3.304   7.563   5.032 -0.0299 -0.2581 -0.4196
  101MOL     C322203   3.235   7.500   4.906 -0.2485 -0.3292 -0.1266
  101MOL     O422204   3.180   7.388   4.904  0.0261 -0.3481  0.4639
  101MOL     C522205   3.235   7.589   4.780 -0.3642 -0.0395 -0.0144
  101MOL     H622206   3.490   7.626   4.926  0.1205 -0.4602 -0.2753
  101MOL     H722207   3.497   7.469   4.998 -0.0321  0.5903  0.9646
  101MOL     H822208   3.267   7.666   5.028 -0.7293 -0.5184 -0.8363
  101MOL     H922209   3.171   7.674   4.801  0.5791  0.9890 -1.1752
  101MOL    H1022210   3.336   7.620   4.753  0.2196 -0.6193  1.4466
  101MOL    H1122211   3.180   7.539   4.699 -0.8718 -1.8715  1.4284
  101MOL    H1222212   3.495   7.620   5.105  0.4966 -1.0383  1.2018
  101MOL    C1322213   3.260   7.484   5.161 -0.8463 -0.0540 -0.1608
  101MOL    C1422214   3.105   7.479   5.192  0.1800  0.1121  0.4668
  101MOL    C1522215   3.049   7.619   5.235  0.0491  0.0233  0.8457
  101MOL    O1622216   3.127   7.704   5.288 -0.2911  0.1539 -0.3030
  101MOL    C1722217   2.899   7.639   5.225 -0.1078  0.1815  0.5990
  101MOL    H1822218   3.300   7.383   5.150  0.3988  0.1953  1.9077
  101MOL    H1922219   3.310   7.541   5.239 -1.8668  0.2085  0.3103
  101MOL    H2022220   3.048   7.452   5.103 -1.7021 -2.3004  2.3530
  101MOL    H2122221   2.844   7.555   5.267 -0.2397 -0.4075 -0.7372
  101MOL    H2222222   2.874   7.727   5.284 -1.6468 -0.0622  0.3258
  101MOL    H2322223   2.872   7.643   5.120  3.1241  0.9357 -0.2632
  101MOL    C2422224   3.082   7.364   5.300 -0.0548  0.1438 -0.0312
  101MOL    C2522225   2.940   7.301   5.292  0.2531 -0.3597  0.1964
  101MOL    C2622226   2.961   7.163   5.238 -0.3751  0.0896 -0.0329
  101MOL    O2722227   2.932   7.068   5.301  0.0821 -0.3555  0.7855
  101MOL    C2822228   3.015   7.145   5.098 -0.3167  0.4817 -0.2879
  101MOL    H2922229   3.163   7.291   5.304  0.9963  1.3127  0.5551
  101MOL    H3022230   3.104   7.410   5.396  2.7155  0.2391 -0.6717
  101MOL    H3122231   2.885   7.350   5.212  1.8615 -0.9489 -1.2876
  101MOL    H3222232   3.105   7.205   5.095  1.2823 -1.8832 -0.4604
  101MOL    H3322233   3.036   7.038   5.093 -2.0712 -0.0481  2.4857
  101MOL    H3422234   2.944   7.162   5.016 -0.6252 -1.8063 -0.5281
  101MOL    C3522235   2.857   7.303   5.422 -0.4301 -0.2144  0.1704
  101MOL    C3622236   2.710   7.262   5.414 -0.2384 -0.4069  0.2279
  101MOL    C3722237   2.663   7.213   5.549 -0.6397  0.4852  0.6184
  101MOL    O3822238   2.677   7.282   5.652  0.1044 -0.6551  0.2553
  101MOL    C3922239   2.606   7.075   5.565 -0.5129 -0.1016  0.0890
  101MOL    H4022240   2.869   7.406   5.457 -1.5373 -0.5227  1.4932
  101MOL    H4122241   2.914   7.246   5.495 -0.8561  0.3671  0.9648
  101MOL    H4222242   2.677   7.185   5.344  1.2326 -0.5964 -0.2726
  101MOL    H4322243   2.564   7.053   5.466  0.2953  0.7961 -0.4648
  101MOL    H4422244   2.532   7.051   5.641 -0.1967 -1.7008 -0.0917
  101MOL    H4522245   2.691   7.010   5.587 -0.9807 -0.0397  2.1142
  101MOL    C4622246   2.623   7.390   5.374 -0.0741  0.4743 -0.4088
  101MOL    C4722247   2.471   7.369   5.379  0.2638 -0.6552  0.4014
  101MOL    C4822248   2.412   7.498   5.444 -0.2900 -1.0026  0.2573
  101MOL    O4922249   2.410   7.601   5.377  0.1814 -0.7461  0.3701
  101MOL    C5022250   2.363   7.496   5.588  0.3987 -0.5020  0.4279
  101MOL    H5122251   2.661   7.431   5.280  0.3906  0.2447 -0.3177
  101MOL    H5222252   2.656   7.468   5.443  3.3329 -2.5563  1.5081
  101MOL    H5322253   2.458   7.279   5.439 -0.4762 -1.0348 -0.3184
  101MOL    H5422254   2.419   7.574   5.640  0.7804 -1.8962  2.1818
  101MOL    H5522255   2.259   7.522   5.610 -0.0513 -1.8213 -0.1418
  101MOL    H5622256   2.385   7.404   5.642  2.9478  0.2113  0.6910
  101MOL    C5722257   2.409   7.345   5.237  0.4904  0.9106 -0.2345
  101MOL    C5822258   2.261   7.308   5.255  0.4408 -0.4975  0.3212
  101MOL    C5922259   2.165   7.386   5.160 -0.0604  0.0004  0.5796
  101MOL    O6022260   2.055   7.334   5.119 -0.6854  0.5028 -0.6491
  101MOL    C6122261   2.187   7.534   5.131 -0.0555  0.3888 -0.0356
  101MOL    H6222262   2.464   7.264   5.190  1.3198  0.2836  1.7255
  101MOL    H6322263   2.424   7.437   5.180  0.0213 -0.8936 -3.3487
  101MOL    H6422264   2.229   7.347   5.351 -1.3209 -0.6105 -0.2063
  101MOL    H6522265   2.220   7.580   5.224  0.6500  0.8416 -0.5093
  101MOL    H6622266   2.258   7.534   5.049 -0.7855 -2.3429 -0.7319
  101MOL    H6722267   2.093   7.582   5.105 -0.1411  1.1729  1.6231
  101MOL    C6822268   2.237   7.151   5.270  0.4171 -0.2466 -0.7859
  101MOL    C6922269   2.272   7.060   5.152 -0.1581 -0.2632 -0.3710
  101MOL    C7022270   2.223   7.102   5.015  0.0729  0.8288 -0.1349
  101MOL    O7122271   2.288   7.168   4.940 -0.4146 -0.0426  0.1225
  101MOL    C7222272   2.074   7.067   4.975 -0.4107 -0.3615 -0.0676
  101MOL    H7322273   2.296   7.119   5.356  1.3494  0.4037 -1.1745
  101MOL    H7422274   2.133   7.128   5.295  0.6824 -1.4422 -0.7873
  101MOL    H7522275   2.380   7.048   5.152 -0.1129  0.0055  1.0460
  101MOL    H7622276   1.996   7.056   5.050 -2.5928 -0.5248 -2.2878
  101MOL    H7722277   2.048   7.153   4.914 -1.4698  0.7881  1.9592
  101MOL    H7822278   2.075   6.972   4.921 -3.1142  0.6389 -1.9817
  101MOL    C7922279   2.227   6.917   5.185  0.5280  0.4956  0.2777
  101MOL    C8022280   2.281   6.805   5.095  0.0320 -0.2432  0.2574
  101MOL    C8122281   2.242   6.666   5.143  1.0128  0.3322 -0.2502
  101MOL    O8222282   2.187   6.639   5.249 -0.5202 -0.0572 -0.7132
  101MOL    C8322283   2.257   6.552   5.043  0.4221 -0.0765  0.0603
  101MOL    H8422284   2.118   6.918   5.182  0.5780  1.2425 -1.8780
  101MOL    H8522285   2.258   6.891   5.286  1.8012  1.1821  0.0753
  101MOL    H8622286   2.234   6.800   4.997 -0.2808 -0.4749  0.4178
  101MOL    H8722287   2.353   6.509   5.014  0.2243  1.1059 -2.5183
  101MOL    H8822288   2.204   6.570   4.950  0.3306 -1.8957 -0.2540
  101MOL    H8922289   2.207   6.464   5.082 -0.2384  0.8962  1.4663
  101MOL    C9022290   2.432   6.803   5.074 -0.4809  0.1818 -0.5090
  101MOL    C9122291   2.491   6.869   4.945  0.5072  0.1309  0.3390
  101MOL    C9222292   2.635   6.910   4.974  0.4462 -0.2897 -0.2387
  101MOL    O9322293   2.729   6.842   4.930 -0.0350 -0.1136 -0.0607
  101MOL    C9422294   2.655   7.037   5.053 -0.0712  0.5067  0.2572
  101MOL    H9522295   2.467   6.852   5.165 -2.4632  0.7210 -0.0004
  101MOL    H9622296   2.477   6.704   5.077  0.0851  0.3220 -3.2838
  101MOL    H9722297   2.439   6.962   4.918 -1.5348 -1.2664 -0.6962
  101MOL    H9822298   2.718   7.117   5.014 -0.3135  1.1600  1.1883
  101MOL    H9922299   2.560   7.088   5.064 -0.4325 -0.2230  0.5567
  101MOL   H10022300   2.705   7.015   5.148 -0.8765  1.1002  0.8189
  101MOL   C10122301   2.481   6.778   4.821  0.0419 -0.6716 -0.0621
  101MOL   C10222302   2.492   6.858   4.688 -0.1038 -0.0811 -0.2978
  101MOL   C10322303   2.361   6.914   4.644 -0.5378  0.0452  0.0968
  101MOL   O10422304   2.349   7.032   4.609 -0.1208 -0.3130 -0.0971
  101MOL   C10522305   2.239   6.817   4.629 -0.3480  0.4709  0.2835
  101MOL   H10622306   2.563   6.707   4.809 -1.5646 -2.3056 -1.6192
  101MOL   H10722307   2.390   6.719   4.826 -1.4102  1.4511 -0.9455
  101MOL   H10822308   2.557   6.944   4.707  0.2434 -0.2620 -0.6529
  101MOL   H10922309   2.179   6.862   4.549 -0.6344  0.9765  0.7732
  101MOL   H11022310   2.282   6.719   4.609  1.5603  1.4206 -0.3954
  101MOL   H11122311   2.183   6.806   4.722  0.3698  1.3503  0.8248
  101MOL   C11222312   2.564   6.784   4.572  0.4679  0.2075  0.4944
  101MOL   C11322313   2.712   6.743   4.573 -0.1857 -0.2149 -0.4955
  101MOL   C11422314   2.804   6.870   4.552 -0.1105 -0.4432 -0.4287
  101MOL   O11522315   2.811   6.926   4.439 -0.3049  0.3618 -0.6111
  101MOL   C11622316   2.894   6.903   4.666 -0.8818 -0.4762  0.4719
  101MOL   H11722317   2.558   6.832   4.474  2.4359 -1.5105 -0.5091
  101MOL   H11822318   2.503   6.695   4.558  0.7376 -0.1372  1.4792
  101MOL   H11922319   2.742   6.701   4.669  0.4005 -1.0650 -1.0459
  101MOL   H12022320   2.867   7.006   4.691 -2.2192 -0.6994 -0.0268
  101MOL   H12122321   2.859   6.825   4.732  0.9921 -0.1571  1.8613
  101MOL   H12222322   2.997   6.885   4.634 -0.9031 -0.4461  0.3841
  101MOL   C12322323   2.739   6.650   4.450  0.4106  0.3102  0.4723
  101MOL   C12422324   2.870   6.563   4.448 -0.5287 -0.1835 -0.7944
  101MOL   C12522325   2.888   6.490   4.316  0.8440  0.0349  0.1940
  101MOL   O12622326   2.873   6.365   4.306  0.1690 -0.1929 -0.4024
  101MOL   C12722327   2.921   6.575   4.196 -0.5674  0.9559  0.0374
  101MOL   H12822328   2.720   6.698   4.354  0.1867 -1.7143 -0.5184
  101MOL   H12922329   2.658   6.577   4.440  0.9764 -0.1419 -1.0391
  101MOL   H13022330   2.955   6.632   4.447  0.0299 -0.8286  0.5049
  101MOL   H13122331   3.027   6.598   4.184  0.2088 -2.3982  0.0120
  101MOL   H13222332   2.878   6.672   4.221 -2.3329  0.5929 -1.4576
  101MOL   H13322333   2.896   6.528   4.101  1.6756 -0.6913  0.2302
  101MOL   C13422334   2.889   6.464   4.563 -0.8952 -0.6110 -0.0001
  101MOL   C13522335   3.040   6.413   4.590  0.5433 -0.5772  0.4124
  101MOL   C13622336   3.132   6.528   4.647  0.1142  0.2678  0.1535
  101MOL   O13722337   3.094   6.640   4.684  0.4179 -0.5683  0.0466
  101MOL   C13822338   3.275   6.510   4.628  0.4662 -0.6629 -0.0442
  101MOL   H13922339   2.817   6.383   4.551 -1.0491 -0.2140 -1.8872
  101MOL   H14022340   2.839   6.511   4.648 -0.5709  0.1723 -0.2380
  101MOL   H14122341   3.071   6.401   4.486  1.3525 -1.4500  0.7461
  101MOL   H14222342   3.306   6.428   4.563  0.6736 -0.8634  0.3098
  101MOL   H14322343   3.318   6.482   4.724  0.6019 -2.8149 -0.7075
  101MOL   H14422344   3.323   6.600   4.588  1.2117 -0.0594  2.1775
  101MOL   C14522345   3.057   6.282   4.672 -0.4851 -0.6737  0.8509
  101MOL   C14622346   3.005   6.145   4.618 -0.0968  0.0797  0.0740
  101MOL   C14722347   3.044   6.113   4.467 -0.6029 -0.0565 -0.3909
  101MOL   O14822348   3.165   6.125   4.427  0.2092 -0.7757  0.0352
  101MOL   C14922349   2.948   6.044   4.374  0.1588 -0.4288  0.0832
  101MOL   H15022350   3.000   6.296   4.765 -2.6855 -0.6598 -0.4538
  101MOL   H15122351   3.159   6.268   4.707  0.4347  1.4640 -0.8395
  101MOL   H15222352   2.897   6.156   4.606 -0.1315 -0.1658  0.1523
  101MOL   H15322353   2.895   5.967   4.431 -0.1909  0.5257  1.0622
  101MOL   H15422354   2.876   6.115   4.334 -1.4085 -1.3025  1.2917
  101MOL   H15522355   2.999   5.991   4.293 -0.4390  0.4992 -0.9086
  101MOL   C15622356   3.035   6.032   4.725 -0.5789 -0.0407  0.3288
  101MOL   C15722357   2.971   5.893   4.699  0.5628  0.1756 -0.2752
  101MOL   C15822358   2.820   5.888   4.749  0.0743  0.2636  0.1044
  101MOL   O15922359   2.788   5.893   4.866  0.2279 -0.4670 -0.4255
  101MOL   C16022360   2.721   5.874   4.634  0.3110  0.3042 -0.1840
  101MOL   H16122361   3.144   6.032   4.740 -0.6308 -0.7128  0.7017
  101MOL   H16222362   2.993   6.070   4.818 -0.4999  0.9663 -0.0299
  101MOL   H16322363   2.963   5.874   4.592 -0.9366 -0.5316 -0.0582
  101MOL   H16422364   2.629   5.830   4.674 -1.1131  2.4227 -1.0070
  101MOL   H16522365   2.755   5.812   4.552  0.0766 -2.3065  1.6222
  101MOL   H16622366   2.704   5.969   4.583  0.7850 -1.7970 -4.4309
  101MOL   C16722367   3.046   5.773   4.757 -0.2982 -0.3535  0.0377
  101MOL   C16822368   3.184   5.734   4.693 -0.9204 -0.7169  0.6395
  101MOL   C16922369   3.183   5.709   4.542 -0.4655  0.0385 -0.0555
  101MOL   O17022370   3.083   5.670   4.485  0.2319  0.1347 -0.3048
  101MOL   C17122371   3.307   5.738   4.460 -0.4564 -0.1368 -0.3653
  101MOL   H17222372   3.068   5.768   4.864  1.9481  0.1428 -0.3743
  101MOL   H17322373   2.986   5.683   4.740 -1.9451  0.7385  0.0177
  101MOL   H17422374   3.253   5.818   4.688 -1.2512 -0.5249 -1.4744
  101MOL   H17522375   3.346   5.839   4.476  0.8014 -0.6608 -0.0450
  101MOL   H17622376   3.290   5.704   4.358  1.2582 -0.5532 -0.5398
  101MOL   H17722377   3.383   5.665   4.488 -0.2761  0.7482  1.5900
  101MOL   C17822378   3.256   5.628   4.771  0.4650  0.0060 -0.3625
  101MOL   C17922379   3.318   5.665   4.907  0.6382  0.0657  0.8073
  101MOL   C18022380   3.433   5.767   4.897 -0.2645  0.5270  0.5843
  101MOL   O18122381   3.424   5.871   4.955 -0.7044  0.3306  0.0507
  101MOL   C18222382   3.560   5.739   4.817  0.2622  0.3499  0.3995
  101MOL   H18322383   3.194   5.544   4.802 -0.5215  1.1947  0.9440
  101MOL   H18422384   3.343   5.596   4.712  0.2859 -0.0508 -0.5986
  101MOL   H18522385   3.237   5.709   4.966 -1.7281 -1.7549 -0.9625
  101MOL   H18622386   3.634   5.725   4.896  0.8280 -1.4524 -0.4349
  101MOL   H18722387   3.578   5.822   4.749  0.5182 -0.7619 -0.9131
  101MOL   H18822388   3.552   5.651   4.754 -1.1320 -0.2971  1.4612
  101MOL   C18922389   3.371   5.533   4.980 -0.4038 -0.3360  0.0226
  101MOL   C19022390   3.411   5.540   5.130  0.2007  0.4208 -1.0164
  101MOL   C19122391   3.292   5.588   5.216 -0.1347 -0.0796 -0.4371
  101MOL   O19222392   3.278   5.710   5.233  0.0886 -0.4477 -0.4166
  101MOL   C19322393   3.188   5.486   5.255 -0.2998 -0.1987 -0.4392
  101MOL   H19422394   3.297   5.452   4.983 -0.0280 -0.6968 -0.4333
  101MOL   H19522395   3.442   5.480   4.917  1.9122  1.9679  0.6102
  101MOL   H19622396   3.488   5.615   5.151  0.1891  0.6972 -1.9681
  101MOL   H19722397   3.110   5.483   5.179 -1.0967  0.0266  0.3507
  101MOL   H19822398   3.233   5.387   5.253 -0.2515 -0.1798 -0.3105
  101MOL   H19922399   3.138   5.504   5.350 -0.6504  1.4505 -0.9271
  101MOL   C20022400   3.471   5.403   5.176 -0.3039 -0.6806 -0.7206
  101MOL   C20122401   3.537   5.398   5.317  0.1089  0.1801  0.2927
  101MOL   C20222402   3.668   5.485   5.334 -0.3795  0.3999  0.9676
  101MOL   O20322403   3.735   5.513   5.237 -0.5273 -0.1700  0.0313
  101MOL   C20422404   3.689   5.553   5.464 -0.4002  0.2301  0.3937
  101MOL   H20522405   3.393   5.327   5.170 -0.6364 -0.4861  0.8845
  101MOL   H20622406   3.549   5.371   5.107  1.7594  0.1404  1.1750
  101MOL   H20722407   3.454   5.431   5.379 -0.6279  1.6202 -1.4072
  101MOL   H20822408   3.598   5.603   5.498 -0.6925  1.9093 -2.6971
  101MOL   H20922409   3.719   5.475   5.534 -1.8178 -1.6748 -1.0637
  101MOL   H21022410   3.776   5.617   5.450 -0.6834  0.5397  0.0620
  101MOL   C21122411   3.577   5.262   5.366 -0.3354  0.3886 -0.6530
  101MOL   C21222412   3.571   5.232   5.522 -0.3811  0.2631 -0.5649
  101MOL   C21322413   3.437   5.246   5.590  0.1621  0.2571 -0.2609
  101MOL   O21422414   3.333   5.239   5.529  0.0612 -0.1571  0.3850
  101MOL   C21522415   3.429   5.243   5.746 -0.5946 -0.0149  0.3919
  101MOL   H21622416   3.519   5.182   5.319  1.0403 -1.4379  0.7095
  101MOL   H21722417   3.675   5.233   5.329  1.1120  3.2956  0.7959
  101MOL   H21822418   3.644   5.299   5.567  0.4499 -1.6586  1.0315
  101MOL   H21922419   3.507   5.298   5.798 -0.6766  1.0376 -0.5730
  101MOL   H22022420   3.335   5.286   5.781 -0.1780 -0.0439  1.5560
  101MOL   H22122421   3.429   5.138   5.775 -0.2218  0.3567  1.7729
  101MOL   H22222422   3.602   5.131   5.550  1.8710  0.8926 -0.7022
  102MOL     C122423   3.134   2.686   4.167  0.0623  0.3731 -0.9275
  102MOL     C222424   3.094   2.754   4.302 -0.0693 -0.2752 -0.6816
  102MOL     C322425   2.946   2.728   4.335 -0.4049  0.1366  0.4857
  102MOL     O422426   2.910   2.634   4.408 -0.1491  0.2813 -0.3303
  102MOL     C522427   2.845   2.814   4.271  0.3413  0.4397 -0.1419
  102MOL     H622428   3.143   2.579   4.183 -0.0577  0.2094 -1.9287
  102MOL     H722429   3.232   2.723   4.138  0.2857 -0.6249 -1.4323
  102MOL     H822430   3.095   2.862   4.285  0.0536  0.5995  4.1800
  102MOL     H922431   2.859   2.918   4.298  0.9650 -0.0695  1.5443
  102MOL    H1022432   2.859   2.821   4.163  0.3174 -0.6350 -0.2186
  102MOL    H1122433   2.745   2.785   4.300  0.0736  0.3414 -1.1465
  102MOL    H1222434   3.066   2.708   4.085 -1.3500  1.1470  0.4260
  102MOL    C1322435   3.204   2.732   4.415  0.2346 -0.6742 -0.7974
  102MOL    C1422436   3.185   2.817   4.546 -0.2915  0.1718 -0.5398
  102MOL    C1522437   3.197   2.966   4.515  0.7438 -0.2554 -0.3673
  102MOL    O1622438   3.307   3.022   4.511  0.2724  0.3477 -0.1539
  102MOL    C1722439   3.066   3.043   4.502 -0.3902 -0.6296  0.2685
  102MOL    H1822440   3.201   2.627   4.445  1.7609 -1.0247 -1.7808
  102MOL    H1922441   3.304   2.749   4.374  0.1052  0.2182 -0.7440
  102MOL    H2022442   3.088   2.796   4.590 -0.2202  0.8088 -0.0741
  102MOL    H2122443   3.071   3.145   4.540 -1.7082 -0.9702  1.4004
  102MOL    H2222444   3.055   3.044   4.394 -0.1400 -0.0053  0.2445
  102MOL    H2322445   2.978   2.990   4.540  0.5138 -0.3604  2.8944
  102MOL    C2422446   3.293   2.759   4.656 -0.2736 -0.0199 -0.8801
  102MOL    C2522447   3.311   2.839   4.781  0.2945  0.4490  0.2963
  102MOL    C2622448   3.207   2.810   4.887 -0.2620  0.3048 -0.5700
  102MOL    O2722449   3.120   2.720   4.880  0.2262 -0.0737  0.0271
  102MOL    C2822450   3.191   2.911   4.997 -0.7728 -0.0836 -0.3335
  102MOL    H2922451   3.266   2.655   4.673  0.1735  0.1224  0.6975
  102MOL    H3022452   3.391   2.760   4.607  0.3541  2.6235  0.3532
  102MOL    H3122453   3.289   2.942   4.754 -1.5510 -0.8261 -3.3304
  102MOL    H3222454   3.228   3.010   4.970 -2.6664  0.7708  0.1259
  102MOL    H3322455   3.083   2.917   5.012 -0.6003  0.8382  0.6231
  102MOL    H3422456   3.249   2.881   5.085 -2.1345  0.9780  0.9623
  102MOL    C3522457   3.456   2.823   4.838  0.4435  0.3418 -0.6862
  102MOL    C3622458   3.559   2.912   4.751 -0.6868  0.2980  0.3199
  102MOL    C3722459   3.552   3.058   4.802 -0.1867  0.7010  0.6966
  102MOL    O3822460   3.572   3.092   4.918  0.2322  0.3610 -0.3053
  102MOL    C3922461   3.501   3.161   4.700 -0.1259 -0.1921  0.1007
  102MOL    H4022462   3.481   2.719   4.817  3.0482  0.5405  1.1631
  102MOL    H4122463   3.467   2.840   4.945 -0.9175 -1.6696 -0.2092
  102MOL    H4222464   3.524   2.916   4.648  1.0021  0.0170 -0.2676
  102MOL    H4322465   3.393   3.150   4.691 -0.2312  0.7973  0.1301
  102MOL    H4422466   3.540   3.149   4.599 -1.5855  0.5922 -0.5680
  102MOL    H4522467   3.517   3.262   4.735 -2.6025  0.3126 -0.0946
  102MOL    C4622468   3.702   2.860   4.743 -0.7877  0.4585  0.1357
  102MOL    C4722469   3.719   2.729   4.652  0.0155 -0.0852  0.1658
  102MOL    C4822470   3.743   2.766   4.502  0.2842 -0.1822 -0.1727
  102MOL    O4922471   3.821   2.703   4.439  0.0988  0.1932  0.7164
  102MOL    C5022472   3.659   2.876   4.440 -0.5293 -0.6488 -0.6059
  102MOL    H5122473   3.729   2.835   4.846  0.4736 -0.1732 -0.3485
  102MOL    H5222474   3.779   2.935   4.728  1.4814 -1.7153  0.5676
  102MOL    H5322475   3.624   2.675   4.646 -0.8397  1.2237  1.5246
  102MOL    H5422476   3.668   2.963   4.506  1.3028 -2.3574  1.4655
  102MOL    H5522477   3.698   2.891   4.340  0.7795  0.2705  0.0222
  102MOL    H5622478   3.553   2.849   4.434 -0.6903 -0.3643  0.7806
  102MOL    C5722479   3.836   2.637   4.702  0.1639  0.7050  0.4639
  102MOL    C5822480   3.792   2.544   4.810  0.0392  0.1864 -0.3586
  102MOL    C5922481   3.700   2.430   4.749 -0.8837 -0.2796  0.9358
  102MOL    O6022482   3.747   2.362   4.655  0.1404  0.5725  0.0450
  102MOL    C6122483   3.559   2.421   4.794  0.0910 -0.2910 -0.3690
  102MOL    H6222484   3.918   2.699   4.740  1.7116 -0.1107 -1.4326
  102MOL    H6322485   3.877   2.575   4.623  3.0722  0.0602  2.3896
  102MOL    H6422486   3.726   2.597   4.879 -0.4179 -0.5696 -0.2161
  102MOL    H6522487   3.558   2.483   4.884  1.9915 -0.0542 -0.4947
  102MOL    H6622488   3.498   2.467   4.716  1.4374  0.0830 -1.2282
  102MOL    H6722489   3.525   2.318   4.805  2.5855 -1.1283 -0.2139
  102MOL    C6822490   3.920   2.488   4.886  0.4688  0.2694  0.4490
  102MOL    C6922491   3.895   2.406   5.017 -0.3209  0.4309 -0.5943
  102MOL    C7022492   3.829   2.491   5.123 -0.4611 -0.4957 -0.2387
  102MOL    O7122493   3.825   2.613   5.113  0.4990 -0.1867 -0.0265
  102MOL    C7222494   3.777   2.427   5.251  0.9074 -0.0428 -0.0348
  102MOL    H7322495   3.983   2.442   4.809  0.4124 -1.1404  1.2280
  102MOL    H7422496   3.976   2.580   4.902  1.3455  0.3325 -2.5280
  102MOL    H7522497   3.831   2.323   4.987 -1.0135  1.3128 -1.5745
  102MOL    H7622498   3.797   2.484   5.341 -2.1733 -0.8595  1.2559
  102MOL    H7722499   3.669   2.446   5.251  0.6755 -1.1378  3.1217
  102MOL    H7822500   3.795   2.320   5.258 -2.4866 -0.6385  0.5885
  102MOL    C7922501   4.021   2.352   5.092  0.1580 -0.2105 -0.2110
  102MOL    C8022502   4.058   2.203   5.065 -0.0805 -0.3872  0.9208
  102MOL    C8122503   4.170   2.154   5.161 -0.2683 -0.2638  0.4208
  102MOL    O8222504   4.140   2.072   5.240 -0.2228 -0.1496  0.2270
  102MOL    C8322505   4.308   2.210   5.154  0.4963 -0.0650 -0.3035
  102MOL    H8422506   4.015   2.348   5.200  4.0564  1.2698  0.1436
  102MOL    H8522507   4.105   2.414   5.060  0.5567  0.1895  1.6082
  102MOL    H8622508   3.964   2.153   5.091 -1.3718  1.8367  0.7098
  102MOL    H8722509   4.380   2.136   5.119  0.1197 -1.6835  2.1900
  102MOL    H8822510   4.334   2.255   5.250 -1.2186  3.5284 -1.4284
  102MOL    H8922511   4.315   2.297   5.089  0.1648  0.8955  0.9275
  102MOL    C9022512   4.087   2.166   4.918  0.6677 -0.4868 -0.4203
  102MOL    C9122513   4.120   2.022   4.880  0.1993  0.7776  0.2257
  102MOL    C9222514   3.999   1.926   4.907  0.7523 -0.0661 -0.6012
  102MOL    O9322515   4.019   1.816   4.948 -0.8058  0.6688 -0.1829
  102MOL    C9422516   3.856   1.975   4.876 -0.1408 -0.4776  0.6091
  102MOL    H9522517   4.000   2.202   4.864  1.7753  0.8563 -1.3421
  102MOL    H9622518   4.168   2.231   4.885 -0.7362  0.9719 -1.0402
  102MOL    H9722519   4.203   1.982   4.938 -0.6016  0.1312  0.9604
  102MOL    H9822520   3.832   2.073   4.917 -2.0501  0.3329 -2.2254
  102MOL    H9922521   3.839   1.974   4.768  1.2776 -1.0133  0.3801
  102MOL   H10022522   3.783   1.903   4.914 -0.8041 -0.4545 -0.5801
  102MOL   C10122523   4.172   2.019   4.735 -0.2873  0.1524  0.0259
  102MOL   C10222524   4.212   1.887   4.660  0.4776 -0.2400  0.0981
  102MOL   C10322525   4.364   1.878   4.638  0.1375 -0.2756 -0.5289
  102MOL   O10422526   4.443   1.962   4.681  0.2349 -0.1024  0.3628
  102MOL   C10522527   4.428   1.753   4.572  0.2834  0.0677 -0.0194
  102MOL   H10622528   4.087   2.061   4.682  1.5974  2.2604 -1.4393
  102MOL   H10722529   4.251   2.093   4.722  0.4698 -0.9324 -1.7356
  102MOL   H10822530   4.174   1.810   4.728 -1.1983  1.3607  1.0287
  102MOL   H10922531   4.400   1.758   4.467 -2.2607 -2.7777  0.4416
  102MOL   H11022532   4.533   1.745   4.600  0.4951 -0.0113 -0.8281
  102MOL   H11122533   4.374   1.669   4.617  1.4005 -0.3300  0.5972
  102MOL   C11222534   4.141   1.896   4.519  0.2805  0.2062 -0.7407
  102MOL   C11322535   3.995   1.843   4.529  0.0803 -0.2215  0.1614
  102MOL   C11422536   3.990   1.691   4.541 -0.1956 -0.5377  0.2889
  102MOL   O11522537   4.082   1.621   4.494  0.0674  0.0352 -0.0287
  102MOL   C11622538   3.880   1.631   4.629 -0.0874  0.5000  0.0993
  102MOL   H11722539   4.199   1.845   4.442 -0.5057 -1.8525  0.0015
  102MOL   H11822540   4.132   1.999   4.482  0.0479 -0.1210 -1.5974
  102MOL   H11922541   3.955   1.871   4.626  0.3767 -2.6398  0.9918
  102MOL   H12022542   3.778   1.664   4.611 -0.5731  0.0936  1.9173
  102MOL   H12122543   3.896   1.523   4.619 -2.3222  0.3202 -1.9936
  102MOL   H12222544   3.894   1.661   4.733 -1.2573 -0.3701  0.5202
  102MOL   C12322545   3.915   1.887   4.409 -0.3362  0.4026  0.0351
  102MOL   C12422546   3.824   2.009   4.439 -0.5584  0.1420  0.5022
  102MOL   C12522547   3.692   1.972   4.505  0.4363 -0.8851  0.5405
  102MOL   O12622548   3.658   1.853   4.517 -0.1950  0.3951  0.4075
  102MOL   C12722549   3.597   2.085   4.557  0.5809  0.2994  0.2636
  102MOL   H12822550   3.860   1.808   4.360  0.0758  0.3956 -0.4245
  102MOL   H12922551   3.985   1.916   4.331  0.7304  0.7964  1.1203
  102MOL   H13022552   3.872   2.074   4.513  2.5473 -2.2876  0.7144
  102MOL   H13122553   3.634   2.107   4.657  0.8650 -0.2359  0.2777
  102MOL   H13222554   3.496   2.044   4.563  0.3226  0.9059  0.0689
  102MOL   H13322555   3.595   2.168   4.487 -1.2076  0.5916  0.6496
  102MOL   C13422556   3.799   2.100   4.318 -1.1112  0.4288 -0.1209
  102MOL   C13522557   3.824   2.248   4.333 -0.4237 -0.3735 -0.5827
  102MOL   C13622558   3.969   2.286   4.363 -0.1802  0.5625 -0.2600
  102MOL   O13722559   4.047   2.312   4.273  0.6809  0.2207  0.2815
  102MOL   C13822560   4.005   2.311   4.506  0.0584 -0.2311 -0.1106
  102MOL   H13922561   3.697   2.089   4.282 -1.0747  1.3704 -0.5303
  102MOL   H14022562   3.852   2.068   4.229 -0.9233  0.1039  0.1093
  102MOL   H14122563   3.771   2.287   4.420 -0.6728 -0.0208 -0.8935
  102MOL   H14222564   3.983   2.415   4.531  1.4314  0.4052 -1.4787
  102MOL   H14322565   4.112   2.302   4.519 -0.1093  0.8890  2.2925
  102MOL   H14422566   3.953   2.260   4.587  2.2826 -1.3631  0.6398
  102MOL   C14522567   3.772   2.335   4.215  0.8641  0.3848  0.2221
  102MOL   C14622568   3.617   2.359   4.204  0.2200  0.2023  0.2136
  102MOL   C14722569   3.567   2.491   4.263 -0.7065  0.0671 -0.1671
  102MOL   O14822570   3.551   2.597   4.203 -0.4822  0.6533  0.0168
  102MOL   C14922571   3.529   2.483   4.408 -0.9355  0.1305  0.8564
  102MOL   H15022572   3.810   2.288   4.124 -0.7723 -0.5396 -0.0007
  102MOL   H15122573   3.817   2.433   4.205  0.2415  0.7575  1.0421
  102MOL   H15222574   3.560   2.289   4.266  0.6921  0.8445  1.3712
  102MOL   H15322575   3.557   2.386   4.449 -0.5545 -0.1600 -0.0772
  102MOL   H15422576   3.591   2.559   4.454 -1.3960  0.4776  0.9097
  102MOL   H15522577   3.427   2.507   4.437 -1.5460  0.3871 -1.4164
  102MOL   C15622578   3.564   2.338   4.053 -0.5385 -0.4209 -1.2539
  102MOL   C15722579   3.528   2.190   3.995  0.3905  0.5768  0.4166
  102MOL   C15822580   3.434   2.126   4.100  0.3484 -0.4943  0.4286
  102MOL   O15922581   3.481   2.061   4.192 -0.0313 -0.3857 -0.6274
  102MOL   C16022582   3.284   2.155   4.089 -0.2070  0.2067 -0.1461
  102MOL   H16122583   3.476   2.401   4.040  0.0807  0.1951 -2.5768
  102MOL   H16222584   3.638   2.382   3.986  0.4617 -1.4022 -0.7961
  102MOL   H16322585   3.468   2.202   3.904  0.1838  1.8128  0.7141
  102MOL   H16422586   3.247   2.165   4.192  1.6263 -0.6144  0.6117
  102MOL   H16522587   3.230   2.073   4.041  0.2889  0.6447 -1.4498
  102MOL   H16622588   3.257   2.243   4.032 -2.6302 -0.3243  0.1207
  102MOL   C16722589   3.652   2.104   3.958 -0.0860 -0.8324 -0.0842
  102MOL   C16822590   3.632   1.968   3.885  0.5846  0.8118 -0.6334
  102MOL   C16922591   3.690   1.853   3.978  0.8714 -1.0881  1.0417
  102MOL   O17022592   3.814   1.838   3.995  0.1985 -0.4266  0.5608
  102MOL   C17122593   3.593   1.749   4.040  0.4919 -0.0563  0.5472
  102MOL   H17222594   3.725   2.169   3.910 -0.3108 -0.5499 -0.0482
  102MOL   H17322595   3.715   2.094   4.046  2.5014  0.8488 -1.6856
  102MOL   H17422596   3.525   1.949   3.872  1.0435 -0.9415 -2.0708
  102MOL   H17522597   3.494   1.789   4.015  0.0809  0.0072  2.2466
  102MOL   H17622598   3.603   1.727   4.146 -0.4699 -1.4901  0.3630
  102MOL   H17722599   3.614   1.652   3.996 -0.2202 -0.1168  0.3300
  102MOL   C17822600   3.709   1.970   3.750 -0.1354  0.0318 -0.5399
  102MOL   C17922601   3.664   1.868   3.642 -0.8388 -0.3546  0.3166
  102MOL   C18022602   3.519   1.881   3.598  0.0254 -0.2505  0.5024
  102MOL   O18122603   3.442   1.790   3.624 -0.2473  0.2326  0.0409
  102MOL   C18222604   3.482   2.015   3.537  0.2387 -0.0133 -0.3771
  102MOL   H18322605   3.702   2.071   3.709 -0.6257 -0.3131 -1.3131
  102MOL   H18422606   3.816   1.969   3.768  0.0319 -1.2331 -1.5946
  102MOL   H18522607   3.727   1.883   3.554 -0.6371 -0.9863  0.3475
  102MOL   H18622608   3.427   2.010   3.443 -2.6390  5.1389  0.8207
  102MOL   H18722609   3.567   2.082   3.535 -1.2690  1.9813  0.5693
  102MOL   H18822610   3.409   2.064   3.603  0.2969 -1.4647  0.8031
  102MOL   C18922611   3.698   1.722   3.694 -0.6011 -0.5953 -0.0896
  102MOL   C19022612   3.732   1.624   3.585  0.0943  0.4818 -0.2594
  102MOL   C19122613   3.865   1.651   3.507 -0.1307  0.4138 -0.4044
  102MOL   O19222614   3.953   1.727   3.546  0.2279  0.5937 -0.4168
  102MOL   C19322615   3.887   1.567   3.389  0.3154 -0.1331  0.2271
  102MOL   H19422616   3.792   1.730   3.749 -0.4953 -0.0047 -0.3488
  102MOL   H19522617   3.626   1.684   3.766 -1.1146 -0.5635 -0.5778
  102MOL   H19622618   3.660   1.645   3.506 -0.5350  1.7184  0.6451
  102MOL   H19722619   3.930   1.630   3.312  0.6334 -0.6277 -0.0002
  102MOL   H19822620   3.952   1.480   3.401  0.4528  0.3805  3.7295
  102MOL   H19922621   3.789   1.532   3.355  0.0079  0.6239  0.3180
  102MOL   C20022622   3.738   1.480   3.637  0.0970  0.9578 -0.7625
  102MOL   C20122623   3.621   1.385   3.594  0.2486 -0.8075 -0.1020
  102MOL   C20222624   3.483   1.443   3.629 -0.0228 -0.2863 -0.3901
  102MOL   O20322625   3.455   1.480   3.746 -0.2355  0.1925  0.2204
  102MOL   C20422626   3.379   1.441   3.516  0.7787 -0.8580 -0.8338
  102MOL   H20522627   3.831   1.431   3.611  0.6320  1.9834 -0.8352
  102MOL   H20622628   3.742   1.486   3.745  1.7695  0.4033 -0.7937
  102MOL   H20722629   3.619   1.377   3.485 -0.3920  1.7368 -0.3083
  102MOL   H20822630   3.300   1.370   3.539  0.3817  0.3874  1.8682
  102MOL   H20922631   3.337   1.541   3.520 -2.6435 -2.2345 -0.8304
  102MOL   H21022632   3.416   1.428   3.415  1.7277  1.8654 -0.8904
  102MOL   C21122633   3.638   1.249   3.666  0.0605 -0.6207  0.1182
  102MOL   C21222634   3.746   1.160   3.610  0.2777 -0.5262  0.0416
  102MOL   C21322635   3.718   1.091   3.477 -0.3554 -0.5032  0.1767
  102MOL   O21422636   3.601   1.070   3.437 -0.3190 -0.9222  0.3604
  102MOL   C21522637   3.839   1.046   3.390 -0.3571 -0.1311 -0.5192
  102MOL   H21622638   3.656   1.264   3.773  3.2431  1.3159 -0.5958
  102MOL   H21722639   3.537   1.209   3.663 -0.4548  0.7115 -0.8558
  102MOL   H21822640   3.749   1.084   3.688 -1.8029  0.7810  1.4230
  102MOL   H21922641   3.829   0.940   3.365 -2.6237  0.3061 -1.5564
  102MOL   H22022642   3.852   1.111   3.304  2.6952  0.2897  0.1873
  102MOL   H22122643   3.933   1.049   3.446  0.2685 -0.6806 -1.5218
  102MOL   H22222644   3.843   1.208   3.597  0.5902 -0.6263  1.8986
  103MOL     C122645   3.647   5.246   1.023 -0.2761 -0.2017  0.0934
  103MOL     C222646   3.686   5.363   1.114 -0.4458 -0.1802 -0.0574
  103MOL     C322647   3.564   5.441   1.166  0.3910  0.2691  0.1061
  103MOL     O422648   3.503   5.414   1.268 -0.3990 -0.7736  0.4326
  103MOL     C522649   3.528   5.557   1.070 -0.3411 -0.6330 -0.2191
  103MOL     H622650   3.738   5.194   0.995  0.6993  0.6793  1.5215
  103MOL     H722651   3.588   5.279   0.938 -2.2565 -1.9313  0.7431
  103MOL     H822652   3.732   5.437   1.048  0.4359 -1.5281 -0.9708
  103MOL     H922653   3.575   5.647   1.110 -0.7057 -0.4505 -0.1929
  103MOL    H1022654   3.577   5.551   0.973  0.3933  0.6293  0.0649
  103MOL    H1122655   3.419   5.562   1.063 -0.2539 -2.5248 -3.9906
  103MOL    H1222656   3.591   5.177   1.086  0.0319 -2.2038 -1.7898
  103MOL    C1322657   3.773   5.309   1.232  0.5331  0.0629 -0.3938
  103MOL    C1422658   3.866   5.411   1.299  0.4557 -0.0953 -0.6017
  103MOL    C1522659   3.795   5.505   1.397 -0.2334  0.0917  0.0839
  103MOL    O1622660   3.799   5.626   1.377 -0.5987 -0.5262  0.0774
  103MOL    C1722661   3.744   5.448   1.527  0.1552 -0.5401 -1.5400
  103MOL    H1822662   3.709   5.256   1.302  1.9844  0.2750  1.1184
  103MOL    H1922663   3.834   5.224   1.202 -0.7654 -1.9020  2.3009
  103MOL    H2022664   3.928   5.350   1.365  1.9821 -1.6851 -3.4333
  103MOL    H2122665   3.781   5.501   1.615 -0.5035 -2.4697 -0.0784
  103MOL    H2222666   3.635   5.452   1.530  0.2384  0.2548  1.3112
  103MOL    H2322667   3.782   5.351   1.557 -0.9003 -0.2759  0.7289
  103MOL    C2422668   3.951   5.494   1.197  0.4360 -0.1299 -0.4803
  103MOL    C2522669   4.092   5.540   1.237 -0.2140 -0.0229 -0.0136
  103MOL    C2622670   4.197   5.428   1.223  0.3050 -0.5289 -0.1588
  103MOL    O2722671   4.216   5.355   1.323  0.4764  0.7666 -0.5938
  103MOL    C2822672   4.257   5.398   1.093  0.2159 -0.2850  0.2288
  103MOL    H2922673   3.970   5.422   1.118  1.1365  0.8550 -1.2160
  103MOL    H3022674   3.890   5.579   1.169  0.3315 -0.2033 -0.4734
  103MOL    H3122675   4.081   5.572   1.341 -1.1704  1.4141 -0.5365
  103MOL    H3222676   4.318   5.308   1.086  1.8414  0.7595  0.6758
  103MOL    H3322677   4.183   5.385   1.013 -1.2324 -1.8245  1.7856
  103MOL    H3422678   4.329   5.470   1.054 -0.1784 -0.9821 -1.8647
  103MOL    C3522679   4.149   5.670   1.168  0.3297  0.8220  0.4091
  103MOL    C3622680   4.116   5.807   1.241 -0.4820  0.0437 -0.7024
  103MOL    C3722681   4.155   5.803   1.392  0.1086 -0.1140  0.0295
  103MOL    O3822682   4.272   5.786   1.421 -0.0375 -0.0334 -0.0095
  103MOL    C3922683   4.052   5.822   1.497  1.0135 -0.0957 -0.0268
  103MOL    H4022684   4.124   5.669   1.062 -1.9489 -0.8766  0.9468
  103MOL    H4122685   4.258   5.667   1.171  0.3395  0.0764 -0.6624
  103MOL    H4222686   4.007   5.806   1.252 -0.4065  0.4504  0.0802
  103MOL    H4322687   4.094   5.808   1.597  1.9854 -1.3827 -0.6092
  103MOL    H4422688   3.973   5.747   1.499 -0.6303  1.5958  0.2121
  103MOL    H4522689   4.004   5.920   1.486 -0.5377 -1.0932 -2.6957
  103MOL    C4622690   4.175   5.935   1.162 -0.1937  0.0348 -0.0783
  103MOL    C4722691   4.116   6.071   1.215  0.7779 -0.9744  0.3918
  103MOL    C4822692   4.175   6.199   1.145 -0.0099  0.2555  0.3884
  103MOL    O4922693   4.128   6.308   1.164  0.1318  0.5886 -0.0363
  103MOL    C5022694   4.285   6.184   1.043  0.2983  0.2331 -0.4990
  103MOL    H5122695   4.155   5.926   1.056  1.8928  2.2129 -0.7157
  103MOL    H5222696   4.283   5.925   1.178 -0.3346 -2.6988 -0.6940
  103MOL    H5322697   4.146   6.072   1.319  1.5625 -1.9954  0.1848
  103MOL    H5422698   4.360   6.130   1.101 -1.3834  0.2627  1.7553
  103MOL    H5522699   4.258   6.130   0.953 -1.2156  2.8542 -1.6809
  103MOL    H5622700   4.325   6.280   1.010 -0.9022  0.4245 -1.4230
  103MOL    C5722701   3.963   6.090   1.218  0.7457 -0.0924  0.0740
  103MOL    C5822702   3.882   6.102   1.090 -0.8248 -0.4005  0.0099
  103MOL    C5922703   3.862   5.961   1.029 -0.1440 -0.8222  0.3513
  103MOL    O6022704   3.919   5.931   0.921 -0.1256  0.3035 -0.0098
  103MOL    C6122705   3.769   5.860   1.100  0.9839 -0.5107  0.0556
  103MOL    H6222706   3.932   6.176   1.278 -0.0400 -1.1970  1.2688
  103MOL    H6322707   3.929   6.003   1.274  2.5582 -0.8766  0.0024
  103MOL    H6422708   3.949   6.156   1.023 -0.9665 -0.3035 -0.0532
  103MOL    H6522709   3.697   5.813   1.033  2.8102 -2.9175 -0.2630
  103MOL    H6622710   3.822   5.781   1.153  1.2017  0.4551  1.3009
  103MOL    H6722711   3.728   5.923   1.179  0.0404 -0.6646 -0.3084
  103MOL    C6822712   3.751   6.183   1.104 -0.1276  0.5795  0.4227
  103MOL    C6922713   3.712   6.249   0.968 -0.2947 -0.1983  0.0222
  103MOL    C7022714   3.808   6.362   0.935  0.3377  0.3790  0.1788
  103MOL    O7122715   3.892   6.351   0.844  0.2730 -0.5062 -0.0498
  103MOL    C7222716   3.811   6.485   1.015  0.5434 -0.0655 -0.2326
  103MOL    H7322717   3.669   6.117   1.133 -0.7564  0.9167 -0.5601
  103MOL    H7422718   3.766   6.260   1.180  0.4134  0.4919  0.4098
  103MOL    H7522719   3.730   6.167   0.899 -0.6819  1.0788 -1.6370
  103MOL    H7622720   3.714   6.536   1.009  0.9124  1.2436  3.4662
  103MOL    H7722721   3.838   6.467   1.119  1.7515  3.0401  0.0424
  103MOL    H7822722   3.879   6.558   0.970  0.0059  0.8592  0.4260
  103MOL    C7922723   3.560   6.278   0.964 -0.3417  0.3675  0.4875
  103MOL    C8022724   3.525   6.359   0.842 -0.2452  0.5955 -0.6870
  103MOL    C8122725   3.397   6.434   0.870 -0.2488  0.6126  0.1961
  103MOL    O8222726   3.293   6.374   0.868 -0.0930  0.1220  0.0632
  103MOL    C8322727   3.400   6.586   0.888  0.4872 -0.2401  0.3259
  103MOL    H8422728   3.548   6.341   1.052  2.3381  1.7439 -0.0737
  103MOL    H8522729   3.509   6.182   0.972  0.8082 -0.0287  3.5560
  103MOL    H8622730   3.594   6.442   0.829 -0.0713  0.6307  0.3833
  103MOL    H8722731   3.500   6.625   0.906  0.8632 -0.8145 -0.4954
  103MOL    H8822732   3.332   6.634   0.958 -1.4501 -0.9930 -0.9954
  103MOL    H8922733   3.365   6.621   0.790 -0.4003  0.8859  1.0274
  103MOL    C9022734   3.512   6.283   0.702  0.4935  0.1764  0.2221
  103MOL    C9122735   3.568   6.365   0.583  0.1830  0.6283 -0.4366
  103MOL    C9222736   3.637   6.277   0.483 -0.7561  0.0123  0.2236
  103MOL    O9322737   3.583   6.245   0.373  0.8706  0.0713  0.1620
  103MOL    C9422738   3.772   6.217   0.530  0.9058 -0.8849 -0.3092
  103MOL    H9522739   3.583   6.201   0.711  1.3540  0.7775 -0.9738
  103MOL    H9622740   3.414   6.242   0.680  0.3845  0.4431  0.2052
  103MOL    H9722741   3.649   6.429   0.617 -1.6440  2.5901  0.3171
  103MOL    H9822742   3.838   6.213   0.444  2.1952  1.7786  0.5066
  103MOL    H9922743   3.820   6.282   0.603  0.2706  0.3006 -0.9271
  103MOL   H10022744   3.746   6.123   0.578 -0.7700 -0.2594  0.0559
  103MOL   C10122745   3.464   6.458   0.521 -0.0012  0.9081  0.6555
  103MOL   C10222746   3.517   6.562   0.421  0.0776  0.1968  0.7837
  103MOL   C10322747   3.594   6.666   0.503 -0.3576  0.4297  0.0001
  103MOL   O10422748   3.591   6.670   0.625  0.4372 -0.2078  0.0760
  103MOL   C10522749   3.676   6.777   0.420 -0.4326 -0.2098 -0.1218
  103MOL   H10622750   3.397   6.390   0.468  0.1150  1.3350 -0.0443
  103MOL   H10722751   3.389   6.506   0.584 -1.1946  1.5154 -1.1817
  103MOL   H10822752   3.596   6.526   0.355 -0.1942  3.3455 -1.3659
  103MOL   H10922753   3.610   6.846   0.368  0.6874  1.1438  0.2375
  103MOL   H11022754   3.741   6.830   0.490  0.5742  0.1423 -1.3036
  103MOL   H11122755   3.740   6.738   0.340  0.0763  2.5048 -1.0819
  103MOL   C11222756   3.415   6.633   0.334  0.0054 -0.1289  0.6417
  103MOL   C11322757   3.451   6.640   0.184 -0.2560 -0.1298  0.3582
  103MOL   C11422758   3.349   6.738   0.108 -0.5256  0.4932  0.0435
  103MOL   O11522759   3.232   6.699   0.095 -0.3534 -0.0983  0.0277
  103MOL   C11622760   3.389   6.864   0.033 -0.1804  0.0075  0.9200
  103MOL   H11722761   3.389   6.733   0.367 -2.2203 -0.5241  0.1230
  103MOL   H11822762   3.315   6.590   0.337 -1.5182  3.3291  0.8632
  103MOL   H11922763   3.550   6.686   0.185  0.3073 -1.2297 -1.2127
  103MOL   H12022764   3.293   6.908   0.007  0.1653 -0.0546 -0.5061
  103MOL   H12122765   3.431   6.943   0.096  0.2467  0.1039  0.5171
  103MOL   H12222766   3.449   6.852   7.800  0.4457  3.0139  0.8708
  103MOL   C12322767   3.458   6.495   0.129 -0.1640  0.2372 -0.7890
  103MOL   C12422768   3.544   6.470   0.003 -0.7189 -0.0178 -0.2549
  103MOL   C12522769   3.690   6.507   0.014 -0.0994  0.3776 -0.7940
  103MOL   O12622770   3.744   6.556   7.777  0.5438  0.5963  0.1916
  103MOL   C12722771   3.774   6.472   0.135  0.6527  0.8814 -0.2230
  103MOL   H12822772   3.356   6.457   0.124 -0.0500 -0.1482 -0.2705
  103MOL   H12922773   3.491   6.432   0.212 -2.1855 -0.5708 -0.5621
  103MOL   H13022774   3.544   6.362   7.851  1.2594 -0.2799  2.1040
  103MOL   H13122775   3.742   6.376   0.175  0.6402  1.1957  0.5345
  103MOL   H13222776   3.753   6.549   0.209  0.7941 -0.7995  1.6049
  103MOL   H13322777   3.879   6.472   0.105  0.9964 -0.8536  0.8679
  103MOL   C13422778   3.475   6.531   7.742  0.3138 -0.6137  0.2684
  103MOL   C13522779   3.507   6.469   7.611  0.3573  0.3926  0.2957
  103MOL   C13622780   3.483   6.311   7.609 -0.0016  0.2479  1.3401
  103MOL   O13722781   3.376   6.266   7.568  0.6219  0.2381  0.3144
  103MOL   C13822782   3.600   6.220   7.665 -0.4513  0.0087 -0.8524
  103MOL   H13922783   3.499   6.637   7.731 -3.0035  0.2302  0.4311
  103MOL   H14022784   3.368   6.525   7.761  0.2865  1.0859  0.7781
  103MOL   H14122785   3.614   6.482   7.595  0.6078 -0.3367  1.2841
  103MOL   H14222786   3.593   6.127   7.609  0.7541  1.2059 -3.0115
  103MOL   H14322787   3.562   6.189   7.763 -2.1993 -0.2058 -1.5828
  103MOL   H14422788   3.703   6.255   7.662  0.0859 -1.5505 -0.8163
  103MOL   C14522789   3.426   6.536   7.503  0.5779 -0.0842 -0.0065
  103MOL   C14622790   3.455   6.493   7.363 -0.2153 -0.2400 -0.4751
  103MOL   C14722791   3.335   6.505   7.275  0.0213 -0.8596 -0.3882
  103MOL   O14822792   3.288   6.616   7.237  0.1673  0.3495 -0.0422
  103MOL   C14922793   3.260   6.374   7.239 -0.9589 -0.1853 -0.2417
  103MOL   H15022794   3.441   6.643   7.515 -0.1858  0.1456 -0.9619
  103MOL   H15122795   3.320   6.515   7.517 -0.0895  3.5902  1.0392
  103MOL   H15222796   3.476   6.386   7.361 -1.5367 -0.4926 -1.3640
  103MOL   H15322797   3.216   6.348   7.335  3.5872 -0.8558  1.8085
  103MOL   H15422798   3.190   6.403   7.161 -1.6447 -0.2385  0.3533
  103MOL   H15522799   3.326   6.297   7.199 -0.3393  0.2337 -0.0326
  103MOL   C15622800   3.580   6.564   7.303  0.5011  0.0058  0.0908
  103MOL   C15722801   3.715   6.486   7.313 -0.2288 -0.1008  0.4487
  103MOL   C15822802   3.829   6.583   7.301 -0.0408  0.7064 -0.1786
  103MOL   O15922803   3.909   6.576   7.205  0.0100 -0.1936 -0.0191
  103MOL   C16022804   3.848   6.689   7.408 -0.2436 -0.5197  0.1648
  103MOL   H16122805   3.561   6.588   7.198 -1.5606  1.2084  0.7250
  103MOL   H16222806   3.591   6.663   7.346  0.5507  0.6158 -1.3075
  103MOL   H16322807   3.722   6.431   7.407  0.9948 -0.6183  0.0557
  103MOL   H16422808   3.943   6.662   7.454  1.2578  2.2225 -1.1883
  103MOL   H16522809   3.782   6.680   7.494  0.9593  0.4704  1.2131
  103MOL   H16622810   3.869   6.783   7.356  2.6100 -1.2828 -0.1929
  103MOL   C16722811   3.719   6.379   7.196 -0.1356 -0.8727  0.3257
  103MOL   C16822812   3.830   6.273   7.199 -0.1401 -0.3120 -0.0558
  103MOL   C16922813   3.863   6.223   7.058 -0.3182 -0.5059 -0.4608
  103MOL   O17022814   3.790   6.145   6.997  0.1922  0.1342 -0.1685
  103MOL   C17122815   3.979   6.282   6.984 -0.6900  0.6723 -0.7514
  103MOL   H17222816   3.620   6.334   7.202 -0.3292 -0.5301 -0.2663
  103MOL   H17322817   3.716   6.434   7.102 -0.7835  1.0261  1.4070
  103MOL   H17422818   3.932   6.301   7.222  0.0143 -1.1553  0.3260
  103MOL   H17522819   3.950   6.386   6.965 -2.9248  0.7283  2.6443
  103MOL   H17622820   4.006   6.226   6.894  0.1551 -0.4967  0.2210
  103MOL   H17722821   4.059   6.281   7.058 -0.6638  0.2263 -0.7854
  103MOL   C17822822   3.781   6.162   7.303 -0.2493 -0.7264  0.4496
  103MOL   C17922823   3.885   6.074   7.381 -0.3103 -0.8858  0.1549
  103MOL   C18022824   3.964   6.162   7.484 -0.3319 -0.1513  0.3125
  103MOL   O18122825   3.964   6.287   7.482  0.1366 -0.2861 -0.3730
  103MOL   C18222826   4.013   6.100   7.612 -0.0304  0.2825  0.2403
  103MOL   H18322827   3.723   6.204   7.385 -0.1674 -2.2287  1.2991
  103MOL   H18422828   3.728   6.098   7.232 -0.4233 -1.8910  1.6276
  103MOL   H18522829   3.823   6.004   7.436 -1.2825 -0.9463 -0.9989
  103MOL   H18622830   3.947   6.111   7.698 -1.1585  2.5748 -0.8867
  103MOL   H18722831   4.111   6.131   7.647 -0.2034  1.3614 -0.2297
  103MOL   H18822832   4.018   5.991   7.608 -2.0613  0.2179 -1.5537
  103MOL   C18922833   3.992   5.997   7.293 -0.2207  0.1583  0.4937
  103MOL   C19022834   3.942   5.903   7.186  0.1001 -0.4007  0.3165
  103MOL   C19122835   4.065   5.854   7.112  0.2340 -0.2780  0.1602
  103MOL   O19222836   4.130   5.757   7.158 -0.1894 -0.7402  0.7023
  103MOL   C19322837   4.122   5.932   6.995 -0.0733 -0.9700 -0.6104
  103MOL   H19422838   4.062   6.071   7.255  0.7424 -0.1495  1.6541
  103MOL   H19522839   4.056   5.933   7.354 -0.9824 -0.6169  0.4907
  103MOL   H19622840   3.875   5.969   7.131 -0.3421  0.1186  1.4689
  103MOL   H19722841   4.227   5.906   6.980  0.2166  0.4745 -1.0745
  103MOL   H19822842   4.077   5.889   6.905 -2.6717  0.0261  0.1762
  103MOL   H19922843   4.115   6.040   6.994 -0.4785 -0.9522  1.6847
  103MOL   C20022844   3.860   5.788   7.234 -0.6262 -0.8599 -0.2649
  103MOL   C20122845   3.782   5.702   7.126 -0.1426  0.3828  0.3797
  103MOL   C20222846   3.689   5.788   7.045  0.8338 -0.6839  0.9903
  103MOL   O20322847   3.591   5.848   7.089  0.4407  0.0547 -0.4310
  103MOL   C20422848   3.736   5.810   6.901  0.0184  0.1605 -0.1173
  103MOL   H20522849   3.922   5.719   7.291  0.2571 -1.6481 -2.1514
  103MOL   H20622850   3.793   5.825   7.312 -0.9010 -0.7741 -0.5397
  103MOL   H20722851   3.851   5.668   7.049 -1.2301 -1.1451  0.0627
  103MOL   H20822852   3.808   5.733   6.873  1.1426  1.3591 -0.4990
  103MOL   H20922853   3.642   5.806   6.845  0.1966 -0.7537 -0.3690
  103MOL   H21022854   3.782   5.908   6.901 -1.9560  1.1149  0.6289
  103MOL   C21122855   3.712   5.584   7.196  0.4075 -0.7846 -0.1715
  103MOL   C21222856   3.606   5.507   7.120 -0.0337  0.0614 -0.1016
  103MOL   C21322857   3.658   5.420   7.007  0.0542  0.0215  0.2512
  103MOL   O21422858   3.782   5.422   6.977  0.6482 -0.7197  0.1994
  103MOL   C21522859   3.558   5.330   6.929  0.2313  0.3841 -0.0793
  103MOL   H21622860   3.793   5.520   7.230 -0.3173 -1.6645 -0.0779
  103MOL   H21722861   3.660   5.623   7.284  1.6581  1.8150 -0.5386
  103MOL   H21822862   3.542   5.574   7.063  0.2096 -1.5953 -2.3790
  103MOL   H21922863   3.509   5.394   6.855  0.0424  1.4926  0.9899
  103MOL   H22022864   3.606   5.251   6.870  1.2838  1.0367 -0.1204
  103MOL   H22122865   3.487   5.286   6.998  0.6672 -0.9445 -0.4740
  103MOL   H22222866   3.536   5.453   7.184 -0.0424 -0.9009 -0.9189
  104MOL     C122867   7.166   2.210   1.726  0.3398  0.5515  0.3049
  104MOL     C222868   7.143   2.179   1.879 -0.1168  0.0802 -0.2243
  104MOL     C322869   7.240   2.268   1.970  1.2877  0.6620 -0.6839
  104MOL     O422870   7.201   2.344   2.058  0.1037  0.1406  0.6092
  104MOL     C522871   7.391   2.267   1.945  0.0946 -0.1469 -0.7024
  104MOL     H622872   7.151   2.126   1.658 -0.6676  1.4910 -0.6598
  104MOL     H722873   7.263   2.242   1.689  0.3436  0.0567 -0.1289
  104MOL     H822874   7.187   2.083   1.907  0.6693 -0.3948 -2.9612
  104MOL     H922875   7.433   2.308   2.036 -0.7665 -1.3791  0.2712
  104MOL    H1022876   7.418   2.161   1.941 -2.0274 -0.8428  2.1325
  104MOL    H1122877   7.413   2.335   1.863  3.2952 -0.2357  0.0031
  104MOL    H1222878   7.096   2.292   1.707 -0.5089 -0.5917 -1.7345
  104MOL    C1322879   7.002   2.160   1.928 -0.0995  0.5129  0.3150
  104MOL    C1422880   6.976   2.089   2.060  0.5124 -0.1592  0.5306
  104MOL    C1522881   6.987   1.935   2.047 -0.2751 -0.0874 -0.4680
  104MOL    O1622882   6.991   1.883   1.935  0.1066 -0.3239 -0.1509
  104MOL    C1722883   6.994   1.841   2.172 -0.0326 -0.3818  0.6011
  104MOL    H1822884   6.953   2.256   1.945 -2.4314 -0.2076 -1.8948
  104MOL    H1922885   6.947   2.106   1.851  1.0212  0.0189 -0.1438
  104MOL    H2022886   7.075   2.105   2.105  0.5778  0.0342  0.3181
  104MOL    H2122887   7.035   1.899   2.254  0.3106 -1.0469  0.8910
  104MOL    H2222888   6.894   1.804   2.198  0.2288 -1.2082  0.4436
  104MOL    H2322889   7.060   1.755   2.163 -0.6688 -0.7760 -0.4898
  104MOL    C2422890   6.843   2.124   2.141  0.2481  0.4900  0.2615
  104MOL    C2522891   6.853   2.134   2.291 -0.0906 -0.2148 -0.1845
  104MOL    C2622892   6.906   2.266   2.335 -0.4080 -0.6125 -0.4809
  104MOL    O2722893   6.912   2.354   2.254  0.2388  0.4458 -0.0266
  104MOL    C2822894   6.960   2.287   2.473 -0.1273 -0.2173  0.3052
  104MOL    H2922895   6.802   2.213   2.093  3.2654  1.6783 -0.2251
  104MOL    H3022896   6.775   2.038   2.136  2.3983 -1.2281 -0.4635
  104MOL    H3122897   6.921   2.054   2.320 -2.9177 -2.8913 -0.5232
  104MOL    H3222898   6.875   2.291   2.542 -1.6046  0.3341 -1.5147
  104MOL    H3322899   7.019   2.199   2.500 -0.3199 -0.9215 -1.5058
  104MOL    H3422900   7.019   2.378   2.476  1.0752 -0.7414 -3.8848
  104MOL    C3522901   6.725   2.105   2.369 -0.1246  0.1476 -0.0517
  104MOL    C3622902   6.704   1.961   2.402  0.3307  0.0281  0.1675
  104MOL    C3722903   6.792   1.911   2.526 -0.1902 -0.1983 -0.3031
  104MOL    O3822904   6.869   1.987   2.587 -0.2230  0.1089  0.6039
  104MOL    C3922905   6.772   1.773   2.588 -0.1340 -0.9068 -0.3356
  104MOL    H4022906   6.648   2.126   2.295  0.2856 -2.3162 -1.2205
  104MOL    H4122907   6.712   2.166   2.459 -3.5844  1.1603 -1.1666
  104MOL    H4222908   6.742   1.917   2.310  0.3189 -1.4584  0.8436
  104MOL    H4322909   6.763   1.700   2.507 -0.0941 -0.2302 -0.9563
  104MOL    H4422910   6.674   1.767   2.636 -0.4505 -2.3900 -1.1083
  104MOL    H4522911   6.858   1.752   2.651 -0.5861 -0.6043  0.3841
  104MOL    C4622912   6.555   1.918   2.408  0.3703  0.9368 -0.5484
  104MOL    C4722913   6.475   1.967   2.526 -0.2516  0.7102  0.6150
  104MOL    C4822914   6.458   2.120   2.524 -0.9302 -0.7777  0.0886
  104MOL    O4922915   6.405   2.187   2.435  0.4976  0.3392  0.0845
  104MOL    C5022916   6.511   2.201   2.644  0.1812  0.2311 -0.3349
  104MOL    H5122917   6.560   1.809   2.408  1.1903  0.9684  0.9429
  104MOL    H5222918   6.505   1.957   2.318 -4.0167 -1.6666  0.6181
  104MOL    H5322919   6.531   1.945   2.617  1.1225 -1.0180 -0.6040
  104MOL    H5422920   6.590   2.271   2.618 -0.1730  0.7252 -0.0991
  104MOL    H5522921   6.432   2.267   2.681  0.2775  1.5635 -2.4468
  104MOL    H5622922   6.557   2.129   2.712 -1.5018 -2.2749 -1.7627
  104MOL    C5722923   6.338   1.888   2.533 -0.2909  0.3075 -0.2210
  104MOL    C5822924   6.266   1.918   2.665  0.1507  0.1331  1.0189
  104MOL    C5922925   6.118   1.894   2.649  0.5527  0.1828 -0.1324
  104MOL    O6022926   6.067   1.779   2.638  0.7625 -0.0569  0.1134
  104MOL    C6122927   6.025   2.017   2.667  0.5640 -0.0330  0.2778
  104MOL    H6222928   6.368   1.783   2.535  0.5363  0.5669  1.8951
  104MOL    H6322929   6.290   1.910   2.438  1.2986  2.6090 -0.5213
  104MOL    H6422930   6.286   2.023   2.688 -0.9191  0.7045 -0.5927
  104MOL    H6522931   5.937   1.980   2.721  0.6456 -0.3847  0.1697
  104MOL    H6622932   6.076   2.086   2.735 -0.8440  0.0107  1.3279
  104MOL    H6722933   6.000   2.064   2.572  1.7635  1.3843  0.6403
  104MOL    C6822934   6.320   1.851   2.796 -0.0157  0.7431  0.1145
  104MOL    C6922935   6.278   1.911   2.929 -0.7923 -0.5173 -0.2266
  104MOL    C7022936   6.349   2.050   2.956 -0.3526 -0.0828 -0.0942
  104MOL    O7122937   6.290   2.152   2.931 -0.1811  0.6354  0.0788
  104MOL    C7222938   6.493   2.053   3.006  0.4530 -0.3296  0.0132
  104MOL    H7322939   6.284   1.749   2.786  0.5130  0.6276 -0.6746
  104MOL    H7422940   6.429   1.842   2.794 -0.0894 -0.0851 -1.2842
  104MOL    H7522941   6.177   1.949   2.911 -0.8668 -0.3361  0.5473
  104MOL    H7622942   6.537   2.151   2.987  0.1782 -0.6227 -2.3069
  104MOL    H7722943   6.500   2.018   3.109  0.1263 -0.5547 -0.0418
  104MOL    H7822944   6.559   1.986   2.952 -0.7992 -1.1231 -0.5652
  104MOL    C7922945   6.285   1.812   3.047  0.0540 -0.2445  0.0018
  104MOL    C8022946   6.161   1.718   3.044 -0.0454 -0.3568 -0.7116
  104MOL    C8122947   6.033   1.793   3.091 -0.2666 -0.1667 -0.1570
  104MOL    O8222948   6.010   1.808   3.209 -0.3746  0.3324  0.1593
  104MOL    C8322949   5.942   1.834   2.976  0.4194 -0.4904 -0.8253
  104MOL    H8422950   6.285   1.869   3.139 -1.0264  0.0270 -0.1598
  104MOL    H8522951   6.380   1.760   3.059 -0.6963 -1.0068  2.8586
  104MOL    H8622952   6.145   1.694   2.939 -2.6826 -0.3235 -0.3414
  104MOL    H8722953   6.005   1.857   2.890  2.8714  1.4535  1.3973
  104MOL    H8822954   5.883   1.922   3.002  2.7069  1.1562 -1.0664
  104MOL    H8922955   5.883   1.756   2.928  1.2674 -0.6619 -1.6229
  104MOL    C9022956   6.189   1.588   3.114 -0.9444 -0.0148  0.1099
  104MOL    C9122957   6.083   1.474   3.091 -0.5939  0.6184  0.5406
  104MOL    C9222958   6.069   1.426   2.947 -0.5444 -0.1169  0.9230
  104MOL    O9322959   6.166   1.391   2.882  0.4892  0.0360  0.6185
  104MOL    C9422960   5.931   1.429   2.888  0.8152 -0.3086 -0.6102
  104MOL    H9522961   6.281   1.558   3.064 -1.1680  0.1982 -0.4301
  104MOL    H9622962   6.214   1.603   3.219  0.0233 -3.0170  0.3549
  104MOL    H9722963   5.986   1.515   3.119 -0.2194  1.8319  0.0737
  104MOL    H9822964   5.935   1.364   2.801  0.5931 -1.7150  0.4137
  104MOL    H9922965   5.867   1.381   2.961 -0.7447 -0.6795 -2.1991
  104MOL   H10022966   5.893   1.528   2.864  1.9854  0.3252  0.0868
  104MOL   C10122967   6.118   1.357   3.184  0.1917 -0.1820 -0.3388
  104MOL   C10222968   6.073   1.385   3.327 -0.5135 -0.1257 -0.1892
  104MOL   C10322969   6.157   1.328   3.445  0.2745  0.6036  0.7815
  104MOL   O10422970   6.108   1.269   3.539  0.1331 -0.0282 -0.6487
  104MOL   C10522971   6.314   1.353   3.452  0.0587  0.5293  0.2471
  104MOL   H10622972   6.079   1.264   3.143  1.1997 -0.9566  0.4459
  104MOL   H10722973   6.225   1.339   3.174 -0.0805 -2.0138 -0.1694
  104MOL   H10822974   6.099   1.489   3.347 -1.2049  0.6475 -3.1657
  104MOL   H10922975   6.356   1.320   3.357 -0.3183 -0.1760  0.3209
  104MOL   H11022976   6.336   1.455   3.481 -0.0949  0.1908  1.5713
  104MOL   H11122977   6.356   1.287   3.528 -0.1903 -2.8456 -2.3767
  104MOL   C11222978   5.922   1.363   3.351  0.2179 -0.2228  0.4500
  104MOL   C11322979   5.848   1.443   3.466  0.0346  0.1490  0.2715
  104MOL   C11422980   5.750   1.349   3.535  0.1515  0.7013 -0.6441
  104MOL   O11522981   5.653   1.308   3.471  0.7332  0.6846  0.0437
  104MOL   C11622982   5.779   1.304   3.677 -0.6541  0.6059 -0.3575
  104MOL   H11722983   5.916   1.254   3.351 -0.1758 -0.2132 -0.4857
  104MOL   H11822984   5.873   1.389   3.257 -0.8588 -1.9036  0.5280
  104MOL   H11922985   5.926   1.463   3.540 -0.3419  1.0570  0.4291
  104MOL   H12022986   5.693   1.347   3.729  0.5296  0.8425  1.4597
  104MOL   H12122987   5.771   1.197   3.695  2.4135  0.4448  0.3707
  104MOL   H12222988   5.871   1.340   3.724 -0.2051 -0.5585 -0.3264
  104MOL   C12322989   5.802   1.573   3.406 -0.0718 -0.2864  0.7509
  104MOL   C12422990   5.788   1.692   3.509 -0.1711 -0.2994  0.6537
  104MOL   C12522991   5.680   1.794   3.487 -1.5054 -0.0767 -0.2154
  104MOL   O12622992   5.605   1.830   3.574 -0.3801  0.0813 -0.2393
  104MOL   C12722993   5.672   1.850   3.346  0.3726  0.0565 -0.2712
  104MOL   H12822994   5.699   1.566   3.372  0.2906  2.2739 -0.9805
  104MOL   H12922995   5.861   1.599   3.318 -0.2043 -0.4475  0.6145
  104MOL   H13022996   5.737   1.634   3.586 -1.1046 -0.5097 -0.1183
  104MOL   H13122997   5.744   1.931   3.341  0.5380 -0.0782 -0.0736
  104MOL   H13222998   5.568   1.878   3.328  0.7609  1.9456  0.3110
  104MOL   H13322999   5.711   1.792   3.263  1.9626  1.4023 -0.4818
  104MOL   C13423000   5.915   1.767   3.562  0.1439  0.7153  0.3877
  104MOL   C13523001   5.926   1.773   3.722 -0.6760  0.2223 -0.7487
  104MOL   C13623002   6.004   1.653   3.777  0.1624  0.1203 -0.9382
  104MOL   O13723003   6.096   1.599   3.715  0.1041  0.0393  0.1298
  104MOL   C13823004   5.949   1.589   3.906  0.1108  1.1559 -0.4565
  104MOL   H13923005   5.931   1.866   3.517  4.0989  0.1477  0.4504
  104MOL   H14023006   5.998   1.707   3.526  0.3824  2.2999 -1.7873
  104MOL   H14123007   5.828   1.756   3.767  0.2457 -1.8633  0.5357
  104MOL   H14223008   5.990   1.489   3.920 -0.7993  0.6086 -1.5989
  104MOL   H14323009   5.841   1.588   3.890  0.1575 -1.0501 -0.8650
  104MOL   H14423010   5.980   1.645   3.994  1.1929  1.2822 -0.9137
  104MOL   C14523011   5.972   1.908   3.785  0.1758 -0.4779 -0.0555
  104MOL   C14623012   5.872   2.032   3.766 -0.1592 -0.0501 -0.5018
  104MOL   C14723013   5.754   2.014   3.864 -0.0280 -0.0059  0.3225
  104MOL   O14823014   5.763   1.986   3.983  0.0460  0.2674 -0.3049
  104MOL   C14923015   5.618   2.039   3.799 -0.5873 -0.2206  0.2125
  104MOL   H15023016   6.074   1.923   3.750  0.7666 -3.9910 -0.0531
  104MOL   H15123017   5.978   1.909   3.893 -0.4957 -2.2401  0.0162
  104MOL   H15223018   5.833   2.027   3.664 -1.2505  1.7063 -0.1937
  104MOL   H15323019   5.582   1.957   3.738  1.1475 -0.2143 -0.8410
  104MOL   H15423020   5.549   2.087   3.869 -0.3459 -2.0467  1.7375
  104MOL   H15523021   5.625   2.118   3.724 -0.7522  3.8306  4.1807
  104MOL   C15623022   5.930   2.173   3.776  0.9455 -0.5275 -0.4149
  104MOL   C15723023   5.949   2.249   3.637 -0.0491 -0.6316 -0.5194
  104MOL   C15823024   6.038   2.169   3.544  0.5656  0.7231  0.4164
  104MOL   O15923025   6.148   2.127   3.581  0.5047 -0.5124  0.1078
  104MOL   C16023026   5.991   2.125   3.413 -0.9077 -0.0243 -0.5884
  104MOL   H16123027   5.884   2.236   3.851  3.8917 -0.9855  1.8918
  104MOL   H16223028   6.032   2.174   3.816  0.6185  0.2567  0.4147
  104MOL   H16323029   5.853   2.253   3.585  0.3105  1.2426 -1.0746
  104MOL   H16423030   6.066   2.069   3.357  0.8095  1.5866  0.0175
  104MOL   H16523031   5.967   2.216   3.358 -0.2427  1.7557  1.9515
  104MOL   H16623032   5.906   2.059   3.428 -1.1847  0.2678 -0.8725
  104MOL   C16723033   5.987   2.400   3.653  1.2665  0.1966  0.7522
  104MOL   C16823034   6.129   2.428   3.715  0.2199  0.7490  0.0097
  104MOL   C16923035   6.119   2.464   3.864  0.0496  0.7073  0.6400
  104MOL   O17023036   6.129   2.377   3.951  0.0505  0.3222 -0.1598
  104MOL   C17123037   6.090   2.609   3.899  0.5140  0.8845 -0.0798
  104MOL   H17223038   5.979   2.442   3.553  0.7078 -0.5457  0.4787
  104MOL   H17323039   5.907   2.448   3.708  0.3784 -0.7523  0.3196
  104MOL   H17423040   6.169   2.327   3.708 -1.3965  0.1142 -0.2643
  104MOL   H17523041   6.128   2.682   3.828 -0.2843  0.5191 -0.9050
  104MOL   H17623042   6.140   2.638   3.991  1.3042  0.9103 -0.5144
  104MOL   H17723043   5.981   2.617   3.898  0.5804  2.3237  1.7507
  104MOL   C17823044   6.235   2.513   3.634 -0.1530 -0.9824  0.0432
  104MOL   C17923045   6.378   2.507   3.674 -0.5912  0.3447  0.0827
  104MOL   C18023046   6.447   2.616   3.585  1.2305  0.5089  0.4746
  104MOL   O18123047   6.484   2.592   3.467 -0.7145 -0.1728  0.3159
  104MOL   C18223048   6.450   2.760   3.635 -0.1437  0.2797 -0.1459
  104MOL   H18323049   6.233   2.494   3.527 -0.8717  0.5783 -0.2333
  104MOL   H18423050   6.207   2.618   3.638 -0.6803 -1.0437 -1.7369
  104MOL   H18523051   6.384   2.552   3.773 -0.8869  0.8318 -0.1181
  104MOL   H18623052   6.471   2.768   3.742 -0.0801  0.2943 -0.1602
  104MOL   H18723053   6.359   2.815   3.612  0.2195  1.3165  0.8489
  104MOL   H18823054   6.523   2.824   3.587 -0.1221 -0.9851 -1.8519
  104MOL   C18923055   6.443   2.362   3.658  0.8683 -0.6290  0.5624
  104MOL   C19023056   6.586   2.345   3.687 -0.1623 -0.0441 -0.5121
  104MOL   C19123057   6.612   2.338   3.839  0.0947  0.3714  0.7438
  104MOL   O19223058   6.518   2.325   3.918 -0.7574  0.0408  0.8074
  104MOL   C19323059   6.757   2.327   3.884 -0.6425  0.0202  0.2466
  104MOL   H19423060   6.377   2.292   3.708 -0.6926 -0.2782 -0.9617
  104MOL   H19523061   6.424   2.329   3.556 -1.6818  0.5117  0.6441
  104MOL   H19623062   6.642   2.429   3.647 -0.2483  0.6124  0.7398
  104MOL   H19723063   6.826   2.349   3.802 -0.4941 -0.1637  0.3220
  104MOL   H19823064   6.769   2.410   3.953 -0.3396 -0.2250  0.4883
  104MOL   H19923065   6.770   2.232   3.934  0.1735 -0.1499 -0.2655
  104MOL   C20023066   6.644   2.212   3.628 -0.2792  0.5757  0.6353
  104MOL   C20123067   6.600   2.074   3.685  0.2403  0.8948  0.7511
  104MOL   C20223068   6.713   1.961   3.686 -0.1093  0.6907  0.5640
  104MOL   O20323069   6.751   1.902   3.584  0.0919 -0.2064 -0.1699
  104MOL   C20423070   6.788   1.940   3.821  0.5442  0.0805  0.3838
  104MOL   H20523071   6.616   2.210   3.522 -0.4255  0.4166  0.6768
  104MOL   H20623072   6.751   2.230   3.634  0.0058 -1.1029  0.6649
  104MOL   H20723073   6.568   2.083   3.789 -3.1570 -0.3765 -0.1113
  104MOL   H20823074   6.859   2.023   3.826  0.9329 -0.1569 -1.1418
  104MOL   H20923075   6.709   1.933   3.896  1.1182 -2.3264  0.7906
  104MOL   H21023076   6.847   1.849   3.828  0.4119 -0.2825 -2.5951
  104MOL   C21123077   6.473   2.022   3.604  0.3578 -0.1742  0.6517
  104MOL   C21223078   6.395   1.896   3.656  0.1699 -0.2603  0.3203
  104MOL   C21323079   6.416   1.764   3.579 -0.2695 -0.9455 -0.1567
  104MOL   O21423080   6.477   1.663   3.622  0.2669 -0.0175 -0.2173
  104MOL   C21523081   6.370   1.776   3.430 -0.3142  0.6159 -0.2908
  104MOL   H21623082   6.396   2.098   3.593  1.0560  0.0905 -3.2828
  104MOL   H21723083   6.496   2.011   3.498 -1.2646  0.7413  0.1985
  104MOL   H21823084   6.290   1.919   3.641  0.5632  1.5399  0.1469
  104MOL   H21923085   6.266   1.744   3.426 -0.3148  0.7840 -1.6668
  104MOL   H22023086   6.377   1.875   3.385 -0.8876  1.1272  0.7070
  104MOL   H22123087   6.421   1.702   3.370 -2.0103 -1.4422  0.7506
  104MOL   H22223088   6.416   1.889   3.762 -0.6750  2.4135  0.7057
  105MOL     C123089   5.312   5.963   0.616  0.6756  0.2450 -0.2490
  105MOL     C223090   5.370   6.001   0.481 -0.4218  0.1335 -0.1544
  105MOL     C323091   5.479   5.899   0.454 -0.3444  0.6265  0.8101
  105MOL     O423092   5.464   5.815   0.365 -0.5467 -0.4802 -0.3538
  105MOL     C523093   5.610   5.908   0.536 -0.3242  0.5106 -0.5443
  105MOL     H623094   5.242   6.038   0.652  0.8567 -0.1464  0.9588
  105MOL     H723095   5.392   5.950   0.689  0.7517 -0.6674 -0.4878
  105MOL     H823096   5.404   6.104   0.481 -1.5773  0.5244  1.0691
  105MOL     H923097   5.673   5.824   0.507  2.5022  2.2415  0.4150
  105MOL    H1023098   5.654   6.006   0.514 -1.5376  0.7416 -2.0380
  105MOL    H1123099   5.594   5.902   0.643  3.2589  0.2014  0.0460
  105MOL    H1223100   5.249   5.874   0.610  0.2479  0.4737  0.6164
  105MOL    C1323101   5.262   6.006   0.364  0.6019  0.2542 -0.4463
  105MOL    C1423102   5.308   6.081   0.237 -0.1486 -0.2316 -0.4270
  105MOL    C1523103   5.258   6.224   0.221  0.6927  0.2624  0.1792
  105MOL    O1623104   5.152   6.246   0.165  0.1367 -0.4400 -0.0989
  105MOL    C1723105   5.357   6.332   0.252  0.2777  0.6758  0.7019
  105MOL    H1823106   5.227   5.905   0.343  0.5217  0.2541 -0.3127
  105MOL    H1923107   5.182   6.056   0.418  0.0012 -0.8397 -0.2974
  105MOL    H2023108   5.416   6.096   0.240 -0.2092  0.2340 -0.4327
  105MOL    H2123109   5.304   6.421   0.287 -1.3303 -0.4337  1.1671
  105MOL    H2223110   5.417   6.281   0.327 -1.5164 -2.7047 -0.0641
  105MOL    H2323111   5.420   6.354   0.166  0.4191  0.4596  0.7524
  105MOL    C2423112   5.278   5.998   0.112 -0.0506  0.3861 -0.3495
  105MOL    C2523113   5.316   6.056   7.833  0.1571  0.1616  0.7755
  105MOL    C2623114   5.468   6.035   7.804  0.0295 -0.2046 -0.2804
  105MOL    O2723115   5.519   5.926   7.785  0.0645  0.8580  0.3146
  105MOL    C2823116   5.548   6.166   7.800  1.0574  1.0378  0.5352
  105MOL    H2923117   5.331   5.903   0.127 -1.3560 -0.6568 -2.1869
  105MOL    H3023118   5.173   5.971   0.105  0.0632  0.5208 -3.2181
  105MOL    H3123119   5.287   6.161   7.841 -0.3577 -0.0213  1.3768
  105MOL    H3223120   5.644   6.145   7.847  1.2129  1.6240  0.4782
  105MOL    H3323121   5.564   6.201   7.698 -1.6816 -0.1536 -0.3831
  105MOL    H3423122   5.492   6.245   7.850 -1.0370  0.0199 -0.1390
  105MOL    C3523123   5.223   6.008   7.722  0.2275 -0.2347  0.2640
  105MOL    C3623124   5.099   6.094   7.706  0.0723  0.2229  0.2548
  105MOL    C3723125   5.139   6.225   7.637 -0.3821  0.2547  0.0144
  105MOL    O3823126   5.220   6.230   7.545 -0.0470  0.5001 -0.2582
  105MOL    C3923127   5.066   6.344   7.679 -0.1304  1.1296  0.4871
  105MOL    H4023128   5.206   5.900   7.732  0.2590 -0.2129  0.5740
  105MOL    H4123129   5.282   6.016   7.631 -0.1040  0.2136  0.0904
  105MOL    H4223130   5.061   6.114   7.806  0.3435 -0.3625  0.4754
  105MOL    H4323131   5.106   6.361   7.780  1.5899 -0.1616  0.0539
  105MOL    H4423132   4.960   6.325   7.670  0.0159  1.1420 -1.4727
  105MOL    H4523133   5.101   6.432   7.625 -0.7240  0.2152 -1.4305
  105MOL    C4623134   4.985   6.037   7.618 -0.1453 -0.2563 -0.1350
  105MOL    C4723135   4.920   5.915   7.689 -0.4549 -0.0667  0.0197
  105MOL    C4823136   4.833   5.945   7.808  0.2676  0.1273  0.6098
  105MOL    O4923137   4.726   6.012   7.794 -0.1070 -0.1273 -0.2437
  105MOL    C5023138   4.883   5.903   0.087  1.0461  0.0541 -0.0391
  105MOL    H5123139   5.017   6.018   7.516  0.3470 -0.8278  0.1238
  105MOL    H5223140   4.898   6.102   7.604 -0.0119  0.1195  0.7536
  105MOL    H5323141   4.993   5.841   7.723  0.1498 -0.0166 -1.1504
  105MOL    H5423142   4.937   5.810   0.071  1.1038  0.2632 -1.1226
  105MOL    H5523143   4.944   5.986   0.125  0.7684  0.4775 -0.5025
  105MOL    H5623144   4.789   5.886   0.139  1.2400  0.6162  0.5008
  105MOL    C5723145   4.835   5.835   7.598  0.2160 -0.0932  0.8773
  105MOL    C5823146   4.732   5.909   7.504  0.1801 -0.7664  0.5072
  105MOL    C5923147   4.783   5.908   7.360 -0.5395  0.2905  0.5560
  105MOL    O6023148   4.772   5.808   7.288  0.1761 -0.6644 -0.1254
  105MOL    C6123149   4.841   6.039   7.312 -0.5413  0.2061  0.0939
  105MOL    H6223150   4.784   5.750   7.644  1.2484 -0.5106  1.2637
  105MOL    H6323151   4.903   5.778   7.534 -0.5397  0.9001 -0.8469
  105MOL    H6423152   4.724   6.010   7.543 -0.6252 -0.7652  0.3496
  105MOL    H6523153   4.950   6.025   7.310 -0.4992  0.2757  1.7871
  105MOL    H6623154   4.804   6.053   7.210  0.1826  0.3195 -0.1651
  105MOL    H6723155   4.809   6.119   7.378 -0.7455 -2.1868  2.9600
  105MOL    C6823156   4.591   5.849   7.513 -0.1121  0.1429  0.5193
  105MOL    C6923157   4.469   5.924   7.456 -0.1305  0.5685 -0.4699
  105MOL    C7023158   4.430   6.035   7.550  0.7045  0.2985 -0.1236
  105MOL    O7123159   4.338   6.020   7.629  0.5882  0.0730  0.0543
  105MOL    C7223160   4.505   6.164   7.538  0.1269  0.0351  0.1678
  105MOL    H7323161   4.605   5.747   7.477  3.3141 -0.0971  2.3026
  105MOL    H7423162   4.568   5.816   7.614 -0.1411 -1.3206  0.0484
  105MOL    H7523163   4.490   5.968   7.359  0.0700  1.0705 -0.2022
  105MOL    H7623164   4.538   6.196   7.637  1.6920 -1.1691  0.0626
  105MOL    H7723165   4.596   6.147   7.480  0.6104 -1.3747  1.3294
  105MOL    H7823166   4.448   6.245   7.493  0.2269 -0.0141 -0.0493
  105MOL    C7923167   4.352   5.825   7.416 -0.2922  0.2768 -0.4479
  105MOL    C8023168   4.288   5.727   7.521  0.3335 -0.0656 -0.9041
  105MOL    C8123169   4.377   5.602   7.538 -0.1897 -0.0527 -0.2917
  105MOL    O8223170   4.468   5.590   7.619 -0.2217 -0.1484 -0.4049
  105MOL    C8323171   4.349   5.487   7.432 -0.6125 -0.3958 -0.0809
  105MOL    H8423172   4.387   5.771   7.328 -0.0240  0.9518 -0.7577
  105MOL    H8523173   4.270   5.883   7.374  0.2781  1.1017 -0.4392
  105MOL    H8623174   4.292   5.769   7.622 -1.1297 -1.6231 -0.1777
  105MOL    H8723175   4.384   5.525   7.336  0.7700 -0.6255  0.3210
  105MOL    H8823176   4.248   5.446   7.434 -0.9288  0.4250  0.9736
  105MOL    H8923177   4.403   5.399   7.466 -2.1034 -1.3810 -0.2013
  105MOL    C9023178   4.142   5.696   7.501 -0.1153 -0.6068  0.1978
  105MOL    C9123179   4.069   5.605   7.606 -0.4475  0.5196  0.1598
  105MOL    C9223180   4.025   5.688   7.731  0.1118  0.4553 -0.1445
  105MOL    O9323181   3.961   5.792   7.720  0.3178  0.4074  0.2810
  105MOL    C9423182   4.088   5.651   0.005 -0.4522 -0.2250 -0.7186
  105MOL    H9523183   4.094   5.793   7.490  0.8649  0.1697  2.4136
  105MOL    H9623184   4.145   5.646   7.404  0.9677  0.1252 -0.1524
  105MOL    H9723185   4.133   5.525   7.642 -3.3627 -1.6546  0.6571
  105MOL    H9823186   4.173   5.716   0.023 -0.1535 -0.6697 -0.5324
  105MOL    H9923187   4.010   5.658   0.081 -0.1566 -0.9210 -0.3480
  105MOL   H10023188   4.121   5.547   0.002 -1.1518 -0.5354  1.2178
  105MOL   C10123189   3.947   5.550   7.532 -0.1537  0.4716  0.6534
  105MOL   C10223190   3.873   5.436   7.604 -0.1451  0.2504 -0.8409
  105MOL   C10323191   3.961   5.323   7.663  0.1828  0.3822  0.1194
  105MOL   O10423192   4.065   5.280   7.606 -0.3761 -0.1132  0.2377
  105MOL   C10523193   3.915   5.247   7.794  0.1282  0.1602  0.6437
  105MOL   H10623194   3.876   5.627   7.502  0.2516  0.5426 -0.1263
  105MOL   H10723195   3.982   5.514   7.435 -3.4891  2.2152 -1.2913
  105MOL   H10823196   3.821   5.483   7.687 -0.6610  2.4664 -2.3807
  105MOL   H10923197   3.832   5.179   7.773  2.0840 -1.5381 -1.8817
  105MOL   H11023198   4.004   5.197   7.831  1.1781 -0.8808 -3.0226
  105MOL   H11123199   3.880   5.322   0.007  0.4721  2.0491 -1.1499
  105MOL   C11223200   3.765   5.377   7.499  0.1541  0.3878 -0.8877
  105MOL   C11323201   3.662   5.273   7.555  0.1045  0.7806 -0.5636
  105MOL   C11423202   3.566   5.231   7.444  0.0410  1.2412  0.3617
  105MOL   O11523203   3.452   5.271   7.426  0.2227  0.2301  0.0314
  105MOL   C11623204   3.629   5.124   7.349  0.1988 -0.2948  0.3309
  105MOL   H11723205   3.816   5.337   7.412  2.1960  0.3034  0.3125
  105MOL   H11823206   3.709   5.462   7.460  0.5392  0.1959 -1.8816
  105MOL   H11923207   3.707   5.181   7.593  0.5872  0.3117 -2.1910
  105MOL   H12023208   3.735   5.115   7.375  0.0047 -0.2397  1.1654
  105MOL   H12123209   3.589   5.025   7.369 -0.3812 -0.1037  0.1092
  105MOL   H12223210   3.613   5.158   7.247  0.1755  0.3590  0.5533
  105MOL   C12323211   3.584   5.324   7.677 -0.3609  0.4573 -0.4357
  105MOL   C12423212   3.491   5.227   7.754  0.0484 -0.3635  0.1525
  105MOL   C12523213   3.381   5.317   7.813  0.2709  0.4057  0.3096
  105MOL   O12623214   3.380   5.374   0.062  0.1591 -0.3950  0.3774
  105MOL   C12723215   3.259   5.346   7.722 -0.2723 -0.2706 -0.3549
  105MOL   H12823216   3.529   5.412   7.641 -1.7090 -0.4266 -0.5627
  105MOL   H12923217   3.649   5.379   7.745 -0.1393  2.5060 -2.2077
  105MOL   H13023218   3.462   5.148   7.685  0.9413 -0.7791  0.2405
  105MOL   H13123219   3.221   5.257   7.673 -2.8434  0.1649  0.7322
  105MOL   H13223220   3.287   5.413   7.641 -2.9647  0.2013 -0.9456
  105MOL   H13323221   3.182   5.401   7.776 -0.6120 -0.6619 -0.4368
  105MOL   C13423222   3.555   5.143   0.010  0.3809 -0.0741  0.1254
  105MOL   C13523223   3.453   5.024   0.056  0.6443 -0.1694 -0.3368
  105MOL   C13623224   3.433   4.909   7.814 -0.1322 -0.2697 -0.4467
  105MOL   O13723225   3.517   4.891   7.734 -0.6170 -0.0102 -0.2026
  105MOL   C13823226   3.305   4.830   7.808  0.0593  0.2132  0.1094
  105MOL   H13923227   3.587   5.209   0.090  3.3846 -1.3308  0.0293
  105MOL   H14023228   3.641   5.088   7.830  0.3167 -0.5666  0.6924
  105MOL   H14123229   3.361   5.081   0.063 -0.0977 -1.4209  0.2349
  105MOL   H14223230   3.244   4.837   0.041 -0.0548  0.8728 -0.0094
  105MOL   H14323231   3.330   4.725   7.795 -1.1079  0.0398 -0.7585
  105MOL   H14423232   3.236   4.869   7.733  0.4020 -1.2656 -0.9907
  105MOL   C14523233   3.481   4.956   0.194  0.0649 -0.4466 -0.6578
  105MOL   C14623234   3.481   5.062   0.317  0.3135  0.2829  0.3522
  105MOL   C14723235   3.347   5.137   0.335 -0.0246 -0.1685  0.3702
  105MOL   O14823236   3.240   5.078   0.331  0.1906  0.2011  0.3048
  105MOL   C14923237   3.368   5.291   0.364 -0.6995  0.0493  0.4471
  105MOL   H15023238   3.575   4.902   0.191  0.1917 -0.1563 -2.5001
  105MOL   H15123239   3.412   4.875   0.218  1.1175 -2.0172 -2.8062
  105MOL   H15223240   3.563   5.128   0.289  1.4068 -0.2673  2.1444
  105MOL   H15323241   3.455   5.334   0.314 -0.6748 -1.4679 -0.8480
  105MOL   H15423242   3.284   5.339   0.314  0.3425 -0.3824 -1.7679
  105MOL   H15523243   3.362   5.315   0.470  1.2907 -0.2503  0.6300
  105MOL   C15623244   3.516   4.985   0.449  0.4001  0.1550 -0.6232
  105MOL   C15723245   3.562   5.062   0.576 -0.1829  0.3251  0.6253
  105MOL   C15823246   3.676   5.162   0.546  0.5089 -0.9041  0.3169
  105MOL   O15923247   3.728   5.167   0.435 -0.0719 -0.3552 -0.0654
  105MOL   C16023248   3.723   5.240   0.665 -0.3730 -0.0696 -0.2443
  105MOL   H16123249   3.427   4.926   0.473  1.9091 -1.8703  0.1213
  105MOL   H16223250   3.599   4.916   0.437  1.3575  1.5251 -1.9322
  105MOL   H16323251   3.476   5.122   0.603 -1.0515  0.7748 -2.9038
  105MOL   H16423252   3.643   5.301   0.706  0.5291  0.8574  0.1478
  105MOL   H16523253   3.797   5.314   0.633  1.5211 -1.5686  0.5300
  105MOL   H16623254   3.766   5.173   0.739 -1.0047 -0.8291 -0.5507
  105MOL   C16723255   3.577   4.969   0.700 -0.2469  0.3667 -0.5632
  105MOL   C16823256   3.711   4.896   0.728  0.3052  0.1318 -0.5496
  105MOL   C16923257   3.717   4.770   0.637  1.0348 -0.3937  0.1284
  105MOL   O17023258   3.789   4.767   0.536  0.3001 -0.2139 -0.2538
  105MOL   C17123259   3.641   4.648   0.684 -0.0599  0.1714  0.0505
  105MOL   H17223260   3.569   5.038   0.783 -0.6245 -0.1573 -0.1632
  105MOL   H17323261   3.501   4.892   0.715  1.3689 -1.6329 -2.1872
  105MOL   H17423262   3.790   4.966   0.698  1.5970 -0.4976  1.3481
  105MOL   H17523263   3.686   4.587   0.762 -1.1558  0.9346  1.3221
  105MOL   H17623264   3.628   4.588   0.595 -0.1762 -2.0532  1.5413
  105MOL   H17723265   3.542   4.678   0.719 -0.1258 -1.9353  1.7972
  105MOL   C17823266   3.731   4.873   0.877 -0.0681  0.3611  0.2973
  105MOL   C17923267   3.879   4.888   0.927  0.1446  0.0995 -0.5297
  105MOL   C18023268   3.957   4.764   0.874  0.0592  0.0075 -0.1580
  105MOL   O18123269   4.012   4.768   0.764  0.2043  0.2783  0.4245
  105MOL   C18223270   3.951   4.637   0.955 -0.3884  0.5611 -0.0324
  105MOL   H18323271   3.669   4.930   0.945  1.9670  0.1294  2.4268
  105MOL   H18423272   3.688   4.775   0.900  1.6069 -0.6484 -0.7490
  105MOL   H18523273   3.923   4.973   0.874  0.6997  0.4639  0.5085
  105MOL   H18623274   3.860   4.578   0.943 -0.0030  0.2370 -1.4771
  105MOL   H18723275   3.965   4.661   1.060  0.6698 -0.8114  0.1470
  105MOL   H18823276   4.028   4.566   0.927 -2.4954 -0.8984 -2.3797
  105MOL   C18923277   3.893   4.917   1.075  0.9853 -0.1978 -0.0421
  105MOL   C19023278   4.026   4.939   1.149 -0.8827  0.2859 -0.1683
  105MOL   C19123279   4.110   5.041   1.068  0.0985 -0.3985  0.4240
  105MOL   O19223280   4.054   5.123   0.994 -0.2632 -0.4341 -0.2587
  105MOL   C19323281   4.261   5.035   1.083  0.0834  0.4551 -0.8071
  105MOL   H19423282   3.824   5.000   1.088  0.9685 -0.3774  1.0599
  105MOL   H19523283   3.844   4.839   1.133  0.1770 -1.1018 -1.9335
  105MOL   H19623284   4.087   4.850   1.168  0.9334  1.5706  0.1199
  105MOL   H19723285   4.298   5.093   1.168  2.3357 -1.3336 -0.5171
  105MOL   H19823286   4.290   4.932   1.102  1.7151  0.8162 -1.1987
  105MOL   H19923287   4.321   5.074   1.000 -1.3146 -1.4121 -2.7158
  105MOL   C20023288   3.989   4.994   1.291 -0.4042  0.1193  0.6630
  105MOL   C20123289   4.095   5.009   1.401 -0.3227 -0.1949  0.3437
  105MOL   C20223290   4.144   4.873   1.450 -0.1495  0.5432 -0.0591
  105MOL   O20323291   4.100   4.766   1.406  0.2827 -0.1521  0.2626
  105MOL   C20423292   4.246   4.878   1.570  0.6970 -0.0892  0.3896
  105MOL   H20523293   3.948   5.093   1.272  1.3815  1.0341  1.4608
  105MOL   H20623294   3.907   4.932   1.328 -0.3965  0.0053  0.4887
  105MOL   H20723295   4.192   5.051   1.372 -2.3506  2.6019 -2.6374
  105MOL   H20823296   4.342   4.920   1.542  0.1929 -0.0373 -1.3233
  105MOL   H20923297   4.201   4.937   1.651  1.6205 -0.2454  1.0225
  105MOL   H21023298   4.267   4.777   1.604  0.6273  0.4293  2.0075
  105MOL   C21123299   4.045   5.100   1.512  0.3879  0.0348 -0.5143
  105MOL   C21223300   3.925   5.056   1.595 -0.1850  0.0366  0.7671
  105MOL   C21323301   3.890   5.138   1.721  0.4022 -0.0085  0.6204
  105MOL   O21423302   3.958   5.240   1.755  0.6019  0.0197  0.3867
  105MOL   C21523303   3.772   5.083   1.793  0.2372  0.9543 -0.1247
  105MOL   H21623304   4.131   5.118   1.577  0.1330 -0.5193 -0.0313
  105MOL   H21723305   4.027   5.204   1.484 -0.0616 -0.3539 -1.7170
  105MOL   H21823306   3.935   4.952   1.626 -0.0809 -0.0431  0.4653
  105MOL   H21923307   3.734   5.170   1.847 -2.1013 -1.1557  1.7352
  105MOL   H22023308   3.692   5.053   1.726 -0.3205 -0.4371  1.1450
  105MOL   H22123309   3.788   4.999   1.861 -0.9351 -0.7201 -1.8842
  105MOL   H22223310   3.838   5.054   1.529 -0.3746  0.9151  0.9844
  106MOL     C123311   6.756   1.772   5.676 -0.0782 -0.0120  0.3806
  106MOL     C223312   6.888   1.764   5.601  0.0099 -1.0587  0.2233
  106MOL     C323313   6.960   1.896   5.592  1.3369 -0.7467 -0.5289
  106MOL     O423314   7.068   1.914   5.645 -0.1999  0.4823 -0.3756
  106MOL     C523315   6.890   2.000   5.514 -0.2798  1.0244  0.3801
  106MOL     H623316   6.676   1.821   5.621  0.6258  1.0746  0.2930
  106MOL     H723317   6.767   1.831   5.768 -0.7948  0.1075  0.3875
  106MOL     H823318   6.872   1.723   5.502  0.8716  0.4374 -0.5556
  106MOL     H923319   6.887   1.967   5.410  0.0391  2.4472 -0.0926
  106MOL    H1023320   6.788   2.004   5.554 -0.7032  0.0844 -0.5642
  106MOL    H1123321   6.941   2.095   5.532 -0.0810  0.8292  0.8612
  106MOL    H1223322   6.723   1.673   5.707 -0.3410  0.1737  0.6969
  106MOL    C1323323   6.975   1.657   5.665 -0.2362  0.1861 -0.3542
  106MOL    C1423324   7.111   1.624   5.594  0.1060 -0.2257 -0.0610
  106MOL    C1523325   7.102   1.567   5.453 -1.0675 -0.1581 -0.6539
  106MOL    O1623326   7.084   1.448   5.429 -0.0557 -0.1888  0.1421
  106MOL    C1723327   7.104   1.673   5.346  0.4807  0.0004  0.5028
  106MOL    H1823328   7.001   1.682   5.768  0.3102 -2.4525  0.1909
  106MOL    H1923329   6.912   1.568   5.663  2.8528 -2.0701 -1.7923
  106MOL    H2023330   7.174   1.713   5.590 -0.6317  0.2207 -2.4743
  106MOL    H2123331   7.137   1.620   5.257  0.6485  0.1958  0.4473
  106MOL    H2223332   7.002   1.704   5.323  0.0611 -0.9714  1.0325
  106MOL    H2323333   7.161   1.762   5.373 -0.6708  0.6165  0.9297
  106MOL    C2423334   7.209   1.541   5.689  0.3256 -0.5996 -0.3613
  106MOL    C2523335   7.355   1.533   5.621  0.1716 -0.2741  0.5627
  106MOL    C2623336   7.458   1.630   5.680 -0.1415 -0.8688 -0.3730
  106MOL    O2723337   7.475   1.743   5.631 -0.3244  0.2331 -0.3395
  106MOL    C2823338   7.536   1.590   5.804  0.4420  0.5331 -0.0252
  106MOL    H2923339   7.219   1.580   5.790  1.3627 -0.0964 -0.6521
  106MOL    H3023340   7.160   1.446   5.707  1.0105 -0.7185  0.8890
  106MOL    H3123341   7.353   1.550   5.513  2.4090 -1.7227  0.2464
  106MOL    H3223342   7.626   1.536   5.774 -0.0449  0.1220 -0.7722
  106MOL    H3323343   7.562   1.677   5.864 -1.4188  0.5625  0.7676
  106MOL    H3423344   7.467   1.523   5.856 -0.4246 -0.3355 -2.2221
  106MOL    C3523345   7.410   1.391   5.613 -0.0695  0.4752 -0.0772
  106MOL    C3623346   7.516   1.370   5.499  0.2373 -0.2933 -0.2921
  106MOL    C3723347   7.596   1.241   5.538  0.1435  0.2957  0.2594
  106MOL    O3823348   7.547   1.132   5.563  0.0233  0.4461 -0.4203
  106MOL    C3923349   7.739   1.245   5.530 -0.4948  0.6891  0.4945
  106MOL    H4023350   7.326   1.326   5.589  1.2253 -1.2577  0.0045
  106MOL    H4123351   7.431   1.346   5.711 -0.4624  1.8194  0.6388
  106MOL    H4223352   7.588   1.452   5.501  0.0071 -0.0979  0.0574
  106MOL    H4323353   7.781   1.316   5.602  1.0292  0.0264  0.2956
  106MOL    H4423354   7.762   1.272   5.426  0.6458 -0.7982  0.3322
  106MOL    H4523355   7.787   1.152   5.560 -0.9572  0.1263 -0.4773
  106MOL    C4623356   7.445   1.356   5.358 -0.7085  0.3150 -0.6848
  106MOL    C4723357   7.524   1.294   5.237  0.1005  0.8295 -0.0295
  106MOL    C4823358   7.517   1.137   5.233 -0.0298 -0.9127 -0.2096
  106MOL    O4923359   7.405   1.083   5.253  0.2649 -0.1757  0.5235
  106MOL    C5023360   7.648   1.062   5.213 -0.2468  0.2697 -0.2341
  106MOL    H5123361   7.402   1.452   5.328 -0.1837  0.9904  0.6846
  106MOL    H5223362   7.354   1.297   5.367 -0.3838 -0.0943 -0.0624
  106MOL    H5323363   7.626   1.318   5.267  0.5433  2.6604 -2.7987
  106MOL    H5423364   7.691   1.062   5.313 -0.5864  1.0376 -0.0852
  106MOL    H5523365   7.620   0.966   5.171 -1.5026  0.4208  0.2096
  106MOL    H5623366   7.724   1.114   5.156  0.7379 -1.9304 -0.9772
  106MOL    C5723367   7.504   1.360   5.099  0.4492  0.5436  0.4900
  106MOL    C5823368   7.382   1.309   5.015  0.2536 -0.3491 -0.3590
  106MOL    C5923369   7.245   1.334   5.079 -0.0464  0.3617 -0.5866
  106MOL    O6023370   7.216   1.442   5.123  0.2833  0.7630  0.2408
  106MOL    C6123371   7.143   1.224   5.080  0.3754  0.7276  0.3737
  106MOL    H6223372   7.596   1.338   5.043 -0.0874  0.1719 -0.2642
  106MOL    H6323373   7.509   1.469   5.102  0.5873  0.5286  0.8171
  106MOL    H6423374   7.383   1.200   5.004 -0.7220 -0.2768 -1.2389
  106MOL    H6523375   7.187   1.127   5.099 -0.3222  0.3346 -0.0175
  106MOL    H6623376   7.069   1.237   5.160  0.7248  0.8899  0.6729
  106MOL    H6723377   7.081   1.219   4.991 -0.9902 -0.0171  1.3501
  106MOL    C6823378   7.389   1.353   4.864  0.0928 -0.3667  0.2358
  106MOL    C6923379   7.278   1.298   4.769 -0.3172 -0.0263  0.0909
  106MOL    C7023380   7.290   1.146   4.736 -0.1946  0.4448 -0.4577
  106MOL    O7123381   7.374   1.075   4.795 -0.0249  0.4633  0.4424
  106MOL    C7223382   7.201   1.080   4.629 -0.4065  0.8898  0.2895
  106MOL    H7323383   7.405   1.461   4.861  1.9371 -0.5541  2.2502
  106MOL    H7423384   7.482   1.313   4.824 -0.0433  0.1384 -0.6148
  106MOL    H7523385   7.181   1.318   4.814 -0.7652 -2.7602  0.4560
  106MOL    H7623386   7.101   1.124   4.625  0.0676  1.8681 -1.2257
  106MOL    H7723387   7.232   1.081   4.524 -0.7357  1.5479  0.1966
  106MOL    H7823388   7.179   0.979   4.664 -1.7789  1.4116  0.9486
  106MOL    C7923389   7.282   1.383   4.641 -0.1353 -0.6179  0.4045
  106MOL    C8023390   7.250   1.533   4.629 -0.2002  0.0988 -0.0784
  106MOL    C8123391   7.101   1.553   4.634  0.2618  0.3067 -0.1697
  106MOL    O8223392   7.030   1.533   4.534 -0.1960 -0.2458 -0.7805
  106MOL    C8323393   7.033   1.583   4.768 -0.5883 -0.0588 -0.0401
  106MOL    H8423394   7.217   1.338   4.565  0.0575  0.5113 -0.4380
  106MOL    H8523395   7.376   1.371   4.587  0.4726  2.4646  0.6941
  106MOL    H8623396   7.300   1.577   4.716  2.8891  2.6644 -3.0307
  106MOL    H8723397   7.066   1.509   4.840 -0.9607 -0.5463 -0.3647
  106MOL    H8823398   6.925   1.573   4.759 -0.6585  2.2742 -2.1863
  106MOL    H8923399   7.057   1.680   4.810 -1.3580 -0.1768  0.6776
  106MOL    C9023400   7.316   1.608   4.508 -0.0100  0.0105 -0.9349
  106MOL    C9123401   7.301   1.763   4.516 -0.0523  0.4060 -0.1622
  106MOL    C9223402   7.400   1.829   4.616 -0.1411  0.4780  0.3979
  106MOL    O9323403   7.366   1.865   4.730  0.1910  0.2119  0.0214
  106MOL    C9423404   7.537   1.856   4.571 -0.0896 -0.1345  0.8056
  106MOL    H9523405   7.421   1.578   4.512  0.6867  2.1987 -1.8041
  106MOL    H9623406   7.277   1.576   4.411  0.0543 -1.2252 -0.5580
  106MOL    H9723407   7.208   1.789   4.566  0.6377 -1.9251  2.4734
  106MOL    H9823408   7.539   1.924   4.486 -1.0335  0.4217  1.2188
  106MOL    H9923409   7.606   1.890   4.648  2.5912 -1.5820 -0.8768
  106MOL   H10023410   7.577   1.760   4.537  2.3351  0.0209  3.0911
  106MOL   C10123411   7.296   1.829   4.376  0.0509  0.8363 -0.5640
  106MOL   C10223412   7.148   1.816   4.320  0.2064  0.4025 -0.1790
  106MOL   C10323413   7.140   1.799   4.170 -0.4798  0.3662 -0.3071
  106MOL   O10423414   7.170   1.886   4.093  0.3975 -0.3171  0.3778
  106MOL   C10523415   7.106   1.666   4.113  0.1582 -0.1454  0.8203
  106MOL   H10623416   7.326   1.934   4.382  0.6663  0.6031  0.4995
  106MOL   H10723417   7.376   1.782   4.317 -2.8593 -0.3518 -3.7455
  106MOL   H10823418   7.107   1.724   4.361  1.6213 -0.1568  0.0166
  106MOL   H10923419   7.014   1.667   4.054  0.6389  0.9599  0.0660
  106MOL   H11023420   7.192   1.630   4.056 -0.9330 -2.7708  0.7280
  106MOL   H11123421   7.095   1.586   4.186  1.1168 -0.5145  0.5697
  106MOL   C11223422   7.060   1.930   4.372 -0.4565  0.2121  0.0711
  106MOL   C11323423   6.911   1.931   4.330  1.1352 -1.1683  0.2304
  106MOL   C11423424   6.857   2.077   4.312  0.0282  0.0748 -0.3052
  106MOL   O11523425   6.867   2.164   4.397 -0.0426  0.7662 -0.1610
  106MOL   C11623426   6.777   2.115   4.184  0.1426  0.1204  0.4002
  106MOL   H11723427   7.107   2.026   4.350  1.3712 -0.2525  1.8756
  106MOL   H11823428   7.067   1.945   4.480 -0.2445  0.9109 -0.0378
  106MOL   H11923429   6.889   1.893   4.230 -0.8828 -2.1421  1.0212
  106MOL   H12023430   6.831   2.086   4.094 -1.9760  1.2519 -1.2853
  106MOL   H12123431   6.694   2.045   4.175 -0.2270  1.0504 -4.6387
  106MOL   H12223432   6.734   2.214   4.197  0.8244  0.4608  0.0457
  106MOL   C12323433   6.830   1.839   4.424 -0.6752  0.5303 -0.7642
  106MOL   C12423434   6.699   1.784   4.367 -0.5537  0.6358 -0.8294
  106MOL   C12523435   6.619   1.742   4.490 -0.0643 -0.0159 -0.2055
  106MOL   O12623436   6.607   1.622   4.517  0.2171  0.0704 -0.2416
  106MOL   C12723437   6.549   1.853   4.571 -0.2077 -0.0945 -0.5077
  106MOL   H12823438   6.821   1.882   4.524  0.0455 -0.7275 -0.1545
  106MOL   H12923439   6.898   1.756   4.443 -0.2512  0.4389 -2.5948
  106MOL   H13023440   6.634   1.863   4.327 -1.2605  0.3240 -0.3158
  106MOL   H13123441   6.472   1.891   4.504 -1.1542 -1.4077 -0.1727
  106MOL   H13223442   6.617   1.936   4.590 -0.6875  0.3355 -0.6453
  106MOL   H13323443   6.498   1.824   4.662 -2.2168  2.9973 -0.5843
  106MOL   C13423444   6.707   1.678   4.252  0.7098 -0.2096 -0.5165
  106MOL   C13523445   6.573   1.640   4.183  0.2739 -0.1477 -0.1413
  106MOL   C13623446   6.509   1.763   4.113 -0.3430 -0.1360  0.1570
  106MOL   O13723447   6.571   1.867   4.102 -0.5028 -0.0881 -0.3899
  106MOL   C13823448   6.362   1.765   4.085 -0.4039  0.4810  0.2915
  106MOL   H13923449   6.760   1.592   4.295 -0.5882 -1.6268 -1.6885
  106MOL   H14023450   6.777   1.718   4.178 -0.4400  1.1729 -0.8667
  106MOL   H14123451   6.504   1.603   4.259  0.3510 -0.8513 -0.4144
  106MOL   H14223452   6.341   1.676   4.024  3.5494  0.0296 -0.5595
  106MOL   H14323453   6.330   1.856   4.035 -0.4740  0.2133 -0.1575
  106MOL   H14423454   6.312   1.752   4.181  0.2749  4.8279  1.3021
  106MOL   C14523455   6.598   1.518   4.090 -0.3774  0.2210  0.0510
  106MOL   C14623456   6.629   1.382   4.158  0.3986  0.7627  0.3942
  106MOL   C14723457   6.500   1.315   4.211 -0.3224  0.7540  0.9103
  106MOL   O14823458   6.393   1.343   4.152  0.2711 -0.1183 -0.1848
  106MOL   C14923459   6.515   1.210   4.322  0.1208 -0.0574 -0.0669
  106MOL   H15023460   6.678   1.544   4.021  0.2958 -0.2417  0.6547
  106MOL   H15123461   6.518   1.515   4.016 -0.6487 -0.1470  0.3527
  106MOL   H15223462   6.681   1.427   4.243  0.2922 -0.5855  1.1823
  106MOL   H15323463   6.558   1.254   4.412  0.5728 -0.1641 -0.2300
  106MOL   H15423464   6.413   1.180   4.346 -0.3732  1.0813 -0.6955
  106MOL   H15523465   6.580   1.126   4.297 -1.6617 -1.4461 -0.1013
  106MOL   C15623466   6.727   1.305   4.063  0.2398  0.6777 -0.0374
  106MOL   C15723467   6.814   1.195   4.129 -0.1178 -0.1007  0.0206
  106MOL   C15823468   6.923   1.239   4.225 -0.3767  0.0260 -0.0868
  106MOL   O15923469   6.987   1.342   4.200 -0.4675  0.2754  0.1142
  106MOL   C16023470   6.964   1.144   4.331 -0.1887  0.8383 -0.2029
  106MOL   H16123471   6.671   1.253   3.985 -1.7414  3.2898 -0.4760
  106MOL   H16223472   6.802   1.373   4.023  1.9831 -0.2058  1.6787
  106MOL   H16323473   6.750   1.131   4.190  2.0026 -1.4922  0.8532
  106MOL   H16423474   7.065   1.103   4.329 -1.1765 -1.5959 -1.7344
  106MOL   H16523475   6.878   1.077   4.323 -0.3840  0.9874  0.6027
  106MOL   H16623476   6.954   1.181   4.433  2.5320  0.0848  0.3734
  106MOL   C16723477   6.871   1.097   4.020  0.8191  0.1511  0.6698
  106MOL   C16823478   6.761   0.999   3.957  0.0277 -0.7181 -0.0967
  106MOL   C16923479   6.682   0.920   4.064 -0.0813  0.1450 -0.1108
  106MOL   O17023480   6.735   0.881   4.170 -0.0947 -0.3831  0.0076
  106MOL   C17123481   6.542   0.874   4.027 -0.2263  0.0428 -0.2828
  106MOL   H17223482   6.912   1.162   3.943  1.7934 -0.9867  0.2244
  106MOL   H17323483   6.957   1.043   4.059  0.3586 -1.1483 -0.0954
  106MOL   H17423484   6.689   1.068   3.914 -0.0660  0.2375  1.5742
  106MOL   H17523485   6.519   0.886   3.922  1.2552  0.3608 -0.5693
  106MOL   H17623486   6.475   0.940   4.083 -1.5530 -0.8430 -0.8021
  106MOL   H17723487   6.525   0.772   4.063 -0.8153  0.1923 -0.1245
  106MOL   C17823488   6.806   0.901   3.846  0.4147 -0.3156  0.7600
  106MOL   C17923489   6.866   0.953   3.711 -0.0113  0.0829 -0.1405
  106MOL   C18023490   6.782   1.063   3.648  0.6340  0.4784  0.2010
  106MOL   O18123491   6.819   1.175   3.631  0.2765 -0.4957  0.2663
  106MOL   C18223492   6.643   1.023   3.606 -0.3242  0.3497  0.2415
  106MOL   H18323493   6.884   0.835   3.883  1.6075  1.0885  0.7813
  106MOL   H18423494   6.729   0.831   3.814  1.2954 -0.6767 -0.6006
  106MOL   H18523495   6.964   0.992   3.737  1.1644 -3.0230  0.3092
  106MOL   H18623496   6.616   0.927   3.650 -0.6375  0.6128  0.6300
  106MOL   H18723497   6.629   1.023   3.498 -0.3751  0.3150  0.2477
  106MOL   H18823498   6.567   1.092   3.640  0.4664  2.4652 -2.1464
  106MOL   C18923499   6.891   0.849   3.599 -0.6464  0.1219 -0.2024
  106MOL   C19023500   7.008   0.873   3.502 -0.0258  0.2428 -0.0210
  106MOL   C19123501   7.150   0.870   3.573 -0.1371 -0.3978  1.0622
  106MOL   O19223502   7.160   0.844   3.693 -0.2484 -0.1224  0.3942
  106MOL   C19323503   7.275   0.888   3.486 -0.1850 -0.3020  0.4464
  106MOL   H19423504   6.901   0.756   3.655 -0.1785  0.3923  0.1628
  106MOL   H19523505   6.803   0.829   3.538  0.0673 -0.5969 -1.0196
  106MOL   H19623506   6.989   0.970   3.456 -0.2287  0.8165  1.2571
  106MOL   H19723507   7.356   0.879   3.559  0.1299 -0.6822  0.0561
  106MOL   H19823508   7.288   0.805   3.417 -0.4548 -1.1512  1.3920
  106MOL   H19923509   7.272   0.976   3.423  1.3165  0.4290  1.3695
  106MOL   C20023510   7.002   0.765   3.387  0.0456  0.1609 -0.1978
  106MOL   C20123511   6.867   0.747   3.312 -0.5240 -0.4380  0.2240
  106MOL   C20223512   6.774   0.641   3.382  0.0503  0.6721  0.8691
  106MOL   O20323513   6.816   0.537   3.429  0.0337  0.0215 -0.0979
  106MOL   C20423514   6.627   0.672   3.375 -0.7048  1.3594  0.2788
  106MOL   H20523515   7.078   0.791   3.313 -0.2630  1.1019 -0.1960
  106MOL   H20623516   7.035   0.669   3.428 -0.3521 -0.8163 -2.1444
  106MOL   H20723517   6.818   0.844   3.319 -0.9199 -0.7666  2.2886
  106MOL   H20823518   6.595   0.719   3.468  1.1165  1.6834  0.7793
  106MOL   H20923519   6.598   0.746   3.300  0.9028  0.0635 -1.6888
  106MOL   H21023520   6.569   0.581   3.363  0.6573  0.6221 -0.8394
  106MOL   C21123521   6.880   0.723   3.158 -0.4923  0.1904 -0.0861
  106MOL   C21223522   6.880   0.570   3.100  0.7747  0.0235  0.0263
  106MOL   C21323523   7.002   0.481   3.134  0.5759  0.2257 -0.3155
  106MOL   O21423524   7.112   0.530   3.158  1.0511  0.7899  0.1110
  106MOL   C21523525   6.975   0.335   3.136  0.1903  0.1942  0.2140
  106MOL   H21623526   6.805   0.776   3.099 -1.0721 -0.6447 -0.0956
  106MOL   H21723527   6.979   0.754   3.123 -0.7211  0.3668 -0.5805
  106MOL   H21823528   6.869   0.566   2.992 -1.4684 -0.7571  0.2667
  106MOL   H21923529   7.065   0.282   3.107  0.7785  1.8735 -1.1685
  106MOL   H22023530   6.937   0.294   3.229  1.5613 -0.2487  0.5827
  106MOL   H22123531   6.890   0.324   3.068  0.9096  0.7876 -0.7873
  106MOL   H22223532   6.789   0.521   3.134 -0.7644  1.6294 -1.6718
  107MOL     C123533   6.149   5.062   2.485 -0.2478  0.4349  0.3540
  107MOL     C223534   6.273   5.125   2.400 -0.5595 -0.7984 -0.3853
  107MOL     C323535   6.281   5.045   2.275  0.4663 -0.2401 -0.3436
  107MOL     O423536   6.390   5.023   2.228  0.6592 -0.8858 -0.3675
  107MOL     C523537   6.157   5.015   2.199  0.1880  0.0527 -0.5000
  107MOL     H623538   6.164   4.954   2.479  2.0106  0.8387 -1.7817
  107MOL     H723539   6.055   5.074   2.431 -0.3927 -2.5913 -0.1301
  107MOL     H823540   6.367   5.128   2.453 -0.4893 -2.2009 -0.3972
  107MOL     H923541   6.098   5.101   2.169  0.0322 -0.5868 -2.0553
  107MOL    H1023542   6.182   4.954   2.113  3.0220  1.3016 -0.6200
  107MOL    H1123543   6.097   4.951   2.264  0.2872 -0.1753 -0.6340
  107MOL    H1223544   6.124   5.102   2.583 -2.9813  0.7127 -0.4236
  107MOL    C1323545   6.236   5.274   2.365 -0.5313  0.2126  0.1303
  107MOL    C1423546   6.361   5.339   2.304 -0.3105 -0.1388 -0.0321
  107MOL    C1523547   6.447   5.404   2.408 -0.1798  0.3049  0.0243
  107MOL    O1623548   6.406   5.509   2.454  1.0969  0.2297 -0.1452
  107MOL    C1723549   6.560   5.334   2.469 -0.0139  0.4670  0.2449
  107MOL    H1823550   6.150   5.280   2.298  0.5216 -0.5802 -1.3131
  107MOL    H1923551   6.217   5.332   2.455  0.3958  2.8197 -1.3131
  107MOL    H2023552   6.426   5.263   2.261 -1.6724 -2.2857  1.6545
  107MOL    H2123553   6.543   5.234   2.430  3.0450  0.1557 -0.3491
  107MOL    H2223554   6.660   5.366   2.440  0.8702 -0.4850  2.1272
  107MOL    H2323555   6.556   5.316   2.577  1.2393 -0.9077  0.0712
  107MOL    C2423556   6.325   5.446   2.184  0.5900 -0.6280 -0.7675
  107MOL    C2523557   6.444   5.505   2.111 -0.8087  0.2153  0.6402
  107MOL    C2623558   6.528   5.401   2.031 -0.2292  0.0328 -0.3503
  107MOL    O2723559   6.647   5.383   2.052 -0.1773  0.9996 -0.3359
  107MOL    C2823560   6.459   5.332   1.914  0.5284  0.7741  0.0411
  107MOL    H2923561   6.253   5.401   2.117 -0.2696  1.8116 -1.5271
  107MOL    H3023562   6.254   5.518   2.226  0.5270 -0.8199 -0.5453
  107MOL    H3123563   6.518   5.538   2.184  0.6995 -0.3865 -0.5972
  107MOL    H3223564   6.462   5.224   1.930  0.6187  1.0793  2.1967
  107MOL    H3323565   6.354   5.362   1.907 -0.4700 -2.7354 -1.3847
  107MOL    H3423566   6.509   5.362   1.822  0.3521  0.0911 -0.2889
  107MOL    C3523567   6.426   5.628   2.019  0.2231 -0.3997 -0.1535
  107MOL    C3623568   6.560   5.696   1.980  0.0697 -0.8173  0.1721
  107MOL    C3723569   6.565   5.726   1.825 -0.5308  0.2035 -0.2667
  107MOL    O3823570   6.480   5.801   1.778  0.4744  0.1510  0.2132
  107MOL    C3923571   6.666   5.667   1.746  0.0050  0.3998  0.5776
  107MOL    H4023572   6.353   5.695   2.063 -0.4495 -0.8018 -0.6533
  107MOL    H4123573   6.384   5.597   1.924 -2.2434 -2.2117  1.4619
  107MOL    H4223574   6.635   5.618   1.984  0.9749 -0.0405 -1.4093
  107MOL    H4323575   6.657   5.710   1.646  0.6434  1.9753  1.1833
  107MOL    H4423576   6.666   5.559   1.750  1.3552  0.4059  1.2437
  107MOL    H4523577   6.767   5.692   1.781  0.6293 -0.7037 -0.3940
  107MOL    C4623578   6.617   5.811   2.065 -0.0532  0.1616  0.2593
  107MOL    C4723579   6.530   5.938   2.081  0.6444 -0.5085  0.3816
  107MOL    C4823580   6.478   5.944   2.226  0.6275  0.2776  0.6572
  107MOL    O4923581   6.359   5.932   2.246  0.2735 -0.1138  0.5892
  107MOL    C5023582   6.564   5.970   2.346  0.0752  0.4336 -0.5270
  107MOL    H5123583   6.713   5.838   2.022  0.5147 -2.5395 -0.2126
  107MOL    H5223584   6.665   5.760   2.149 -0.0535 -1.8939 -0.9580
  107MOL    H5323585   6.442   5.932   2.017  1.4324 -1.5378 -0.6267
  107MOL    H5423586   6.518   6.042   2.413  0.0105 -0.7577  0.7335
  107MOL    H5523587   6.587   5.882   2.406 -1.6950 -1.3270 -2.3501
  107MOL    H5623588   6.661   6.017   2.330  0.5931 -0.4897 -0.1759
  107MOL    C5723589   6.597   6.072   2.039  0.2345 -1.2994  0.6227
  107MOL    C5823590   6.502   6.198   2.044 -0.1362  0.6570 -0.3941
  107MOL    C5923591   6.577   6.333   2.065  0.0370 -0.2691  0.8948
  107MOL    O6023592   6.579   6.418   1.976 -0.2264  0.2155  0.4242
  107MOL    C6123593   6.654   6.354   2.198  0.3159 -0.0383  1.1590
  107MOL    H6223594   6.632   6.062   1.937 -0.8545 -1.4721  0.2635
  107MOL    H6323595   6.687   6.088   2.099 -0.2405  1.2382  0.7458
  107MOL    H6423596   6.436   6.199   2.131 -0.0044  0.9604 -0.2975
  107MOL    H6523597   6.728   6.430   2.174 -1.4618  0.4759 -3.1323
  107MOL    H6623598   6.597   6.382   2.286 -2.7413 -0.7867 -0.4985
  107MOL    H6723599   6.701   6.259   2.224  1.9689 -0.2728 -2.3987
  107MOL    C6823600   6.417   6.205   1.914  0.3347 -0.2774  0.0333
  107MOL    C6923601   6.303   6.310   1.902  0.0841  0.3579 -0.0946
  107MOL    C7023602   6.181   6.277   1.991 -0.0035  0.6253 -0.1206
  107MOL    O7123603   6.169   6.175   2.050  0.3496 -0.2480  0.1210
  107MOL    C7223604   6.087   6.396   2.022  0.0366 -0.3257  0.9617
  107MOL    H7323605   6.491   6.219   1.835  1.1586 -0.6321  0.7389
  107MOL    H7423606   6.380   6.107   1.886  2.3614 -1.0377 -0.0922
  107MOL    H7523607   6.340   6.408   1.935 -0.9676  1.5951 -2.4545
  107MOL    H7623608   6.044   6.378   2.121 -1.4869  0.0869  0.3969
  107MOL    H7723609   6.146   6.487   2.023 -1.5456  0.7275  3.4833
  107MOL    H7823610   6.006   6.407   1.949  0.3983 -1.1638  0.4379
  107MOL    C7923611   6.258   6.342   1.750  0.7056 -0.0203 -0.6798
  107MOL    C8023612   6.214   6.210   1.672  0.2669 -1.1380  0.1301
  107MOL    C8123613   6.327   6.141   1.595 -0.2480  0.1857  0.2362
  107MOL    O8223614   6.417   6.205   1.550 -0.1127 -0.1168  0.2413
  107MOL    C8323615   6.320   5.990   1.583 -0.1296  0.4641  0.0049
  107MOL    H8423616   6.343   6.393   1.704  0.6770  0.9179  0.2736
  107MOL    H8523617   6.170   6.406   1.753  0.4944 -0.2978 -1.0428
  107MOL    H8623618   6.182   6.142   1.751  0.9764  0.8662  2.1735
  107MOL    H8723619   6.403   5.935   1.538 -1.0162 -0.3158 -0.7043
  107MOL    H8823620   6.228   5.965   1.530 -1.6069  0.7904  2.3668
  107MOL    H8923621   6.328   5.943   1.681  0.9276 -1.2254 -0.8675
  107MOL    C9023622   6.084   6.239   1.583  0.0309  0.0445  0.0447
  107MOL    C9123623   6.097   6.354   1.473 -0.3954 -0.1188 -0.2529
  107MOL    C9223624   6.187   6.315   1.347  0.1282 -0.3840 -0.7138
  107MOL    O9323625   6.164   6.199   1.301  0.6153  0.3143 -0.1287
  107MOL    C9423626   6.271   6.427   1.272 -0.5665  0.7828  0.2944
  107MOL    H9523627   6.058   6.144   1.537  0.4408 -1.0467  1.9957
  107MOL    H9623628   6.003   6.268   1.650 -0.5099 -2.4613  0.5270
  107MOL    H9723629   6.140   6.438   1.526  0.1380 -0.6003  0.0823
  107MOL    H9823630   6.236   6.530   1.275 -0.9106  0.6496  1.4511
  107MOL    H9923631   6.372   6.429   1.311 -0.6858 -3.9996  1.1190
  107MOL   H10023632   6.285   6.394   1.169  1.8944  0.4147  0.7227
  107MOL   C10123633   5.957   6.402   1.419  0.0069  0.3828  0.3002
  107MOL   C10223634   5.949   6.542   1.360 -0.2122  0.5504  0.8788
  107MOL   C10323635   5.972   6.632   1.480  0.1066 -0.1641  0.0386
  107MOL   O10423636   5.965   6.599   1.596  0.1770  0.8128 -0.2805
  107MOL   C10523637   6.001   6.782   1.454 -0.4213 -0.1538 -0.2584
  107MOL   H10623638   5.933   6.335   1.336  2.1569  1.2115 -1.0337
  107MOL   H10723639   5.874   6.385   1.488  0.1608 -1.4266  0.0526
  107MOL   H10823640   6.020   6.557   1.278  0.2122  1.6363  1.4312
  107MOL   H10923641   5.991   6.804   1.348 -0.7235 -0.4354 -0.2882
  107MOL   H11023642   5.933   6.844   1.513 -1.4075 -1.2620 -0.2102
  107MOL   H11123643   6.099   6.813   1.490  0.0976  0.7953 -2.4273
  107MOL   C11223644   5.807   6.561   1.301 -0.4680 -0.1763  0.1388
  107MOL   C11323645   5.764   6.511   1.154 -0.2021  0.2185  0.1963
  107MOL   C11423646   5.842   6.593   1.046 -0.1428 -0.6849  0.6385
  107MOL   O11523647   5.809   6.711   1.018 -0.2175 -0.3115  0.7599
  107MOL   C11623648   5.956   6.522   0.969  0.0072  0.1418  0.2056
  107MOL   H11723649   5.792   6.668   1.292  0.6587 -0.0418 -0.2192
  107MOL   H11823650   5.728   6.538   1.372  0.1037  0.3211  0.9429
  107MOL   H11923651   5.784   6.404   1.142  2.8641  0.6733  0.8639
  107MOL   H12023652   5.933   6.562   0.870  1.7689 -1.1965 -0.7571
  107MOL   H12123653   6.060   6.537   0.995  0.7774  1.3214 -3.3101
  107MOL   H12223654   5.940   6.414   0.973  1.5496 -0.0719  0.8125
  107MOL   C12323655   5.620   6.534   1.120  0.4012  0.2820 -0.0115
  107MOL   C12423656   5.511   6.443   1.188 -0.4570  0.0889  0.2836
  107MOL   C12523657   5.543   6.295   1.193 -0.6288 -0.1908  0.0986
  107MOL   O12623658   5.593   6.245   1.293  0.4505 -0.2891 -0.3560
  107MOL   C12723659   5.528   6.222   1.063 -0.2733 -0.2798  0.7458
  107MOL   H12823660   5.605   6.521   1.012  0.1241 -0.5598  0.1263
  107MOL   H12923661   5.602   6.638   1.145 -0.1817  0.3108 -0.5433
  107MOL   H13023662   5.518   6.494   1.284 -0.3093  1.7278 -0.5733
  107MOL   H13123663   5.432   6.170   1.058  0.0496 -1.0854  2.5108
  107MOL   H13223664   5.605   6.146   1.052  1.5930  1.5351  0.8930
  107MOL   H13323665   5.545   6.296   0.984 -0.1349 -1.5841 -0.4570
  107MOL   C13423666   5.376   6.466   1.126  0.3554  0.0372 -0.4193
  107MOL   C13523667   5.258   6.406   1.207  0.9917 -0.3492  0.2284
  107MOL   C13623668   5.234   6.468   1.351 -0.5817  0.0765 -0.7070
  107MOL   O13723669   5.264   6.587   1.372  0.4907 -0.7958  0.3066
  107MOL   C13823670   5.172   6.387   1.453  0.4098 -0.0651 -0.2029
  107MOL   H13923671   5.367   6.414   1.031 -0.0261 -1.4369  0.3922
  107MOL   H14023672   5.366   6.574   1.125  1.8073  0.2112  1.2577
  107MOL   H14123673   5.281   6.301   1.225  0.2733 -0.2285  1.9404
  107MOL   H14223674   5.127   6.301   1.404 -0.3683 -0.4686  1.1863
  107MOL   H14323675   5.103   6.447   1.512  0.9449  1.9577 -1.5479
  107MOL   H14423676   5.252   6.351   1.518  0.9537 -0.3770 -1.0334
  107MOL   C14523677   5.125   6.415   1.128  0.6130  0.3774  0.6003
  107MOL   C14623678   5.107   6.343   0.988 -0.1486  0.2956 -0.4058
  107MOL   C14723679   5.141   6.198   1.003  0.0894 -0.5792  1.2304
  107MOL   O14823680   5.119   6.128   1.108 -0.0814  0.4505  0.0280
  107MOL   C14923681   5.187   6.145   0.875  0.4549  0.1114 -0.2720
  107MOL   H15023682   5.108   6.522   1.118 -1.9698 -0.1975 -1.8049
  107MOL   H15123683   5.034   6.389   1.182 -1.2832  1.9418 -1.7595
  107MOL   H15223684   5.180   6.373   0.913 -1.6179  1.1517 -1.5149
  107MOL   H15323685   5.129   6.179   0.789 -1.2438  0.2535  0.8920
  107MOL   H15423686   5.285   6.184   0.848  1.0290 -0.5983  0.7715
  107MOL   H15523687   5.189   6.038   0.892  0.5575  0.1198 -0.2356
  107MOL   C15623688   4.966   6.351   0.931 -0.7523 -0.0082 -0.5617
  107MOL   C15723689   4.930   6.504   0.889  0.3368 -0.0446 -0.2325
  107MOL   C15823690   4.777   6.513   0.863 -0.5119 -0.2253  0.2188
  107MOL   O15923691   4.713   6.425   0.807 -0.1959  0.3622 -0.0656
  107MOL   C16023692   4.706   6.644   0.896 -0.1818  0.2072  0.3998
  107MOL   H16123693   4.958   6.280   0.849  2.0556  1.0987 -1.8816
  107MOL   H16223694   4.894   6.327   1.009 -1.2005 -1.7161 -1.4884
  107MOL   H16323695   4.941   6.567   0.977 -1.2947  1.1223 -0.8278
  107MOL   H16423696   4.729   6.719   0.821 -3.2760  0.3202 -0.4973
  107MOL   H16523697   4.737   6.678   0.996  2.2685  0.2188 -0.3257
  107MOL   H16623698   4.599   6.625   0.901 -0.0970 -0.3520  0.0664
  107MOL   C16723699   5.008   6.564   0.775  0.0311  0.5302 -0.6227
  107MOL   C16823700   4.985   6.503   0.628  0.2635 -0.2065  0.0376
  107MOL   C16923701   5.071   6.385   0.601  0.3006  0.7801 -0.4854
  107MOL   O17023702   5.186   6.378   0.643  0.3696 -0.0497 -0.1393
  107MOL   C17123703   5.016   6.281   0.499  0.0834 -0.1398 -0.1570
  107MOL   H17223704   4.990   6.672   0.775  1.4109  0.7785  0.1810
  107MOL   H17323705   5.109   6.542   0.812  0.3516 -0.9844 -2.3656
  107MOL   H17423706   4.882   6.471   0.616  0.4335 -2.3373  3.5009
  107MOL   H17523707   5.076   6.274   0.408  0.8885 -3.9130  0.5814
  107MOL   H17623708   4.918   6.303   0.457 -0.4259 -2.0295  0.0075
  107MOL   H17723709   5.011   6.184   0.549  1.1350  0.1494  0.5377
  107MOL   C17823710   5.000   6.618   0.526  0.2496  0.2116  0.4308
  107MOL   C17923711   4.874   6.707   0.508  0.4762  0.2911 -0.6892
  107MOL   C18023712   4.755   6.644   0.432  0.7826 -0.3310  0.6242
  107MOL   O18123713   4.768   6.598   0.319 -0.2363  0.5741 -0.1476
  107MOL   C18223714   4.627   6.634   0.511 -0.3708 -0.5330  0.0857
  107MOL   H18323715   5.089   6.676   0.551 -0.1366  1.4445 -0.9514
  107MOL   H18423716   5.022   6.576   0.428  0.4088  0.2645  0.4432
  107MOL   H18523717   4.823   6.724   0.602  1.7313  1.4615 -0.1919
  107MOL   H18623718   4.633   6.666   0.616 -0.3219 -0.7155  0.1387
  107MOL   H18723719   4.589   6.532   0.515  0.0946 -0.7275 -0.4940
  107MOL   H18823720   4.553   6.691   0.456  0.8072  1.9590  0.9899
  107MOL   C18923721   4.906   6.837   0.433  0.6165 -0.1532 -0.4798
  107MOL   C19023722   4.804   6.954   0.459 -0.3160 -0.1959 -0.0032
  107MOL   C19123723   4.838   7.025   0.593 -0.5549  0.2336 -0.1672
  107MOL   O19223724   4.929   7.113   0.598 -0.1499 -0.1398 -0.4649
  107MOL   C19323725   4.767   6.979   0.722  0.7375  0.3786  0.1765
  107MOL   H19423726   5.010   6.863   0.455  0.4692 -1.1589  1.5165
  107MOL   H19523727   4.899   6.834   0.324  0.4904 -0.1143 -0.4729
  107MOL   H19623728   4.704   6.910   0.465 -0.0010 -0.6182  2.8202
  107MOL   H19723729   4.783   7.051   0.801 -1.6391 -1.2506  2.2286
  107MOL   H19823730   4.661   6.988   0.696  0.6672  1.3825  0.8011
  107MOL   H19923731   4.812   6.885   0.754  2.5822  1.7580  1.7108
  107MOL   C20023732   4.798   7.070   0.354  0.1417 -1.0030  0.0362
  107MOL   C20123733   4.700   7.188   0.387  0.7195  0.7706 -0.2768
  107MOL   C20223734   4.553   7.152   0.359  0.0359 -0.6527  0.3200
  107MOL   O20323735   4.519   7.065   0.282  0.2567 -0.1077  0.0512
  107MOL   C20423736   4.444   7.213   0.443 -0.7359 -0.0438  0.8102
  107MOL   H20523737   4.900   7.102   0.332 -0.4307  1.0841  0.2871
  107MOL   H20623738   4.772   7.019   0.261  0.4107  1.7446 -1.6079
  107MOL   H20723739   4.690   7.205   0.495 -0.0957 -0.4288 -0.1577
  107MOL   H20823740   4.427   7.307   0.391 -2.5352  0.1278  1.6565
  107MOL   H20923741   4.360   7.148   0.470  0.6567 -1.5218  1.6819
  107MOL   H21023742   4.491   7.238   0.538  1.7853 -1.5940  0.0267
  107MOL   C21123743   4.744   7.323   0.328  0.3806 -0.4925 -0.5742
  107MOL   C21223744   4.836   7.407   0.425  0.3161 -0.1780  0.1742
  107MOL   C21323745   4.756   7.476   0.538 -0.1057 -0.3646 -0.2768
  107MOL   O21423746   4.642   7.517   0.521  0.1843  0.5992 -0.6516
  107MOL   C21523747   4.830   7.500   0.672 -0.0507 -0.1279  0.3003
  107MOL   H21623748   4.778   7.314   0.225  2.1176 -0.3739 -0.0208
  107MOL   H21723749   4.657   7.383   0.302 -0.3610 -1.4615 -0.3656
  107MOL   H21823750   4.896   7.478   0.368  0.4221  2.0809  2.9631
  107MOL   H21923751   4.935   7.473   0.659 -0.3974 -1.5448  0.4443
  107MOL   H22023752   4.823   7.606   0.697  1.4982 -0.1845  1.0816
  107MOL   H22123753   4.782   7.444   0.752 -0.5141 -0.0077  0.1084
  107MOL   H22223754   4.914   7.353   0.479  2.1120  0.5314 -1.6322
  108MOL     C123755   4.059   2.981   3.524  0.1025  0.0744  0.1399
  108MOL     C223756   4.077   2.951   3.671  0.3622  0.7198 -0.3363
  108MOL     C323757   3.939   2.934   3.739  0.2296 -0.1815 -0.5765
  108MOL     O423758   3.873   2.828   3.739 -0.0117 -0.2248  0.1515
  108MOL     C523759   3.892   3.056   3.821 -0.1378  0.0525  0.3600
  108MOL     H623760   4.007   3.076   3.511 -1.2107 -0.8005 -1.1440
  108MOL     H723761   4.010   2.904   3.465 -2.9022 -0.0769  2.6947
  108MOL     H823762   4.127   3.032   3.724  2.6111 -0.6907 -0.2187
  108MOL     H923763   3.783   3.055   3.824 -0.1713  0.8087 -0.3300
  108MOL    H1023764   3.920   3.043   3.925  0.6450 -0.9951  0.0286
  108MOL    H1123765   3.931   3.145   3.771  1.4021 -1.3395 -0.9802
  108MOL    H1223766   4.160   2.977   3.483  1.3842 -0.1310  3.2001
  108MOL    C1323767   4.159   2.820   3.688 -0.5212  0.5210 -0.4922
  108MOL    C1423768   4.210   2.785   3.834  0.7245  0.6613 -0.7781
  108MOL    C1523769   4.353   2.835   3.845 -0.0097  1.1735 -0.5615
  108MOL    O1623770   4.451   2.779   3.788  0.5614 -0.1740 -0.1992
  108MOL    C1723771   4.370   2.945   3.957 -0.2331 -0.0494 -0.5786
  108MOL    H1823772   4.099   2.736   3.654 -0.2479  0.5430 -1.0340
  108MOL    H1923773   4.243   2.814   3.618 -1.5220  1.4071 -1.8130
  108MOL    H2023774   4.143   2.833   3.906  0.1136 -0.3640 -0.6477
  108MOL    H2123775   4.471   2.985   3.971 -0.0030 -0.6672 -0.4254
  108MOL    H2223776   4.294   3.020   3.935  0.9248  1.4855  0.4836
  108MOL    H2323777   4.338   2.906   4.054  0.4576  2.4150  0.6884
  108MOL    C2423778   4.204   2.627   3.846  0.2811 -0.8110  0.3558
  108MOL    C2523779   4.256   2.562   3.976 -0.0979  0.3430  0.2764
  108MOL    C2623780   4.176   2.597   4.104  0.4591 -0.0441 -0.2378
  108MOL    O2723781   4.230   2.615   4.212 -0.1136 -0.2479 -0.2190
  108MOL    C2823782   4.026   2.581   4.093 -0.4721  0.4643 -0.2993
  108MOL    H2923783   4.100   2.598   3.832  0.1556  0.1931 -0.9405
  108MOL    H3023784   4.258   2.589   3.759 -1.0188  0.9345 -1.2732
  108MOL    H3123785   4.347   2.615   4.004 -1.3431  1.0827  3.1779
  108MOL    H3223786   3.981   2.664   4.037 -1.0456  0.2023 -0.2267
  108MOL    H3323787   4.002   2.486   4.047  1.0389  0.2658 -0.6911
  108MOL    H3423788   3.979   2.581   4.191 -0.7617 -3.7519 -0.3806
  108MOL    C3523789   4.292   2.411   3.959  0.2547 -0.4587  0.3045
  108MOL    C3623790   4.359   2.334   4.071  0.2258 -0.1278  0.0146
  108MOL    C3723791   4.326   2.187   4.030 -0.5735 -0.4413 -0.5798
  108MOL    O3823792   4.396   2.132   3.946  0.6528  0.4726  0.1199
  108MOL    C3923793   4.214   2.125   4.108 -0.2537 -0.4766 -0.3105
  108MOL    H4023794   4.367   2.411   3.879  1.0040  0.4104  0.9972
  108MOL    H4123795   4.198   2.373   3.920 -0.7371  0.6755  1.5774
  108MOL    H4223796   4.295   2.357   4.156  0.5916  1.1936 -0.0527
  108MOL    H4323797   4.233   2.145   4.214 -0.9606 -0.1382 -0.2419
  108MOL    H4423798   4.206   2.017   4.105  2.0812 -0.7002  0.3466
  108MOL    H4523799   4.116   2.161   4.078 -1.3322 -2.8934  0.2177
  108MOL    C4623800   4.504   2.374   4.099  0.6339 -0.2128 -0.0236
  108MOL    C4723801   4.533   2.381   4.256 -0.4718 -0.5767 -0.2114
  108MOL    C4823802   4.503   2.247   4.323 -0.4847 -0.3647 -0.5696
  108MOL    O4923803   4.573   2.142   4.308  0.6777  0.0241  0.0403
  108MOL    C5023804   4.385   2.257   4.418  0.2545  0.3471 -0.4033
  108MOL    H5123805   4.529   2.478   4.076  0.4510  0.3474  2.2076
  108MOL    H5223806   4.577   2.306   4.056  3.1243  0.6006  2.7509
  108MOL    H5323807   4.465   2.451   4.305 -0.3035 -0.2475 -0.4531
  108MOL    H5423808   4.417   2.257   4.522 -0.9555  0.2590 -0.0207
  108MOL    H5523809   4.321   2.342   4.393 -1.5375 -1.6991 -2.9381
  108MOL    H5623810   4.325   2.168   4.400  0.3456  0.0900  0.5531
  108MOL    C5723811   4.679   2.419   4.282  0.5190 -0.1421  0.6957
  108MOL    C5823812   4.705   2.525   4.396  0.0023  0.5562 -0.1409
  108MOL    C5923813   4.671   2.672   4.347  0.0312 -0.1528 -0.3111
  108MOL    O6023814   4.572   2.719   4.394 -0.1677 -0.1801 -0.6912
  108MOL    C6123815   4.759   2.751   4.248 -0.6589 -0.1641  0.3019
  108MOL    H6223816   4.724   2.458   4.191  1.2969 -2.3956  0.1014
  108MOL    H6323817   4.725   2.324   4.306 -2.3331 -1.7523  0.0571
  108MOL    H6423818   4.812   2.523   4.413 -0.4828 -4.1602  3.5025
  108MOL    H6523819   4.706   2.824   4.187  0.7294  0.3546 -0.2922
  108MOL    H6623820   4.820   2.817   4.309  0.9007  0.1229 -1.5066
  108MOL    H6723821   4.829   2.689   4.192  2.0252  0.0625  3.2528
  108MOL    C6823822   4.631   2.488   4.525  0.3935  0.2826  0.8188
  108MOL    C6923823   4.662   2.583   4.648  0.0953  0.6239 -0.5806
  108MOL    C7023824   4.810   2.562   4.696  0.1123 -0.3989 -0.0353
  108MOL    O7123825   4.860   2.448   4.687  0.4566 -0.1865  0.2447
  108MOL    C7223826   4.883   2.692   4.760  0.0805  0.7921 -0.4123
  108MOL    H7323827   4.524   2.487   4.504  0.4972 -0.4366  0.2881
  108MOL    H7423828   4.650   2.382   4.545 -0.9693 -0.3571 -1.1012
  108MOL    H7523829   4.661   2.690   4.625  0.7333  0.6999 -0.2823
  108MOL    H7623830   4.977   2.703   4.707  0.3031  0.2678 -0.1275
  108MOL    H7723831   4.819   2.780   4.757 -0.2916  0.5698  0.9272
  108MOL    H7823832   4.906   2.667   4.863 -1.1635 -1.4262 -0.6194
  108MOL    C7923833   4.558   2.554   4.758 -0.4518  0.1585 -0.1590
  108MOL    C8023834   4.553   2.631   4.890 -0.4458 -0.0389 -0.3606
  108MOL    C8123835   4.435   2.576   4.976 -0.4896 -0.7693  0.2499
  108MOL    O8223836   4.322   2.543   4.938 -0.0596 -0.1506 -0.2812
  108MOL    C8323837   4.468   2.573   5.120 -0.0498  0.0798  0.4531
  108MOL    H8423838   4.556   2.448   4.782 -1.6937  0.3933  0.7896
  108MOL    H8523839   4.466   2.567   4.701 -0.3260 -0.0691 -0.4160
  108MOL    H8623840   4.646   2.607   4.942 -0.3193  0.0952 -0.5234
  108MOL    H8723841   4.398   2.518   5.182 -0.7962 -0.3523 -0.7488
  108MOL    H8823842   4.494   2.670   5.162  0.9072  0.6584 -1.4423
  108MOL    H8923843   4.564   2.526   5.143 -0.1050 -1.5633 -2.4647
  108MOL    C9023844   4.546   2.787   4.865 -0.1003  0.0738  0.4227
  108MOL    C9123845   4.417   2.844   4.807  0.5193 -0.4370  0.3769
  108MOL    C9223846   4.380   2.978   4.875  0.0403 -0.3135 -0.4688
  108MOL    O9323847   4.462   3.071   4.880 -0.2538  0.1289 -0.0720
  108MOL    C9423848   4.237   3.005   4.925 -0.1812  0.6701  0.0740
  108MOL    H9523849   4.577   2.831   4.960  0.9421  0.2209  0.0177
  108MOL    H9623850   4.628   2.815   4.798  0.9534  0.5017  1.8630
  108MOL    H9723851   4.333   2.779   4.835 -0.1532  0.2434 -0.0548
  108MOL    H9823852   4.200   2.906   4.954 -1.9827  0.7051 -1.9963
  108MOL    H9923853   4.247   3.073   5.009 -2.8862  1.3656 -0.1101
  108MOL   H10023854   4.165   3.042   4.852 -0.8298 -0.9853 -0.1583
  108MOL   C10123855   4.416   2.870   4.659 -0.9160  0.4247 -0.1631
  108MOL   C10223856   4.278   2.915   4.596  0.8349 -0.0432  0.6549
  108MOL   C10323857   4.169   2.818   4.635  0.0285 -0.6029  0.2824
  108MOL   O10423858   4.089   2.849   4.719  0.0984 -0.4766 -0.6120
  108MOL   C10523859   4.166   2.684   4.566 -0.2109 -0.0580 -0.4830
  108MOL   H10623860   4.493   2.942   4.631  0.9584 -1.8554 -1.1074
  108MOL   H10723861   4.435   2.769   4.623 -0.9074  0.9515 -1.6820
  108MOL   H10823862   4.257   3.012   4.641 -0.0124 -0.5967  1.4498
  108MOL   H10923863   4.176   2.609   4.644 -2.2556 -0.0892 -0.2130
  108MOL   H11023864   4.077   2.670   4.504 -0.1163 -0.1019 -0.6076
  108MOL   H11123865   4.254   2.672   4.504  0.2254  0.5842 -0.0002
  108MOL   C11223866   4.280   2.928   4.438  0.3035 -0.5821  0.4402
  108MOL   C11323867   4.200   3.050   4.388  0.2180 -0.3731 -0.1963
  108MOL   C11423868   4.113   3.026   4.262 -0.2029  1.0512  0.5967
  108MOL   O11523869   4.095   3.113   4.173 -0.8050  0.3604  0.1840
  108MOL   C11623870   4.022   2.906   4.269  0.4298  0.1586  0.0417
  108MOL   H11723871   4.252   2.840   4.381  1.3080 -1.2447  0.9601
  108MOL   H11823872   4.385   2.939   4.412 -0.3207  2.5742 -1.0244
  108MOL   H11923873   4.136   3.070   4.474  2.4128  0.0256  1.3965
  108MOL   H12023874   3.939   2.914   4.338 -0.0774 -4.0419 -0.0038
  108MOL   H12123875   3.985   2.885   4.169  2.3014 -0.2372 -0.5846
  108MOL   H12223876   4.084   2.819   4.291 -2.4925 -1.9397  0.1144
  108MOL   C12323877   4.302   3.169   4.365 -0.4561 -0.9756 -0.5004
  108MOL   C12423878   4.370   3.251   4.481  0.4643  0.2733  0.0343
  108MOL   C12523879   4.264   3.312   4.570  0.7161 -0.1657  0.2179
  108MOL   O12623880   4.159   3.362   4.519  0.1472  0.1600 -0.1348
  108MOL   C12723881   4.284   3.308   4.716 -0.5892 -0.6409 -0.3514
  108MOL   H12823882   4.250   3.247   4.309 -0.0272 -1.0766 -1.0431
  108MOL   H12923883   4.378   3.144   4.291 -0.0470  1.3584 -0.9246
  108MOL   H13023884   4.430   3.181   4.539 -0.5683 -0.3991  0.2985
  108MOL   H13123885   4.274   3.203   4.743  2.4235 -0.8472  0.1204
  108MOL   H13223886   4.218   3.381   4.762  0.0662 -0.5211  0.4180
  108MOL   H13323887   4.388   3.326   4.746 -0.3653 -1.2413 -0.7665
  108MOL   C13423888   4.470   3.353   4.427  0.0148 -0.0968  0.0580
  108MOL   C13523889   4.584   3.394   4.521  0.3713 -0.1858 -0.0655
  108MOL   C13623890   4.697   3.288   4.528  0.1617  0.9824 -0.0839
  108MOL   O13723891   4.794   3.289   4.450  0.4867  0.3370  0.1583
  108MOL   C13823892   4.676   3.163   4.613  0.3971  0.4421  0.2446
  108MOL   H13923893   4.415   3.439   4.388  1.4232  0.5351 -0.5543
  108MOL   H14023894   4.505   3.306   4.335 -0.7533 -0.4267 -0.0742
  108MOL   H14123895   4.544   3.396   4.623 -1.2208 -0.0345 -0.6766
  108MOL   H14223896   4.629   3.166   4.711 -2.1764  0.5775 -0.9628
  108MOL   H14323897   4.775   3.125   4.638 -0.1989 -1.2542  0.0684
  108MOL   H14423898   4.626   3.087   4.553  1.3233 -0.1488  0.2008
  108MOL   C14523899   4.634   3.536   4.478 -0.4456 -0.1272  0.0398
  108MOL   C14623900   4.528   3.648   4.501  0.0814 -1.3056  0.2302
  108MOL   C14723901   4.549   3.727   4.629 -0.0066  0.3296  0.2827
  108MOL   O14823902   4.550   3.853   4.633 -0.4787 -0.1298  0.1220
  108MOL   C14923903   4.545   3.650   4.765 -0.0945  0.1249 -0.4424
  108MOL   H15023904   4.688   3.533   4.384 -0.6076  2.0471 -0.1580
  108MOL   H15123905   4.716   3.563   4.545  1.7576 -0.8541 -2.3105
  108MOL   H15223906   4.433   3.600   4.522  0.2452 -0.7203  2.4651
  108MOL   H15323907   4.621   3.571   4.766  1.3246  1.4145  2.7965
  108MOL   H15423908   4.566   3.714   4.851  1.8082 -0.7190 -0.2558
  108MOL   H15523909   4.445   3.609   4.773  0.8480 -2.1363  0.2228
  108MOL   C15623910   4.517   3.735   4.367 -0.4550 -0.3598  0.1297
  108MOL   C15723911   4.392   3.819   4.342  0.9652 -0.0343  0.1986
  108MOL   C15823912   4.270   3.734   4.322  0.0080 -0.7054  0.6602
  108MOL   O15923913   4.259   3.669   4.223 -0.0935  0.1538 -0.6443
  108MOL   C16023914   4.162   3.721   4.427  0.1699  0.1539  0.5469
  108MOL   H16123915   4.610   3.792   4.374 -0.8438  0.3956 -0.7454
  108MOL   H16223916   4.538   3.664   4.287  0.8764  0.3275 -0.1586
  108MOL   H16323917   4.371   3.881   4.429  1.0361 -1.2215  1.0732
  108MOL   H16423918   4.128   3.618   4.416  0.0739  0.3192 -0.8660
  108MOL   H16523919   4.067   3.770   4.407  0.5801  0.5310 -0.5198
  108MOL   H16623920   4.204   3.748   4.523 -1.3823  0.6809  1.0894
  108MOL   C16723921   4.426   3.915   4.222  0.3381 -0.6041  0.1484
  108MOL   C16823922   4.332   4.040   4.216  1.0503 -0.7661 -0.4480
  108MOL   C16923923   4.322   4.092   4.066  0.2556 -0.2721  0.5524
  108MOL   O17023924   4.373   4.196   4.032  0.2536 -0.1309 -0.2244
  108MOL   C17123925   4.247   4.013   3.959 -0.0552  0.4552 -0.2176
  108MOL   H17223926   4.519   3.967   4.246  0.1164 -0.0524 -0.1621
  108MOL   H17323927   4.451   3.864   4.129  1.6793 -1.0558  0.7474
  108MOL   H17423928   4.232   3.998   4.229  0.3011  1.1455  0.0631
  108MOL   H17523929   4.145   4.047   3.942 -0.3436  0.5999  1.7278
  108MOL   H17623930   4.230   3.908   3.984  1.1574 -0.0494 -1.4581
  108MOL   H17723931   4.299   4.019   3.863  0.9321 -1.4650  0.1688
  108MOL   C17823932   4.371   4.146   4.326 -0.2239 -0.5839 -0.3220
  108MOL   C17923933   4.252   4.231   4.381  0.2522 -0.5526 -0.3282
  108MOL   C18023934   4.162   4.303   4.279  0.0950  1.2794  0.5811
  108MOL   O18123935   4.090   4.231   4.205 -0.2816 -0.9342 -0.7229
  108MOL   C18223936   4.178   4.447   4.239 -0.0435 -0.8323 -0.0854
  108MOL   H18323937   4.410   4.082   4.405 -0.6111 -1.1802 -0.6084
  108MOL   H18423938   4.451   4.202   4.278 -0.3348 -0.7588 -0.7210
  108MOL   H18523939   4.180   4.170   4.436 -2.0374  2.6224  0.3198
  108MOL   H18623940   4.276   4.468   4.196  0.5835 -1.2894  1.1044
  108MOL   H18723941   4.157   4.513   4.323  0.4071  1.1543 -1.4986
  108MOL   H18823942   4.109   4.480   4.162 -0.3071  0.8804  0.8676
  108MOL   C18923943   4.304   4.338   4.480 -0.5821 -0.1497  0.8055
  108MOL   C19023944   4.372   4.286   4.615  0.0157 -0.4872  0.6036
  108MOL   C19123945   4.524   4.326   4.614 -0.1596  0.1815  0.1052
  108MOL   O19223946   4.570   4.439   4.589 -0.7986 -0.7606 -0.4869
  108MOL   C19323947   4.625   4.217   4.651  0.3386 -0.0659  0.3911
  108MOL   H19423948   4.367   4.405   4.423 -1.2799 -1.2872 -1.3528
  108MOL   H19523949   4.216   4.394   4.513  1.0826  1.8063  2.0125
  108MOL   H19623950   4.365   4.178   4.615 -1.8375 -0.4141 -1.7470
  108MOL   H19723951   4.650   4.215   4.757  2.7070  1.4158 -0.0976
  108MOL   H19823952   4.598   4.117   4.615 -0.3374  0.0974  0.4410
  108MOL   H19923953   4.717   4.238   4.596 -0.4336 -0.0689 -0.9272
  108MOL   C20023954   4.292   4.337   4.741  0.2799 -0.5197  0.3880
  108MOL   C20123955   4.336   4.266   4.877  0.2900 -0.1856  0.0716
  108MOL   C20223956   4.285   4.120   4.874  0.0382 -0.7155  0.0766
  108MOL   O20323957   4.172   4.088   4.890 -0.0939  0.0658 -0.0673
  108MOL   C20423958   4.381   4.019   4.836 -0.1616 -0.5901  0.0022
  108MOL   H20523959   4.318   4.442   4.754 -3.0289  0.2722  0.7784
  108MOL   H20623960   4.184   4.330   4.729  0.5366 -0.8942 -2.1247
  108MOL   H20723961   4.444   4.267   4.886  0.4195 -1.0789 -1.1703
  108MOL   H20823962   4.329   3.928   4.808 -1.7542  0.6242 -1.0824
  108MOL   H20923963   4.448   4.055   4.757 -0.8875 -0.2135 -0.4418
  108MOL   H21023964   4.438   3.976   4.918  2.2086  0.2872 -1.1111
  108MOL   C21123965   4.296   4.352   4.998 -0.6558  0.8530  0.3688
  108MOL   C21223966   4.297   4.291   5.133  0.2571 -0.1820 -0.1324
  108MOL   C21323967   4.294   4.390   5.252  0.2606 -0.1564  0.4063
  108MOL   O21423968   4.251   4.505   5.240 -1.2164 -0.1536 -0.3987
  108MOL   C21523969   4.338   4.338   5.388  0.4341 -1.0327 -0.1867
  108MOL   H21623970   4.348   4.448   4.996 -2.9018  2.1443  1.1166
  108MOL   H21723971   4.190   4.370   4.977 -0.2450  2.1297 -0.6749
  108MOL   H21823972   4.391   4.236   5.141 -0.3999 -1.4472 -0.9535
  108MOL   H21923973   4.265   4.364   5.464  1.8658  0.6559  0.6537
  108MOL   H22023974   4.338   4.229   5.390 -0.2787 -1.0163  1.1992
  108MOL   H22123975   4.435   4.380   5.415 -0.7581  0.4432  1.8668
  108MOL   H22223976   4.218   4.217   5.145 -0.3980  0.0779 -2.5783
  109MOL     C123977   4.235   2.179   1.504  0.5618  0.5353 -1.0645
  109MOL     C223978   4.314   2.313   1.522  0.2486  0.0243 -0.0074
  109MOL     C323979   4.216   2.415   1.573  0.5548  0.7249 -0.3366
  109MOL     O423980   4.199   2.448   1.688  0.5238  0.5109 -0.4933
  109MOL     C523981   4.129   2.476   1.468  0.9822  0.5378 -0.0933
  109MOL     H623982   4.287   2.101   1.447 -0.7714 -0.4221 -0.9953
  109MOL     H723983   4.137   2.193   1.458 -0.3330 -0.0999  0.6047
  109MOL     H823984   4.352   2.346   1.425  2.1161 -0.4500  0.5438
  109MOL     H923985   4.190   2.503   1.381  3.0427  0.5085  1.3005
  109MOL    H1023986   4.063   2.399   1.428  1.2828  1.0991 -1.6988
  109MOL    H1123987   4.065   2.551   1.512  1.6223 -0.2077  2.1734
  109MOL    H1223988   4.210   2.135   1.600 -1.2384  0.7416 -1.4163
  109MOL    C1323989   4.434   2.287   1.618  0.4968 -0.2705  0.2077
  109MOL    C1423990   4.533   2.407   1.630  0.3829  0.5148  0.1912
  109MOL    C1523991   4.639   2.401   1.519 -0.0023  0.1372  0.0743
  109MOL    O1623992   4.758   2.376   1.547 -0.2541 -0.2319  0.3710
  109MOL    C1723993   4.605   2.415   1.369 -0.5930 -0.7238 -0.0781
  109MOL    H1823994   4.391   2.269   1.716 -1.0231  0.2239 -0.3642
  109MOL    H1923995   4.491   2.199   1.586  1.5695  0.4708  0.0526
  109MOL    H2023996   4.474   2.495   1.603  0.3915  0.1394 -1.0671
  109MOL    H2123997   4.702   2.432   1.323  0.1181  1.0674  1.9547
  109MOL    H2223998   4.566   2.323   1.326 -0.3681 -1.0274  0.3644
  109MOL    H2323999   4.545   2.502   1.342  1.4997  0.7146 -0.3070
  109MOL    C2424000   4.595   2.420   1.776  0.4353  0.2457 -0.7680
  109MOL    C2524001   4.688   2.537   1.814  0.3144  0.7056 -0.1739
  109MOL    C2624002   4.636   2.680   1.775 -0.1587  0.6216  0.4564
  109MOL    O2724003   4.554   2.744   1.844  0.4769  0.0475 -0.0432
  109MOL    C2824004   4.695   2.751   1.653 -0.4923  0.2997 -0.3440
  109MOL    H2924005   4.507   2.432   1.839 -1.5520 -0.6132 -3.2978
  109MOL    H3024006   4.644   2.329   1.811 -0.3047  0.3897  0.6666
  109MOL    H3124007   4.778   2.507   1.760 -0.9337 -1.7542 -0.9809
  109MOL    H3224008   4.752   2.842   1.678  0.4594 -0.5761  0.7611
  109MOL    H3324009   4.753   2.674   1.603 -1.3388 -3.3073  3.9454
  109MOL    H3424010   4.620   2.779   1.580 -2.2760 -1.4359  0.7969
  109MOL    C3524011   4.705   2.526   1.969  0.3326  0.9624  0.1448
  109MOL    C3624012   4.811   2.612   2.036 -0.2885 -0.5927 -0.0067
  109MOL    C3724013   4.800   2.617   2.192 -0.5876 -0.5282 -0.4132
  109MOL    O3824014   4.842   2.524   2.260  0.0442 -0.4201 -0.0209
  109MOL    C3924015   4.738   2.743   2.261 -0.1021 -0.4522 -0.0076
  109MOL    H4024016   4.728   2.422   1.989  2.0566  1.0308 -1.3527
  109MOL    H4124017   4.605   2.527   2.012 -0.1317 -1.5597 -0.7844
  109MOL    H4224018   4.779   2.711   2.004  0.7147  0.5857  2.4756
  109MOL    H4324019   4.750   2.747   2.369  1.3171  0.5856 -0.1941
  109MOL    H4424020   4.631   2.759   2.244  0.1787 -0.3500 -1.8282
  109MOL    H4524021   4.788   2.834   2.227 -1.0337 -0.8875 -2.7224
  109MOL    C4624022   4.958   2.577   1.994 -0.3967 -0.0180  0.1594
  109MOL    C4724023   5.026   2.689   1.914 -0.2624  0.1488  0.5751
  109MOL    C4824024   5.012   2.827   1.987 -0.2231  0.7617  0.6750
  109MOL    O4924025   5.078   2.857   2.088  0.1147  0.2335  0.4330
  109MOL    C5024026   4.921   2.937   1.925  0.2445  0.3842  0.2116
  109MOL    H5124027   4.958   2.491   1.927  1.4726  0.6627 -0.7616
  109MOL    H5224028   5.011   2.548   2.084 -0.9528  1.2508  0.9119
  109MOL    H5324029   4.968   2.700   1.822 -1.4910  2.9065  1.6084
  109MOL    H5424030   4.951   3.024   1.982 -0.3703 -1.2934  3.1871
  109MOL    H5524031   4.950   2.969   1.825 -1.5046  2.2868  0.2811
  109MOL    H5624032   4.814   2.915   1.935  0.6718 -2.1425 -0.5039
  109MOL    C5724033   5.177   2.654   1.907  0.0351  0.1943  0.4915
  109MOL    C5824034   5.218   2.528   1.822  0.5901 -0.0860  0.6531
  109MOL    C5924035   5.175   2.546   1.676  0.1858  0.2159 -0.0479
  109MOL    O6024036   5.185   2.658   1.624  0.4394 -0.3058 -0.0486
  109MOL    C6124037   5.117   2.423   1.594 -0.0088 -0.1222 -0.2787
  109MOL    H6224038   5.213   2.655   2.010  0.1855  1.3770  0.4326
  109MOL    H6324039   5.232   2.735   1.858  0.5791  0.7864  2.0612
  109MOL    H6424040   5.165   2.442   1.863 -0.2235 -0.4520 -1.1246
  109MOL    H6524041   5.173   2.333   1.620 -0.3815 -0.6500 -1.2864
  109MOL    H6624042   5.014   2.401   1.622  0.4045 -1.6141  0.0951
  109MOL    H6724043   5.130   2.447   1.488  4.1349 -0.9410 -0.0302
  109MOL    C6824044   5.365   2.497   1.842  0.6083 -0.8745 -0.6962
  109MOL    C6924045   5.426   2.377   1.765 -0.6749  0.5419  0.0050
  109MOL    C7024046   5.361   2.242   1.799  0.6515 -0.4331 -0.8504
  109MOL    O7124047   5.317   2.176   1.704 -0.2171 -0.0280  0.2426
  109MOL    C7224048   5.355   2.190   1.942  0.0761  0.4095  0.0782
  109MOL    H7324049   5.408   2.589   1.804  1.2952 -0.9324 -0.0650
  109MOL    H7424050   5.393   2.488   1.947  1.0103  1.0945 -0.6286
  109MOL    H7524051   5.421   2.394   1.657  0.2697 -1.7527 -0.4197
  109MOL    H7624052   5.437   2.221   2.007  1.5370 -1.0342 -1.0610
  109MOL    H7724053   5.266   2.227   1.995 -1.1243 -1.7007 -0.4197
  109MOL    H7824054   5.348   2.082   1.940  0.6708  0.3723  0.0486
  109MOL    C7924055   5.574   2.379   1.814  0.3783 -0.5302 -0.4746
  109MOL    C8024056   5.664   2.305   1.724 -0.3510 -0.2569  1.1975
  109MOL    C8124057   5.794   2.273   1.788  0.1151  0.3471 -0.3476
  109MOL    O8224058   5.854   2.365   1.842 -0.1975 -0.2537  0.1611
  109MOL    C8324059   5.860   2.135   1.769 -0.0158 -0.0190 -0.0793
  109MOL    H8424060   5.586   2.328   1.909  2.4498  0.6298 -0.0912
  109MOL    H8524061   5.611   2.481   1.820 -0.6598 -0.2528  1.5695
  109MOL    H8624062   5.618   2.209   1.703  0.4843 -0.7026  1.3623
  109MOL    H8724063   5.853   2.089   1.867  0.0352 -1.6635 -0.8272
  109MOL    H8824064   5.963   2.156   1.740 -0.4133  3.1475  0.6227
  109MOL    H8924065   5.822   2.060   1.699  2.9087 -0.7849 -0.9325
  109MOL    C9024066   5.693   2.392   1.598  0.7083 -0.5801  0.1926
  109MOL    C9124067   5.712   2.293   1.469  0.7015 -0.2689 -0.9037
  109MOL    C9224068   5.599   2.319   1.363 -0.6603 -0.3778  0.0032
  109MOL    O9324069   5.622   2.332   1.242  0.7473  0.2204  0.5043
  109MOL    C9424070   5.454   2.313   1.401  0.3303 -0.2079  0.1489
  109MOL    H9524071   5.616   2.466   1.573 -0.5406 -2.7705 -2.7497
  109MOL    H9624072   5.786   2.448   1.607 -0.4127  1.1875  1.1797
  109MOL    H9724073   5.700   2.190   1.502  0.0729  0.3747  0.9981
  109MOL    H9824074   5.452   2.249   1.488  0.2631 -0.1363  0.2000
  109MOL    H9924075   5.409   2.403   1.444  0.9853  0.5192 -0.6551
  109MOL   H10024076   5.397   2.259   1.326 -1.0985  0.2086  0.9276
  109MOL   C10124077   5.851   2.300   1.414 -0.5343  0.0115 -0.5715
  109MOL   C10224078   5.892   2.183   1.326  0.4770 -0.8182  0.0743
  109MOL   C10324079   5.918   2.053   1.403 -1.0627 -0.8267  0.1627
  109MOL   O10424080   5.998   2.053   1.491 -0.3181  0.2847 -1.1756
  109MOL   C10524081   5.837   1.934   1.362 -0.0585  0.5143  0.3296
  109MOL   H10624082   5.871   2.393   1.360 -1.6781 -0.8868 -2.6025
  109MOL   H10724083   5.916   2.300   1.502  1.5960 -1.3055 -2.0958
  109MOL   H10824084   5.817   2.162   1.250 -1.0321  2.1101  0.6677
  109MOL   H10924085   5.833   1.923   1.254 -0.3720  1.0129  0.2922
  109MOL   H11024086   5.893   1.848   1.399  0.9707  0.2406 -1.8198
  109MOL   H11124087   5.735   1.927   1.401 -0.4221 -0.6962 -0.7917
  109MOL   C11224088   6.016   2.226   1.246 -0.0318  0.3026  0.7336
  109MOL   C11324089   5.989   2.263   1.099 -0.1900 -0.0346  1.0302
  109MOL   C11424090   5.922   2.155   1.017 -0.2402  0.8604  0.5265
  109MOL   O11524091   5.972   2.040   1.015  0.6064  0.1181  0.1245
  109MOL   C11624092   5.788   2.185   0.950 -0.0369  0.1891  0.0482
  109MOL   H11724093   6.075   2.136   1.231 -0.6318 -0.0611  0.5033
  109MOL   H11824094   6.069   2.312   1.286 -2.4666  1.3993  1.7113
  109MOL   H11924095   5.911   2.340   1.099 -1.1174 -0.9447 -1.0865
  109MOL   H12024096   5.795   2.197   0.842 -0.6143  0.7826  0.0778
  109MOL   H12124097   5.718   2.101   0.954  0.0660  0.0426 -1.0850
  109MOL   H12224098   5.725   2.262   0.993 -0.3904 -1.2957  2.2763
  109MOL   C12324099   6.099   2.332   1.028  0.1799 -0.7785 -0.0652
  109MOL   C12424100   6.247   2.277   1.039 -0.3159  0.9834  0.0857
  109MOL   C12524101   6.302   2.308   1.178  0.3001 -0.1686  0.1265
  109MOL   O12624102   6.304   2.422   1.216  0.1163 -0.0448 -0.2539
  109MOL   C12724103   6.356   2.203   1.277 -0.2804 -0.4428  0.1896
  109MOL   H12824104   6.106   2.433   1.069 -0.7983 -0.8474  0.3016
  109MOL   H12924105   6.070   2.342   0.924  1.1220  1.2301 -0.1496
  109MOL   H13024106   6.234   2.168   1.042 -2.0472  1.0969 -2.0284
  109MOL   H13124107   6.406   2.264   1.352  2.0856 -0.7470 -1.0942
  109MOL   H13224108   6.417   2.125   1.230 -1.1998 -1.0801  0.0357
  109MOL   H13324109   6.281   2.141   1.325  0.0609 -1.1644 -0.1896
  109MOL   C13424110   6.325   2.336   0.916 -0.2806 -0.1799 -0.4489
  109MOL   C13524111   6.483   2.345   0.922 -0.1956 -0.3717 -0.5610
  109MOL   C13624112   6.541   2.206   0.928 -0.8066 -0.0064 -0.1406
  109MOL   O13724113   6.486   2.110   0.871  0.5253  0.0431  0.6137
  109MOL   C13824114   6.677   2.193   0.992  0.4879 -0.1604 -0.6122
  109MOL   H13924115   6.285   2.437   0.905 -2.9299 -1.0443  0.8584
  109MOL   H14024116   6.302   2.294   0.818 -1.4997  1.1787 -0.7678
  109MOL   H14124117   6.498   2.379   1.024 -0.9177 -2.7499  0.3819
  109MOL   H14224118   6.700   2.271   1.065 -0.1598 -0.3269 -0.2290
  109MOL   H14324119   6.747   2.193   0.909  0.5785  1.3705 -0.5501
  109MOL   H14424120   6.691   2.093   1.035 -1.8805 -0.4490 -0.4581
  109MOL   C14524121   6.553   2.427   0.819 -0.6284  1.1317 -0.1404
  109MOL   C14624122   6.539   2.581   0.842  0.1670  0.0600 -0.5487
  109MOL   C14724123   6.587   2.632   0.978 -0.6339 -0.3089 -0.4637
  109MOL   O14824124   6.705   2.613   1.018 -0.6422  0.2044 -0.0441
  109MOL   C14924125   6.481   2.684   1.073 -0.3965  0.2978  0.0163
  109MOL   H15024126   6.509   2.407   0.722  0.9257  0.0618 -0.6358
  109MOL   H15124127   6.660   2.408   0.806 -0.7577 -1.1242  1.8285
  109MOL   H15224128   6.433   2.604   0.833  0.1975 -0.1766 -1.6138
  109MOL   H15324129   6.407   2.608   1.096  1.5717 -1.8208 -0.4418
  109MOL   H15424130   6.540   2.704   1.163 -1.7567 -0.5140  1.0909
  109MOL   H15524131   6.433   2.776   1.039  1.6190  1.0495 -0.9200
  109MOL   C15624132   6.605   2.659   0.733  0.5359 -0.0737  0.4395
  109MOL   C15724133   6.591   2.816   0.739  0.1959  0.7163 -0.1487
  109MOL   C15824134   6.448   2.859   0.733 -1.2337  0.1070  0.2160
  109MOL   O15924135   6.358   2.798   0.666  0.5546 -0.4407  0.2608
  109MOL   C16024136   6.413   2.989   0.795  0.0373 -0.7064 -0.4177
  109MOL   H16124137   6.707   2.629   0.706  0.3498  0.7636 -1.2519
  109MOL   H16224138   6.552   2.628   0.643  0.4299  1.4654 -0.0341
  109MOL   H16324139   6.622   2.858   0.834 -3.2501  0.4211  1.1575
  109MOL   H16424140   6.433   3.067   0.722  3.1215 -0.9116  0.1682
  109MOL   H16524141   6.465   3.015   0.888 -0.7477 -0.0283 -0.1490
  109MOL   H16624142   6.305   3.001   0.808  0.3501  2.1953 -0.0101
  109MOL   C16724143   6.677   2.901   0.634  0.3713 -0.3938 -0.3002
  109MOL   C16824144   6.831   2.884   0.663 -0.2057 -0.3067 -0.2963
  109MOL   C16924145   6.876   2.924   0.802 -0.3621  0.7796  0.6747
  109MOL   O17024146   6.866   3.038   0.832 -0.5039  0.2089 -0.3608
  109MOL   C17124147   6.936   2.816   0.896  0.5088  0.2626 -0.1188
  109MOL   H17224148   6.648   2.867   0.535 -2.3091  1.4257 -0.1954
  109MOL   H17324149   6.663   3.008   0.646  1.4460 -0.3275  0.4459
  109MOL   H17424150   6.867   2.782   0.649  0.1405 -0.2168 -0.0577
  109MOL   H17524151   6.923   2.725   0.838 -1.3328  0.1978  0.3650
  109MOL   H17624152   6.886   2.807   0.993  1.3634  1.1366  0.4172
  109MOL   H17724153   7.044   2.828   0.909  0.3533  1.0001  0.5449
  109MOL   C17824154   6.910   2.972   0.554  1.0533  0.4652 -0.4405
  109MOL   C17924155   6.891   2.932   0.407 -0.3727  0.3203  0.1265
  109MOL   C18024156   6.962   2.792   0.380 -0.3683  0.3708  0.5878
  109MOL   O18124157   7.034   2.746   0.472 -0.0449 -0.1530  0.3881
  109MOL   C18224158   6.939   2.723   0.250 -0.3782 -0.6786  0.1706
  109MOL   H18324159   6.874   3.072   0.577  0.0267  0.4232 -1.8099
  109MOL   H18424160   7.017   2.978   0.578  1.2024  0.1242 -1.0022
  109MOL   H18524161   6.786   2.922   0.382 -0.4043  0.1990  0.3117
  109MOL   H18624162   6.842   2.758   0.216 -0.1534  0.9105  1.1074
  109MOL   H18724163   6.931   2.615   0.266  0.0072 -0.7257  0.0493
  109MOL   H18824164   7.012   2.740   0.171  1.0579 -0.4227  1.5331
  109MOL   C18924165   6.950   3.040   0.322  0.0869 -0.1697 -0.4686
  109MOL   C19024166   6.919   3.045   0.172  0.4117  0.2092  0.5001
  109MOL   C19124167   6.778   3.096   0.151  0.4881 -0.4119 -0.3422
  109MOL   O19224168   6.740   3.207   0.191  0.2330 -0.0864  0.1966
  109MOL   C19324169   6.680   3.011   0.068 -0.1212  0.4454  0.1611
  109MOL   H19424170   6.940   3.140   0.366  1.6892 -0.6163  0.9637
  109MOL   H19524171   7.055   3.012   0.322 -0.2502 -1.4606  0.8351
  109MOL   H19624172   6.927   2.943   0.133 -0.8852  0.0949  0.5137
  109MOL   H19724173   6.579   3.011   0.111 -1.1521  0.8062 -2.1508
  109MOL   H19824174   6.671   3.053   7.825  2.7713 -0.3737 -0.4716
  109MOL   H19924175   6.716   2.909   0.057  0.8471  0.8539 -0.4832
  109MOL   C20024176   7.021   3.125   0.096 -0.1204  0.1592 -0.8372
  109MOL   C20124177   7.001   3.120   7.800  0.1803 -0.7082 -0.0100
  109MOL   C20224178   7.013   2.976   7.738 -1.4133 -0.2901  0.1132
  109MOL   O20324179   7.085   2.890   7.791 -0.2326 -0.1028 -0.1146
  109MOL   C20424180   6.940   2.952   7.600 -0.2587  0.6376  0.3558
  109MOL   H20524181   7.012   3.223   0.142  1.3466 -0.5512  1.0200
  109MOL   H20624182   7.120   3.082   0.111 -0.6443 -0.1754  1.8083
  109MOL   H20724183   6.898   3.146   7.775  0.0941 -0.2860  0.7803
  109MOL   H20824184   6.842   2.913   7.627 -0.2727  0.2553 -0.2464
  109MOL   H20924185   6.927   3.037   7.533  2.1244 -1.9013 -3.5412
  109MOL   H21024186   6.999   2.879   7.544 -4.2989 -1.5633 -1.1759
  109MOL   C21124187   7.101   3.230   7.742  0.1257  0.4258  0.3640
  109MOL   C21224188   7.246   3.181   7.742 -0.6115  0.4253  0.2785
  109MOL   C21324189   7.329   3.273   7.659  0.3387 -0.5568  0.1930
  109MOL   O21424190   7.295   3.306   7.548  0.0927  0.0520  0.3895
  109MOL   C21524191   7.449   3.335   7.726 -0.5208 -0.9617 -0.4339
  109MOL   H21624192   7.065   3.237   7.639 -0.7241  3.7068  0.8458
  109MOL   H21724193   7.091   3.332   7.777 -0.7022  0.4033  0.2074
  109MOL   H21824194   7.277   3.081   7.711 -0.9151  1.0035 -1.9706
  109MOL   H21924195   7.485   3.432   7.694 -3.3653  0.5916  0.8578
  109MOL   H22024196   7.429   3.337   7.834  3.0778 -1.1651  0.3030
  109MOL   H22124197   7.528   3.260   7.719 -0.4672 -0.9111 -0.3738
  109MOL   H22224198   7.289   3.178   7.842  0.2161 -0.8912 -0.1051
  110MOL     C124199   5.010   4.942   7.491 -0.0795 -0.5530 -0.5587
  110MOL     C224200   4.923   5.058   7.549 -0.2010  0.6129 -0.2944
  110MOL     C324201   4.791   5.058   7.489  0.8736  0.2045  0.5200
  110MOL     O424202   4.692   4.996   7.537  0.3260  0.4117 -0.2022
  110MOL     C524203   4.782   5.130   7.354  0.4142 -0.1910  0.5114
  110MOL     H624204   5.083   4.901   7.562 -0.5420  2.0392  1.4732
  110MOL     H724205   5.081   4.978   7.417 -0.2346  0.1410 -0.3663
  110MOL     H824206   4.976   5.150   7.522 -1.9062  0.9757 -2.6342
  110MOL     H924207   4.808   5.062   7.274 -0.1261 -0.7684  0.8175
  110MOL    H1024208   4.681   5.165   7.335  0.9986  1.0751 -0.3407
  110MOL    H1124209   4.843   5.221   7.356  1.8084 -1.0297 -2.5501
  110MOL    H1224210   4.949   4.860   7.453 -0.8630 -0.1034 -0.2860
  110MOL    C1324211   4.913   5.049   7.704  0.5507  0.5563 -0.0434
  110MOL    C1424212   4.833   5.163   7.776 -0.8268  1.1656 -0.7575
  110MOL    C1524213   4.896   5.295   7.779 -0.6247  0.3851 -0.1154
  110MOL    O1624214   5.003   5.315   7.843  0.0366  0.2679  0.6025
  110MOL    C1724215   4.837   5.407   7.691  0.1742  0.2833 -0.1874
  110MOL    H1824216   4.878   4.950   7.734  0.9989 -0.1014 -1.6436
  110MOL    H1924217   5.012   5.056   7.749  0.5642  0.4858 -0.0620
  110MOL    H2024218   4.741   5.177   7.719 -0.9915 -1.1812 -1.1350
  110MOL    H2124219   4.780   5.483   7.745 -3.1139 -1.7232 -0.7504
  110MOL    H2224220   4.922   5.452   7.639 -1.4988  2.9305 -0.6791
  110MOL    H2324221   4.778   5.362   7.612 -1.4739  1.0733  0.5766
  110MOL    C2424222   4.803   5.124   0.061  0.2828  0.2344 -0.3068
  110MOL    C2524223   4.704   5.213   0.137 -0.2727 -0.0449 -0.4646
  110MOL    C2624224   4.562   5.189   0.099  0.1654 -0.5023  0.2363
  110MOL    O2724225   4.497   5.086   0.132  0.0636 -0.2930  0.0720
  110MOL    C2824226   4.487   5.292   0.019 -0.0120 -0.3365  0.8484
  110MOL    H2924227   4.761   5.024   0.049 -0.6011  0.7299 -1.4387
  110MOL    H3024228   4.897   5.109   0.114  0.5042 -2.6617 -1.4068
  110MOL    H3124229   4.728   5.315   0.105  0.0884 -0.1203 -0.4321
  110MOL    H3224230   4.542   5.340   7.796 -0.9229  0.0691  0.4558
  110MOL    H3324231   4.399   5.248   7.829 -0.6278  1.9905 -0.2132
  110MOL    H3424232   4.454   5.372   0.085 -0.3801  0.4522 -0.2742
  110MOL    C3524233   4.718   5.201   0.285  0.2146  0.2737 -0.3241
  110MOL    C3624234   4.847   5.262   0.356  0.1563  0.0364 -0.5293
  110MOL    C3724235   4.834   5.416   0.380 -0.5079 -0.3297 -0.6402
  110MOL    O3824236   4.825   5.468   0.490 -0.1605  0.0560  0.0083
  110MOL    C3924237   4.831   5.508   0.262  0.0381  0.5910  0.4194
  110MOL    H4024238   4.708   5.094   0.303  2.9808  0.0219 -0.0704
  110MOL    H4124239   4.628   5.242   0.332  0.3481  0.7187 -0.4546
  110MOL    H4224240   4.933   5.229   0.298  0.1587 -0.4715 -0.2414
  110MOL    H4324241   4.877   5.454   0.179 -0.2941 -1.0822  1.3028
  110MOL    H4424242   4.880   5.602   0.290 -3.0696  2.1503  0.8601
  110MOL    H4524243   4.726   5.525   0.239 -0.1672  0.8285  1.5292
  110MOL    C4624244   4.884   5.183   0.488 -0.5042  0.3922  0.4595
  110MOL    C4724245   5.025   5.210   0.546 -0.2105  0.3116  0.3325
  110MOL    C4824246   5.028   5.184   0.697 -0.0508 -0.0420  0.6183
  110MOL    O4924247   4.951   5.111   0.751 -0.3626  0.2456 -0.3257
  110MOL    C5024248   5.136   5.268   0.763  0.1009  0.1182 -0.1097
  110MOL    H5124249   4.879   5.079   0.455  2.2167  0.6165 -0.7783
  110MOL    H5224250   4.809   5.195   0.566 -1.3492 -3.1683  0.3046
  110MOL    H5324251   5.046   5.317   0.539 -0.2545  0.3402  0.6327
  110MOL    H5424252   5.112   5.279   0.869 -1.8246  0.2036 -0.5435
  110MOL    H5524253   5.235   5.225   0.750  0.6793  0.4268  2.8588
  110MOL    H5624254   5.147   5.368   0.720  0.4938  0.8226  1.5941
  110MOL    C5724255   5.125   5.130   0.464 -0.4904  0.1064  0.3825
  110MOL    C5824256   5.250   5.208   0.420  0.2614 -0.2531 -0.3237
  110MOL    C5924257   5.358   5.103   0.392  0.6932  0.5118 -0.3260
  110MOL    O6024258   5.346   5.018   0.302  0.5832 -0.6750  0.8398
  110MOL    C6124259   5.482   5.100   0.479 -0.1438 -0.5144  0.0905
  110MOL    H6224260   5.079   5.081   0.377 -0.2299  2.4157 -1.0903
  110MOL    H6324261   5.156   5.045   0.525  2.3178  2.0387  1.7270
  110MOL    H6424262   5.275   5.261   0.513 -2.0155 -0.9987  0.7451
  110MOL    H6524263   5.472   5.037   0.568 -1.4137  0.7510  0.8723
  110MOL    H6624264   5.562   5.043   0.433 -0.0511  0.3777 -0.8536
  110MOL    H6724265   5.525   5.191   0.521  1.0559  0.0909 -2.3799
  110MOL    C6824266   5.223   5.303   0.303 -0.7690 -0.3521 -0.2933
  110MOL    C6924267   5.328   5.412   0.286  1.5418  0.1371 -0.4074
  110MOL    C7024268   5.249   5.541   0.272  0.4834  0.7202 -0.0455
  110MOL    O7124269   5.226   5.593   0.158  0.0904 -0.4005  0.2143
  110MOL    C7224270   5.205   5.605   0.398 -0.1920 -0.3299 -0.4398
  110MOL    H7324271   5.208   5.248   0.209  0.8584 -0.2338 -0.6350
  110MOL    H7424272   5.129   5.352   0.328 -0.1408  0.4674  0.4907
  110MOL    H7524273   5.380   5.436   0.379  1.4734  0.8741 -0.5590
  110MOL    H7624274   5.191   5.524   0.469 -0.3578 -1.1505 -1.3893
  110MOL    H7724275   5.288   5.666   0.433  1.5065 -1.5974 -2.1128
  110MOL    H7824276   5.116   5.660   0.367  0.5353  0.6337 -0.8581
  110MOL    C7924277   5.422   5.386   0.163 -0.0037  0.0790  0.2819
  110MOL    C8024278   5.538   5.486   0.143  0.4904  0.1532  0.2120
  110MOL    C8124279   5.569   5.492   7.850  0.0064  0.0792 -0.2460
  110MOL    O8224280   5.649   5.415   7.805  0.0581  0.1545  0.0918
  110MOL    C8324281   5.481   5.569   7.760 -0.5366 -0.2318 -0.6659
  110MOL    H8424282   5.364   5.363   0.073 -0.6587  1.4864  0.3343
  110MOL    H8524283   5.467   5.292   0.196  1.1141  0.4201 -0.2485
  110MOL    H8624284   5.500   5.584   0.173 -1.4026 -0.6100  0.3926
  110MOL    H8724285   5.399   5.511   7.720 -0.4270  0.3090 -1.7083
  110MOL    H8824286   5.537   5.604   7.673 -0.4392  2.0195  0.2587
  110MOL    H8924287   5.441   5.658   7.808  0.1962  0.1104 -0.6740
  110MOL    C9024288   5.667   5.443   0.220  0.1901  0.2636  0.1383
  110MOL    C9124289   5.797   5.522   0.186 -1.4146  0.7781 -0.4463
  110MOL    C9224290   5.810   5.646   0.272 -0.6214 -0.0338 -0.5362
  110MOL    O9324291   5.853   5.645   0.387  0.4412 -0.1626  0.2789
  110MOL    C9424292   5.752   5.762   0.207 -0.2258 -0.8788  0.6363
  110MOL    H9524293   5.646   5.446   0.326 -1.6847 -0.5552 -0.1937
  110MOL    H9624294   5.685   5.338   0.198 -1.2928  0.1219 -0.5013
  110MOL    H9724295   5.797   5.563   0.085  0.0180  0.6737 -0.4961
  110MOL    H9824296   5.717   5.747   0.106  0.0253  0.6641  0.3060
  110MOL    H9924297   5.682   5.815   0.272 -0.6890 -1.1412  0.3524
  110MOL   H10024298   5.837   5.829   0.193 -1.6241  0.7833  0.0339
  110MOL   C10124299   5.923   5.432   0.208 -0.1582  0.3779 -0.4700
  110MOL   C10224300   6.039   5.448   0.105 -0.5593 -0.1629  0.1270
  110MOL   C10324301   6.080   5.595   0.084 -0.1551 -0.0186  0.1400
  110MOL   O10424302   6.014   5.663   0.008 -0.6834  0.9151 -0.2360
  110MOL   C10524303   6.188   5.652   0.174  0.1996 -1.0399 -0.3148
  110MOL   H10624304   5.959   5.434   0.311 -0.6284 -0.7783 -0.2737
  110MOL   H10724305   5.894   5.327   0.215  1.1923  0.0228  0.0932
  110MOL   H10824306   6.123   5.411   0.163 -0.9735 -0.5695  0.4642
  110MOL   H10924307   6.158   5.753   0.205  2.1315 -0.2388 -1.0157
  110MOL   H11024308   6.199   5.591   0.264 -2.5702 -0.6230  0.3735
  110MOL   H11124309   6.286   5.655   0.127 -0.0244 -1.0477 -0.7874
  110MOL   C11224310   6.013   5.372   7.836  1.0486 -0.1051  0.4017
  110MOL   C11324311   6.138   5.312   7.757  0.3586 -0.0538 -0.2945
  110MOL   C11424312   6.129   5.359   7.612 -0.5129 -0.5674 -0.0470
  110MOL   O11524313   6.096   5.282   7.525  0.0589  0.4678 -0.2150
  110MOL   C11624314   6.147   5.507   7.577  0.1634 -0.2498 -0.2231
  110MOL   H11724315   5.941   5.427   7.777 -0.1290 -0.3633  1.5621
  110MOL   H11824316   5.941   5.293   0.002  2.0131 -1.2703 -0.4425
  110MOL   H11924317   6.235   5.351   7.786  0.3553  0.6008 -1.1431
  110MOL   H12024318   6.147   5.525   7.469  0.7910 -0.2489 -0.2278
  110MOL   H12124319   6.069   5.573   7.613  0.1097  0.2926 -1.3103
  110MOL   H12224320   6.245   5.547   7.607 -0.2103  0.5864 -0.0939
  110MOL   C12324321   6.141   5.153   7.768  0.7860  0.3162 -0.1408
  110MOL   C12424322   6.140   5.101   0.055 -0.9353 -0.4851  0.0449
  110MOL   C12524323   6.264   5.151   0.126 -0.3394  0.8384  0.5972
  110MOL   O12624324   6.253   5.198   0.238  0.3599 -0.0742  0.1762
  110MOL   C12724325   6.400   5.142   0.056 -0.7095 -0.1551  0.6112
  110MOL   H12824326   6.224   5.117   7.708 -1.1945 -1.4603 -1.9370
  110MOL   H12924327   6.054   5.109   7.719  2.7508 -0.1269 -3.3599
  110MOL   H13024328   6.064   5.146   0.120 -0.1480  1.0699 -0.0799
  110MOL   H13124329   6.409   5.046   0.005  2.6873  0.7121 -0.5503
  110MOL   H13224330   6.462   5.152   0.145  0.0116  0.0120  0.1011
  110MOL   H13324331   6.433   5.214   7.838 -0.9703 -1.0560 -0.3702
  110MOL   C13424332   6.118   4.946   0.059 -0.1062 -0.8027 -0.6076
  110MOL   C13524333   6.121   4.876   0.198 -0.1764  1.0696  0.6393
  110MOL   C13624334   6.021   4.930   0.314  0.2442 -0.2695  0.6480
  110MOL   O13724335   5.901   4.941   0.290 -0.1733 -0.0722  0.1755
  110MOL   C13824336   6.076   4.976   0.442  0.0666  0.5773 -0.0643
  110MOL   H13924337   6.195   4.896   0.000 -0.8193 -1.7503 -0.7462
  110MOL   H14024338   6.025   4.927   0.007 -1.2107  1.8343  0.3275
  110MOL   H14124339   6.226   4.868   0.228  0.5551 -1.4055 -2.3132
  110MOL   H14224340   5.992   4.992   0.510 -1.1221 -1.9860 -0.8465
  110MOL   H14324341   6.121   5.074   0.425  1.1412 -0.2572 -2.1820
  110MOL   H14424342   6.151   4.901   0.466 -2.4961 -2.2277 -0.4657
  110MOL   C14524343   6.081   4.728   0.157  0.1616 -0.5968  0.0375
  110MOL   C14624344   6.076   4.634   0.277 -0.5331  0.0984  0.4312
  110MOL   C14724345   5.990   4.506   0.252  0.3564 -0.6123 -0.1050
  110MOL   O14824346   6.049   4.406   0.230 -0.4071 -0.0196  0.2762
  110MOL   C14924347   5.840   4.526   0.260  0.0347 -0.6888 -0.0255
  110MOL   H15024348   6.138   4.695   0.070  0.5896 -3.4162  1.3499
  110MOL   H15124349   5.977   4.737   0.123  0.5655  1.0581 -0.8398
  110MOL   H15224350   6.038   4.690   0.363 -3.4870 -0.4482 -0.4727
  110MOL   H15324351   5.805   4.560   0.163 -0.5042  0.4390  0.5442
  110MOL   H15424352   5.793   4.427   0.262 -0.8350 -0.2922 -0.4973
  110MOL   H15524353   5.802   4.588   0.341  2.6849 -0.6124  1.1962
  110MOL   C15624354   6.229   4.605   0.307  0.3223 -0.0601 -0.2980
  110MOL   C15724355   6.260   4.519   0.436 -0.3129 -0.2541 -0.3444
  110MOL   C15824356   6.242   4.601   0.568  0.2922 -0.6757  0.2280
  110MOL   O15924357   6.226   4.723   0.570 -0.5809  0.3749 -0.0958
  110MOL   C16024358   6.199   4.519   0.691  0.8329 -0.1896 -1.1275
  110MOL   H16124359   6.267   4.549   0.221  2.5994 -1.0642  1.3105
  110MOL   H16224360   6.290   4.694   0.315 -1.9041  1.3176  1.9556
  110MOL   H16324361   6.194   4.433   0.447 -1.3809  0.5193 -0.5761
  110MOL   H16424362   6.135   4.590   0.744 -0.0823 -1.7753 -0.0707
  110MOL   H16524363   6.283   4.489   0.753  0.9131  0.4708 -0.9059
  110MOL   H16624364   6.131   4.443   0.654  0.7871 -0.8878  0.3595
  110MOL   C16724365   6.407   4.475   0.431  0.7674  0.3093 -0.4392
  110MOL   C16824366   6.421   4.319   0.409 -0.5305 -1.2512  0.1881
  110MOL   C16924367   6.555   4.268   0.466 -0.3574 -0.4076  0.3748
  110MOL   O17024368   6.658   4.272   0.393 -0.5532  0.3531 -0.1628
  110MOL   C17124369   6.565   4.210   0.604  0.1626  0.2514  0.1871
  110MOL   H17224370   6.468   4.533   0.361 -0.9971  2.0091 -0.6173
  110MOL   H17324371   6.453   4.496   0.527 -2.3395 -0.2784  1.2413
  110MOL   H17424372   6.341   4.275   0.468 -1.0064 -2.0896 -1.0641
  110MOL   H17524373   6.635   4.269   0.663 -1.6154  0.3828  2.2522
  110MOL   H17624374   6.603   4.110   0.584 -2.0193 -0.5849  0.0001
  110MOL   H17724375   6.467   4.198   0.650  0.7016 -3.1360  0.5807
  110MOL   C17824376   6.394   4.270   0.266  0.4123  1.0980  1.1656
  110MOL   C17924377   6.402   4.117   0.256 -0.1288  0.2407 -0.0177
  110MOL   C18024378   6.430   4.074   0.111 -0.7897  0.8745  0.3965
  110MOL   O18124379   6.517   3.990   0.085  0.0123 -0.0360  0.5976
  110MOL   C18224380   6.341   4.128   0.000  0.3302  0.3130  0.2158
  110MOL   H18324381   6.294   4.302   0.237  0.9974  1.8295 -0.1236
  110MOL   H18424382   6.460   4.304   0.185 -1.4273  0.8364 -0.4742
  110MOL   H18524383   6.481   4.075   0.318 -0.5706  1.6982  1.5935
  110MOL   H18624384   6.406   4.157   7.776 -0.9851  0.7064 -0.7091
  110MOL   H18724385   6.289   4.214   0.043  0.6849 -1.1550  3.7683
  110MOL   H18824386   6.268   4.052   7.828  0.0007 -0.2353  2.2997
  110MOL   C18924387   6.268   4.050   0.301 -0.2930 -0.9134 -0.4567
  110MOL   C19024388   6.278   3.895   0.298  0.0049 -0.2667  0.0545
  110MOL   C19124389   6.257   3.846   0.437  0.3535 -0.0567 -0.4583
  110MOL   O19224390   6.146   3.804   0.474  0.0427  0.1713  0.2420
  110MOL   C19324391   6.373   3.839   0.534  1.3104  0.3693  0.2690
  110MOL   H19424392   6.238   4.082   0.401  2.5682 -0.3487  0.2586
  110MOL   H19524393   6.185   4.083   0.238 -0.5646  0.9189  0.8319
  110MOL   H19624394   6.376   3.864   0.261 -0.6271  0.7934 -2.6230
  110MOL   H19724395   6.350   3.898   0.622  3.6322 -2.1048  2.6321
  110MOL   H19824396   6.375   3.735   0.566  0.7217  0.2636 -0.0347
  110MOL   H19924397   6.471   3.875   0.502  0.6508  1.2357 -0.8413
  110MOL   C20024398   6.182   3.834   0.194 -0.2689 -0.2736 -0.9408
  110MOL   C20124399   6.223   3.687   0.167 -0.4850  0.6757  0.3332
  110MOL   C20224400   6.293   3.670   0.029 -0.4389  0.6294 -0.0085
  110MOL   O20324401   6.285   3.751   7.794  0.9794 -0.1480  0.5248
  110MOL   C20424402   6.369   3.535   0.016  0.5669 -0.6901 -0.5464
  110MOL   H20524403   6.079   3.849   0.224 -0.3373  1.1089 -1.8610
  110MOL   H20624404   6.192   3.888   0.100 -0.3556  1.7225  0.1833
  110MOL   H20724405   6.291   3.663   0.249  0.5676 -0.2577 -0.8008
  110MOL   H20824406   6.457   3.547   7.811 -0.0688  0.2510 -1.2533
  110MOL   H20924407   6.391   3.500   0.117 -2.7148  0.6236  0.6878
  110MOL   H21024408   6.318   3.445   7.839 -2.1176 -0.1329  1.7089
  110MOL   C21124409   6.112   3.578   0.178 -0.4595 -0.0455  0.0907
  110MOL   C21224410   6.118   3.508   0.313  0.8421 -0.3729 -0.0812
  110MOL   C21324411   5.975   3.481   0.365 -0.3594  0.0960  0.2272
  110MOL   O21424412   5.882   3.433   0.303  0.5406  0.1257 -0.0782
  110MOL   C21524413   5.945   3.535   0.501  0.3889 -0.4517  0.2673
  110MOL   H21624414   6.016   3.629   0.176 -1.6844 -2.1842  2.2447
  110MOL   H21724415   6.108   3.508   0.095 -0.7466 -0.3836  0.3923
  110MOL   H21824416   6.160   3.569   0.393 -2.3193 -1.3410  2.4180
  110MOL   H21924417   5.913   3.639   0.505  0.2089 -0.4370 -1.2765
  110MOL   H22024418   5.853   3.488   0.536 -0.2112  0.4718 -0.0691
  110MOL   H22124419   6.033   3.530   0.566  0.7273  0.2836 -0.1283
  110MOL   H22224420   6.169   3.412   0.322  0.9678 -0.3064 -0.0807
  111MOL     C124421   7.847   5.369   1.309  0.2118  0.0479  0.2293
  111MOL     C224422   0.046   5.496   1.354 -0.1897  0.8746 -0.3445
  111MOL     C324423   0.187   5.480   1.419  0.6990  0.6356  0.4017
  111MOL     O424424   0.287   5.502   1.354 -0.0049  0.1276  0.4822
  111MOL     C524425   0.189   5.452   1.571 -0.6242 -0.5493  0.4498
  111MOL     H624426   7.747   5.372   1.265 -1.1723 -3.0609  2.9499
  111MOL     H724427   7.831   5.311   1.400  0.1286 -1.9713 -1.0577
  111MOL     H824428   7.842   5.539   1.434  0.2684 -0.2172  0.6142
  111MOL     H924429   0.211   5.347   1.589 -1.2963 -0.0600  4.5714
  111MOL    H1024430   0.266   5.516   1.615 -0.9060 -0.9353  1.5202
  111MOL    H1124431   0.091   5.459   1.618 -0.5665  1.8424  0.2682
  111MOL    H1224432   0.055   5.317   1.239 -1.0836  0.5041 -1.3656
  111MOL    C1324433   0.052   5.597   1.236  0.0834  0.2889 -0.0540
  111MOL    C1424434   0.039   5.744   1.285  0.2933  0.5125 -0.2781
  111MOL    C1524435   7.792   5.815   1.203  0.1541 -0.6756  0.0204
  111MOL    O1624436   7.809   5.842   1.082 -0.4801  0.2054 -0.6137
  111MOL    C1724437   7.658   5.833   1.276  0.9422 -0.4521  0.1995
  111MOL    H1824438   0.145   5.578   1.182 -0.6426  0.6991 -1.4658
  111MOL    H1924439   7.835   5.576   1.159  0.6053 -2.1762  0.0815
  111MOL    H2024440   0.009   5.734   1.389  0.9838 -0.7601 -0.1970
  111MOL    H2124441   7.586   5.858   1.199 -2.1585  1.5764  3.6047
  111MOL    H2224442   7.634   5.746   1.338 -0.0224 -0.0820  0.3468
  111MOL    H2324443   7.668   5.925   1.334 -1.4593  0.1697 -0.3324
  111MOL    C2424444   0.169   5.827   1.282  0.6235  0.3848  0.3375
  111MOL    C2524445   0.154   5.971   1.342  0.0412  0.2307 -0.2648
  111MOL    C2624446   0.130   5.976   1.490 -0.6347  0.0481  0.2086
  111MOL    O2724447   0.144   5.877   1.563 -0.0802 -0.0647  0.1375
  111MOL    C2824448   0.091   6.110   1.554 -0.3011  0.1516  0.6706
  111MOL    H2924449   0.243   5.777   1.344  1.3356  0.3485 -0.5376
  111MOL    H3024450   0.209   5.833   1.181 -0.5438 -0.2420 -0.1807
  111MOL    H3124451   0.065   6.019   1.301  0.9945  1.3663 -1.0391
  111MOL    H3224452   0.012   6.153   1.492  0.5690  1.6234  0.5780
  111MOL    H3324453   0.059   6.109   1.658 -0.3324  1.6280  0.6770
  111MOL    H3424454   0.172   6.181   1.541  0.3751 -0.6440  0.5372
  111MOL    C3524455   0.272   6.057   1.298  0.5353 -0.1483 -0.3231
  111MOL    C3624456   0.268   6.102   1.145 -0.5956 -0.3226  0.6098
  111MOL    C3724457   0.151   6.188   1.101  0.3819  0.6767 -0.0776
  111MOL    O3824458   0.112   6.273   1.180 -0.2360  0.1119 -0.4515
  111MOL    C3924459   0.089   6.152   0.969  0.1499 -0.2387 -0.1270
  111MOL    H4024460   0.363   5.999   1.301  0.6902  0.1229  0.3934
  111MOL    H4124461   0.277   6.149   1.356 -0.0798  0.0327 -0.5539
  111MOL    H4224462   0.249   6.010   1.090  2.1409 -0.8574  0.4885
  111MOL    H4324463   0.019   6.233   0.950 -0.0997  0.4780  3.5557
  111MOL    H4424464   0.045   6.053   0.978  0.0220 -0.0145  1.7385
  111MOL    H4524465   0.162   6.149   0.888  0.3392  1.4739 -0.0304
  111MOL    C4624466   0.401   6.168   1.097 -0.4482  0.1959  0.6456
  111MOL    C4724467   0.522   6.078   1.083  0.3892  0.0282  0.4620
  111MOL    C4824468   0.519   5.989   0.951 -0.1524  0.3363 -0.2159
  111MOL    O4924469   0.438   6.006   0.863 -0.2690 -0.1474  0.3882
  111MOL    C5024470   0.619   5.877   0.946  0.3028 -0.6528 -0.8717
  111MOL    H5124471   0.432   6.243   1.169  1.5814  0.3292 -0.3235
  111MOL    H5224472   0.388   6.226   1.005 -0.3549  2.6914  2.1797
  111MOL    H5324473   0.520   6.008   1.167 -2.9859  1.6107  1.8019
  111MOL    H5424474   0.648   5.869   0.842 -0.6348  2.5547 -1.4285
  111MOL    H5524475   0.703   5.893   1.014 -0.8759  1.4201  0.1641
  111MOL    H5624476   0.570   5.785   0.977  0.3319 -0.0351  1.0926
  111MOL    C5724477   0.656   6.161   1.075  0.0283 -0.2293 -0.2655
  111MOL    C5824478   0.726   6.184   1.211  0.1608 -0.0063 -0.0983
  111MOL    C5924479   0.861   6.107   1.212 -0.2338  0.1042  0.4522
  111MOL    O6024480   0.965   6.166   1.199 -0.2910 -0.2925 -0.2355
  111MOL    C6124481   0.867   5.958   1.232 -0.2885 -0.0162  0.8198
  111MOL    H6224482   0.628   6.258   1.032  0.3023 -1.7220 -3.9753
  111MOL    H6324483   0.725   6.124   0.999  2.1512  1.8092  0.5894
  111MOL    H6424484   0.669   6.127   1.285  1.5465  0.9225  1.7423
  111MOL    H6524485   0.907   5.912   1.141  0.3842 -1.5468  1.8716
  111MOL    H6624486   0.948   5.933   1.301  0.5126  0.6600  0.1354
  111MOL    H6724487   0.778   5.913   1.276 -1.1668  2.6414  1.8453
  111MOL    C6824488   0.732   6.342   1.237 -0.3392  0.4203 -0.2944
  111MOL    C6924489   0.751   6.380   1.384 -0.1968  0.0584  0.2786
  111MOL    C7024490   0.628   6.329   1.455  0.0231  0.0949  0.6970
  111MOL    O7124491   0.513   6.366   1.423  0.1401 -0.2885 -0.4768
  111MOL    C7224492   0.651   6.235   1.566  0.4047 -0.3933 -0.0042
  111MOL    H7324493   0.824   6.376   1.189  0.0257  0.4993  0.4412
  111MOL    H7424494   0.651   6.397   1.190 -0.6207 -0.6962 -1.1226
  111MOL    H7524495   0.845   6.335   1.415  0.2895  0.0996 -1.0854
  111MOL    H7624496   0.751   6.193   1.572 -0.1129 -1.9392 -1.6851
  111MOL    H7724497   0.623   6.282   1.661  1.6919 -2.3176  1.3661
  111MOL    H7824498   0.593   6.144   1.550  1.2128 -1.2051  1.5946
  111MOL    C7924499   0.765   6.533   1.412 -0.3074 -0.8622  0.7299
  111MOL    C8024500   0.798   6.561   1.563 -0.2153  0.7700  0.0195
  111MOL    C8124501   0.766   6.706   1.587  0.0165  0.1607 -0.0364
  111MOL    O8224502   0.801   6.789   1.503 -0.3241 -0.1010 -0.3725
  111MOL    C8324503   0.691   6.732   1.715 -0.0703  0.6141 -0.0685
  111MOL    H8424504   0.673   6.580   1.378  2.0537  3.1225 -0.3581
  111MOL    H8524505   0.844   6.579   1.353  0.9788 -2.3273  1.2648
  111MOL    H8624506   0.736   6.506   1.634 -0.7485  2.4492  0.8850
  111MOL    H8724507   0.616   6.655   1.733  1.3954 -1.1491 -1.4086
  111MOL    H8824508   0.636   6.826   1.706  1.6757  1.5312 -1.4270
  111MOL    H8924509   0.768   6.726   1.792 -0.1858 -1.2222 -0.0927
  111MOL    C9024510   0.950   6.535   1.581 -0.4576  0.5189  0.2430
  111MOL    C9124511   0.993   6.542   1.729  0.6292  0.2749  0.2003
  111MOL    C9224512   0.920   6.439   1.804 -0.7297 -0.4710 -0.6496
  111MOL    O9324513   0.936   6.322   1.776  0.5246 -0.4165 -0.3281
  111MOL    C9424514   0.829   6.475   1.923  0.5292  0.5062 -0.4216
  111MOL    H9524515   0.977   6.438   1.539 -0.2462  1.0625 -0.8875
  111MOL    H9624516   1.015   6.599   1.521  1.8235 -1.2985  0.7130
  111MOL    H9724517   0.968   6.637   1.777 -0.3081 -0.0122  0.2881
  111MOL    H9824518   0.791   6.390   1.980 -0.1154  0.7335 -0.5034
  111MOL    H9924519   0.876   6.530   2.004 -0.5942 -2.1304  2.1260
  111MOL   H10024520   0.744   6.536   1.890  0.5620  0.9905  0.3960
  111MOL   C10124521   1.150   6.526   1.727  0.1293 -0.1062  0.2495
  111MOL   C10224522   1.220   6.482   1.853 -1.1733 -0.3983  0.2431
  111MOL   C10324523   1.198   6.584   1.959  0.1866 -0.0132 -0.4467
  111MOL   O10424524   1.177   6.705   1.941 -0.0118  0.7804 -0.2435
  111MOL   C10524525   1.188   6.515   2.099  0.1895  0.1318  0.0415
  111MOL   H10624526   1.184   6.454   1.652  0.6408  0.2767  0.1147
  111MOL   H10724527   1.189   6.625   1.701  0.8536 -0.8764 -1.7329
  111MOL   H10824528   1.162   6.397   1.889 -1.5495 -0.6345 -0.9135
  111MOL   H10924529   1.114   6.436   2.093 -0.2004  0.5008 -0.0534
  111MOL   H11024530   1.290   6.482   2.120  0.7098  1.2478 -0.6630
  111MOL   H11124531   1.146   6.580   2.176 -0.7554  1.7276 -1.7852
  111MOL   C11224532   1.365   6.427   1.854 -0.6996 -0.0226  0.0940
  111MOL   C11324533   1.486   6.534   1.862  0.1108  0.0868 -0.0392
  111MOL   C11424534   1.483   6.636   1.752 -0.1243 -0.3979  0.7045
  111MOL   O11524535   1.493   6.601   1.636  0.5312 -0.3149 -0.1885
  111MOL   C11624536   1.460   6.782   1.793  0.1514 -0.3865 -0.0688
  111MOL   H11724537   1.384   6.370   1.762 -0.0132  0.2167  0.0852
  111MOL   H11824538   1.375   6.360   1.940  0.2451  1.0657  0.8427
  111MOL   H11924539   1.467   6.585   1.955 -0.6268 -1.8555  0.9072
  111MOL   H12024540   1.507   6.849   1.721 -1.3227  1.7622  0.8911
  111MOL   H12124541   1.354   6.807   1.788  0.9542  3.2245 -0.5302
  111MOL   H12224542   1.494   6.804   1.894 -2.2968 -0.3739  0.7952
  111MOL   C12324543   1.637   6.491   1.855  0.1600  0.2906  0.9041
  111MOL   C12424544   1.681   6.401   1.972  0.1268  0.2073  0.0446
  111MOL   C12524545   1.655   6.456   2.110 -0.4211  0.3757  0.7729
  111MOL   O12624546   1.677   6.574   2.144  0.1763  0.3861  0.5979
  111MOL   C12724547   1.587   6.368   2.214 -0.1566  0.8963 -0.9076
  111MOL   H12824548   1.712   6.569   1.845  2.1086 -1.6624 -0.2422
  111MOL   H12924549   1.653   6.443   1.758 -1.4355  2.6283 -0.5487
  111MOL   H13024550   1.608   6.320   1.966  0.8502 -0.3560 -1.1410
  111MOL   H13124551   1.508   6.310   2.166  0.0687 -0.9818  0.9176
  111MOL   H13224552   1.549   6.426   2.297  0.2286  2.4640 -1.8046
  111MOL   H13324553   1.659   6.294   2.251 -0.4214 -0.3592 -2.7748
  111MOL   C13424554   1.826   6.336   1.968  0.2302  0.2685 -0.0543
  111MOL   C13524555   1.942   6.421   1.922 -0.2287  0.6641  0.8945
  111MOL   C13624556   1.995   6.515   2.025 -0.1710 -0.1441 -0.4185
  111MOL   O13724557   2.025   6.472   2.139  0.0655  0.2128  0.0940
  111MOL   C13824558   1.984   6.663   2.000  0.6955  0.4234 -0.3668
  111MOL   H13924559   1.814   6.250   1.902 -0.2447  1.2498 -1.2644
  111MOL   H14024560   1.842   6.298   2.069  1.7997 -1.6849 -1.0062
  111MOL   H14124561   1.916   6.478   1.833  2.0160 -1.2721 -1.0712
  111MOL   H14224562   2.083   6.708   2.007  0.5204  1.1071 -2.1119
  111MOL   H14324563   1.906   6.695   2.069  0.9279 -0.1500  0.1711
  111MOL   H14424564   1.953   6.681   1.897 -1.7676  0.7300  0.4139
  111MOL   C14524565   2.066   6.345   1.863  0.8961 -0.1763  0.8482
  111MOL   C14624566   2.187   6.430   1.815  0.3873 -0.5103  0.1432
  111MOL   C14724567   2.319   6.346   1.808 -0.2107 -1.0133  0.0084
  111MOL   O14824568   2.414   6.364   1.885 -0.2248 -0.2431 -0.3970
  111MOL   C14924569   2.322   6.232   1.701  0.2218  0.4006  0.3881
  111MOL   H15024570   2.036   6.283   1.778 -0.2720  0.2264  0.9660
  111MOL   H15124571   2.111   6.283   1.941 -3.6171 -0.5681  3.2991
  111MOL   H15224572   2.214   6.504   1.890  2.1359  0.9536 -1.8363
  111MOL   H15324573   2.414   6.238   1.644  0.7259 -0.2558  1.1266
  111MOL   H15424574   2.327   6.135   1.751 -1.8286  0.2171  0.2774
  111MOL   H15524575   2.236   6.235   1.635  1.6578 -0.1733 -1.5391
  111MOL   C15624576   2.160   6.517   1.690 -0.0337 -0.2932  0.2570
  111MOL   C15724577   2.276   6.620   1.662 -0.4028 -0.4365  0.5047
  111MOL   C15824578   2.328   6.709   1.776 -0.3847 -0.3121  0.1172
  111MOL   O15924579   2.252   6.790   1.828  0.3085 -0.0632 -0.1847
  111MOL   C16024580   2.469   6.693   1.824  0.0901  0.4559  0.2465
  111MOL   H16124581   2.150   6.452   1.603 -0.5262  1.2637 -0.8850
  111MOL   H16224582   2.068   6.574   1.697  1.8263  2.9185 -0.3764
  111MOL   H16324583   2.356   6.554   1.630 -0.7853 -0.8851  0.4633
  111MOL   H16424584   2.539   6.657   1.749  0.7404  0.4594  0.8481
  111MOL   H16524585   2.478   6.623   1.908 -1.5967  1.1648  1.0489
  111MOL   H16624586   2.501   6.789   1.864  0.4948  0.7918 -0.8763
  111MOL   C16724587   2.251   6.709   1.539 -0.2732  0.2922  0.2548
  111MOL   C16824588   2.205   6.648   1.404  0.0431 -0.1571  0.3001
  111MOL   C16924589   2.058   6.641   1.377  0.1924  0.4268  0.6103
  111MOL   O17024590   1.980   6.642   1.470 -0.1417 -0.1699 -0.5696
  111MOL   C17124591   2.006   6.648   1.237 -0.0294 -0.4061  0.5828
  111MOL   H17224592   2.168   6.773   1.569  3.6602  4.8753  1.8394
  111MOL   H17324593   2.332   6.780   1.526  0.6222 -0.3415  2.1366
  111MOL   H17424594   2.246   6.713   1.327 -0.2459  0.3571  0.5814
  111MOL   H17524595   1.997   6.557   1.178 -2.2192 -0.5774  1.1745
  111MOL   H17624596   2.059   6.719   1.173  0.7936 -0.4564  1.1953
  111MOL   H17724597   1.901   6.675   1.235  0.4743  1.7868  1.4920
  111MOL   C17824598   2.268   6.511   1.374 -0.2245 -0.6097 -0.3230
  111MOL   C17924599   2.308   6.491   1.228  0.3094  0.2837 -0.3021
  111MOL   C18024600   2.301   6.337   1.194  0.1583 -1.1024 -0.0723
  111MOL   O18124601   2.222   6.312   1.109  0.5126 -0.0345  0.3138
  111MOL   C18224602   2.382   6.238   1.279 -0.3957 -0.0585 -0.3550
  111MOL   H18324603   2.362   6.501   1.430 -0.4607 -0.1149  0.1678
  111MOL   H18424604   2.204   6.429   1.405 -0.3658 -0.7023 -0.8538
  111MOL   H18524605   2.224   6.532   1.172  1.3461 -0.7008 -2.6501
  111MOL   H18624606   2.342   6.137   1.281 -0.6032 -0.0163 -1.8966
  111MOL   H18724607   2.405   6.271   1.380  1.7481 -0.1517 -0.7920
  111MOL   H18824608   2.473   6.223   1.221 -1.5515  0.2457 -2.2891
  111MOL   C18924609   2.453   6.539   1.209 -0.5389 -0.7689 -0.2922
  111MOL   C19024610   2.471   6.552   1.054  0.2118 -0.1319  0.6453
  111MOL   C19124611   2.377   6.650   0.984  0.6171  0.3349 -0.5345
  111MOL   O19224612   2.332   6.751   1.049 -0.3152 -0.1725  0.7036
  111MOL   C19324613   2.336   6.625   0.839 -0.1574  0.0363  0.0915
  111MOL   H19424614   2.476   6.635   1.255 -2.1714  0.1022 -1.2319
  111MOL   H19524615   2.515   6.467   1.262  0.6990  1.2101  1.0358
  111MOL   H19624616   2.458   6.458   1.001 -0.8563  1.4785 -2.0045
  111MOL   H19724617   2.335   6.517   0.827  0.0473  0.1559 -1.0184
  111MOL   H19824618   2.237   6.669   0.821 -0.4197  0.4683  2.4390
  111MOL   H19924619   2.400   6.675   0.767  0.5519 -1.8733 -0.6209
  111MOL   C20024620   2.617   6.603   1.026 -0.6394 -0.5430 -0.2658
  111MOL   C20124621   2.717   6.517   0.932  0.7234  0.4115 -0.1025
  111MOL   C20224622   2.716   6.366   0.982 -0.0934 -0.1210 -0.4273
  111MOL   O20324623   2.745   6.344   1.101  0.2074 -0.3624 -0.0491
  111MOL   C20424624   2.713   6.260   0.874 -0.5581 -0.2462 -0.5189
  111MOL   H20524625   2.622   6.701   0.977 -2.4928 -0.7170 -0.8435
  111MOL   H20624626   2.670   6.619   1.120  0.6655  0.3128 -1.1271
  111MOL   H20724627   2.673   6.522   0.832  1.7865 -0.3217 -0.6125
  111MOL   H20824628   2.619   6.207   0.857 -0.4831 -0.4593 -0.2698
  111MOL   H20924629   2.725   6.287   0.769 -0.8418 -1.2803 -0.8205
  111MOL   H21024630   2.800   6.198   0.893 -0.0149  0.9038  0.8047
  111MOL   C21124631   2.858   6.584   0.941  0.3411  0.3158  0.1675
  111MOL   C21224632   2.977   6.513   0.871 -0.3682  0.1590  0.0069
  111MOL   C21324633   2.985   6.551   0.718 -0.5479  0.4395 -0.0215
  111MOL   O21424634   2.882   6.555   0.650 -0.0502  0.2843 -0.5411
  111MOL   C21524635   3.118   6.561   0.650 -0.3172  0.1350 -0.0371
  111MOL   H21624636   2.846   6.683   0.896  0.0535  0.5671  0.7961
  111MOL   H21724637   2.878   6.608   1.045 -1.2749 -0.2739  0.6286
  111MOL   H21824638   2.972   6.405   0.888  1.7929  0.1137  0.5215
  111MOL   H21924639   3.170   6.469   0.677  1.5085  1.0777 -0.2569
  111MOL   H22024640   3.121   6.573   0.542  0.2491 -1.9895 -0.2920
  111MOL   H22124641   3.171   6.642   0.700  0.3237  2.0884 -3.7280
  111MOL   H22224642   3.067   6.556   0.915  1.5694  0.4235 -4.0503
  112MOL     C124643   4.712   6.638   6.727 -0.4573 -0.0337 -0.3205
  112MOL     C224644   4.714   6.549   6.592  0.2127  0.8428 -0.2701
  112MOL     C324645   4.607   6.444   6.609 -0.0316 -0.1981 -0.2861
  112MOL     O424646   4.630   6.326   6.615 -0.2670 -0.9919  1.1450
  112MOL     C524647   4.462   6.501   6.619 -0.4757  0.8411  0.0923
  112MOL     H624648   4.802   6.699   6.737 -0.5995 -0.0082  0.8765
  112MOL     H724649   4.687   6.585   6.819 -0.1438 -0.8454 -0.7008
  112MOL     H824650   4.806   6.490   6.598 -0.2922  0.1134  0.5029
  112MOL     H924651   4.444   6.598   6.572 -0.3629  1.5721  1.5452
  112MOL    H1024652   4.396   6.422   6.582 -0.7195  0.0047  2.2351
  112MOL    H1124653   4.424   6.522   6.719 -1.1079 -1.2127  0.3143
  112MOL    H1224654   4.633   6.713   6.726 -0.1509  0.3857  2.1566
  112MOL    C1324655   4.717   6.635   6.468 -0.0583  0.3563 -0.3445
  112MOL    C1424656   4.743   6.563   6.332 -0.6670 -0.6062  0.0017
  112MOL    C1524657   4.896   6.520   6.327  0.4772  0.6893 -0.5009
  112MOL    O1624658   4.978   6.584   6.268 -0.1967 -0.0170 -0.2104
  112MOL    C1724659   4.929   6.389   6.390  0.8456  0.0042  0.5938
  112MOL    H1824660   4.623   6.691   6.458  0.2663  1.1243  0.8359
  112MOL    H1924661   4.790   6.716   6.476  1.1043 -0.7291  0.0483
  112MOL    H2024662   4.682   6.472   6.324 -0.4282 -0.9363  1.6573
  112MOL    H2124663   4.842   6.325   6.378  0.6234  0.4725 -0.3767
  112MOL    H2224664   5.008   6.341   6.332  1.0726  2.0480 -0.8520
  112MOL    H2324665   4.969   6.394   6.491 -1.4617 -0.1204  1.5369
  112MOL    C2424666   4.694   6.645   6.204 -0.5187  0.1766 -0.3101
  112MOL    C2524667   4.672   6.555   6.070 -0.3593 -0.7942  0.0032
  112MOL    C2624668   4.545   6.469   6.059  0.6506  0.0234  0.8829
  112MOL    O2724669   4.445   6.490   6.134 -0.3525 -0.3683 -0.6593
  112MOL    C2824670   4.547   6.360   5.952  0.2304  0.8337  0.1239
  112MOL    H2924671   4.614   6.714   6.233 -2.2883 -1.7207 -0.5165
  112MOL    H3024672   4.774   6.714   6.178 -1.4423  1.2146 -0.4329
  112MOL    H3124673   4.750   6.478   6.068  0.7978  0.3379  0.5634
  112MOL    H3224674   4.494   6.275   5.995  1.2935 -0.8619 -1.8456
  112MOL    H3324675   4.498   6.396   5.862  0.8642  0.8321 -0.2239
  112MOL    H3424676   4.648   6.323   5.933  1.1026  2.6822  1.0225
  112MOL    C3524677   4.694   6.650   5.950 -0.0749 -0.4076  0.5461
  112MOL    C3624678   4.845   6.681   5.913 -0.5424 -0.2194  0.4604
  112MOL    C3724679   4.928   6.560   5.894 -0.0099  0.0833 -0.1003
  112MOL    O3824680   4.882   6.451   5.852 -0.0633  0.2010 -0.3488
  112MOL    C3924681   5.073   6.573   5.943  0.0908 -0.4773  0.2432
  112MOL    H4024682   4.635   6.739   5.972  0.0280 -0.1809 -0.0760
  112MOL    H4124683   4.634   6.618   5.865  0.8573 -0.5370 -0.0651
  112MOL    H4224684   4.881   6.722   6.007 -0.1793  0.5173  0.0025
  112MOL    H4324685   5.070   6.637   6.031  0.2416 -0.5823  0.3266
  112MOL    H4424686   5.135   6.617   5.865  0.5890  0.3820  1.1215
  112MOL    H4524687   5.113   6.473   5.961 -0.7272 -0.3863  2.8091
  112MOL    C4624688   4.874   6.774   5.794  0.0973  0.4335 -0.5077
  112MOL    C4724689   4.801   6.911   5.799  0.5793 -0.1034 -0.1551
  112MOL    C4824690   4.867   7.007   5.899 -0.2898  0.2383 -1.1364
  112MOL    O4924691   4.984   7.044   5.887 -0.2812  0.3056 -0.6321
  112MOL    C5024692   4.773   7.072   6.002 -0.1282  0.0407 -0.8621
  112MOL    H5124693   4.841   6.720   5.705  0.1041 -0.6448  0.1366
  112MOL    H5224694   4.980   6.790   5.779  0.1551  2.4951  1.8976
  112MOL    H5324695   4.701   6.882   5.835  1.1411 -0.9969  0.7291
  112MOL    H5424696   4.675   7.079   5.955 -0.7310  0.1744  0.4130
  112MOL    H5524697   4.778   7.012   6.093 -2.2842  0.8227 -0.2195
  112MOL    H5624698   4.809   7.174   6.016  0.0126 -0.1011 -0.1570
  112MOL    C5724699   4.798   6.956   5.653  0.1909  0.5038  0.3450
  112MOL    C5824700   4.708   7.087   5.636 -0.8655  0.1207  0.8145
  112MOL    C5924701   4.718   7.144   5.495  0.1271  0.2333  0.5158
  112MOL    O6024702   4.619   7.142   5.419 -0.0647  0.1654  0.7137
  112MOL    C6124703   4.851   7.212   5.456 -0.5918  0.1384 -0.2965
  112MOL    H6224704   4.759   6.877   5.589  1.2945 -2.6134  3.3969
  112MOL    H6324705   4.894   6.982   5.609  0.2319  1.0512  0.7567
  112MOL    H6424706   4.741   7.172   5.696  1.2848  0.5947 -0.9421
  112MOL    H6524707   4.897   7.247   5.548 -0.4633 -0.6969 -0.0335
  112MOL    H6624708   4.928   7.144   5.417  0.3427  1.5146 -0.8991
  112MOL    H6724709   4.846   7.277   5.368 -0.1759 -0.6765 -0.9356
  112MOL    C6824710   4.560   7.059   5.676 -0.2475  1.0141  0.7280
  112MOL    C6924711   4.461   7.181   5.689 -0.1297  0.2020  0.2859
  112MOL    C7024712   4.532   7.302   5.765  0.5256 -0.1819 -0.5717
  112MOL    O7124713   4.590   7.289   5.868  0.3506 -0.1027 -0.7770
  112MOL    C7224714   4.517   7.439   5.703  0.2659 -0.5880  0.9832
  112MOL    H7324715   4.506   6.987   5.614  1.1147  0.4406  0.1692
  112MOL    H7424716   4.562   7.014   5.775  0.4954  0.1118  0.3164
  112MOL    H7524717   4.434   7.215   5.590  1.6144 -0.8287 -0.5683
  112MOL    H7624718   4.437   7.432   5.629  1.2796 -0.2923 -0.1730
  112MOL    H7724719   4.495   7.523   5.769  0.9405  0.0975  0.3410
  112MOL    H7824720   4.611   7.457   5.650 -1.3195  0.9364 -1.4475
  112MOL    C7924721   4.331   7.147   5.755 -0.0097  0.5701 -0.8262
  112MOL    C8024722   4.210   7.241   5.721 -0.0939 -0.0469 -0.0466
  112MOL    C8124723   4.110   7.266   5.833 -0.0114 -0.0656  0.3444
  112MOL    O8224724   4.007   7.206   5.853  0.1747 -0.1221 -0.1548
  112MOL    C8324725   4.147   7.375   5.928 -0.3671  0.2076 -0.1062
  112MOL    H8424726   4.338   7.143   5.863 -2.0231  0.0549 -0.6898
  112MOL    H8524727   4.308   7.044   5.728  0.1698  0.8230 -1.9996
  112MOL    H8624728   4.260   7.338   5.710 -1.7681  0.7955 -0.4540
  112MOL    H8724729   4.116   7.356   6.031  1.5172 -2.8086 -0.0420
  112MOL    H8824730   4.103   7.470   5.897 -1.3536 -0.2159 -0.0221
  112MOL    H8924731   4.254   7.392   5.934 -0.5372  1.9381 -1.4377
  112MOL    C9024732   4.153   7.204   5.587  0.2070 -0.5661  0.4738
  112MOL    C9124733   4.027   7.282   5.535  0.5163 -0.1084 -0.3050
  112MOL    C9224734   4.052   7.431   5.524 -0.0416 -0.5824 -0.5116
  112MOL    O9324735   4.131   7.474   5.447  0.4839 -0.7173  0.3680
  112MOL    C9424736   3.969   7.526   5.618 -0.9255  0.0108 -0.4864
  112MOL    H9524737   4.225   7.215   5.506 -0.2091  0.1743  0.2050
  112MOL    H9624738   4.132   7.097   5.584 -0.1971 -0.5008  0.8880
  112MOL    H9724739   3.949   7.252   5.604 -0.5234  1.9954 -0.5243
  112MOL    H9824740   3.936   7.620   5.573 -0.3953  0.6144  0.3733
  112MOL    H9924741   3.879   7.476   5.655 -0.5952  0.5265  1.0618
  112MOL   H10024742   4.019   7.538   5.714 -3.0172  0.7306  0.5553
  112MOL   C10124743   3.983   7.220   5.396  0.1509  0.6382 -0.0105
  112MOL   C10224744   3.854   7.281   5.325 -0.6943 -0.1789 -0.2630
  112MOL   C10324745   3.722   7.222   5.369 -0.1950  0.1548  0.4626
  112MOL   O10424746   3.694   7.200   5.484 -0.2963  0.0202  0.2984
  112MOL   C10524747   3.606   7.208   5.267 -0.1948  0.5334  0.2171
  112MOL   H10624748   4.070   7.219   5.331  0.0399 -1.9370 -0.1398
  112MOL   H10724749   3.967   7.114   5.411 -2.1176  0.9413 -0.0992
  112MOL   H10824750   3.844   7.386   5.353  0.1119  0.0167 -0.6998
  112MOL   H10924751   3.631   7.233   5.164 -2.2678 -2.6315 -1.1250
  112MOL   H11024752   3.571   7.105   5.271  2.0690 -0.2805  0.0680
  112MOL   H11124753   3.532   7.282   5.298 -1.5710 -1.5363  1.9979
  112MOL   C11224754   3.878   7.290   5.169  0.4864 -0.3994 -0.0649
  112MOL   C11324755   3.972   7.406   5.133 -0.5953  0.2578  0.0305
  112MOL   C11424756   3.898   7.542   5.152  0.5424 -0.3335  0.3695
  112MOL   O11524757   3.792   7.567   5.089 -0.0979  0.0538  0.4647
  112MOL   C11624758   3.958   7.641   5.239 -0.6687  0.7634 -0.6657
  112MOL   H11724759   3.793   7.298   5.102  0.4508  1.3657  0.1729
  112MOL   H11824760   3.923   7.193   5.146 -0.0355 -1.1834  2.1674
  112MOL   H11924761   4.050   7.408   5.209 -0.4723  1.1948 -0.1147
  112MOL   H12024762   3.957   7.600   5.340  1.6828  1.5404 -0.2949
  112MOL   H12124763   4.065   7.649   5.220 -0.7375 -2.1862 -2.4726
  112MOL   H12224764   3.912   7.739   5.230 -1.2356  0.6915  1.1538
  112MOL   C12324765   4.042   7.390   4.995  0.5567 -0.2481  0.6277
  112MOL   C12424766   4.180   7.332   4.998  0.1991  0.0007 -0.0593
  112MOL   C12524767   4.276   7.413   5.091 -0.1142 -0.3391  0.5115
  112MOL   O12624768   4.321   7.527   5.062  0.1559  0.4166  0.1791
  112MOL   C12724769   4.325   7.339   5.217 -0.2708 -0.1127 -0.6167
  112MOL   H12824770   4.051   7.483   4.940  0.7776  1.2349  3.1023
  112MOL   H12924771   3.975   7.334   4.929 -2.1699  0.3620  2.7392
  112MOL   H13024772   4.164   7.231   5.036 -0.5554 -0.3072 -1.1554
  112MOL   H13124773   4.250   7.269   5.252  1.2340 -0.4168  2.1104
  112MOL   H13224774   4.359   7.420   5.281 -1.8663 -0.1198  0.2671
  112MOL   H13324775   4.420   7.287   5.203 -1.9269 -3.3303 -0.3171
  112MOL   C13424776   4.237   7.326   4.855  0.2351  0.4966 -0.1442
  112MOL   C13524777   4.356   7.225   4.854  0.8090  0.6944  0.6014
  112MOL   C13624778   4.306   7.078   4.854  0.1136 -0.3445  0.0456
  112MOL   O13724779   4.251   7.034   4.754  0.1200 -0.1004 -0.4288
  112MOL   C13824780   4.309   7.007   4.987 -0.3395 -0.9851 -0.0307
  112MOL   H13924781   4.279   7.422   4.825  0.6842 -0.2247 -1.8889
  112MOL   H14024782   4.159   7.298   4.784  0.6086  0.4430 -0.5366
  112MOL   H14124783   4.418   7.233   4.944  1.1397 -0.3792  0.4785
  112MOL   H14224784   4.390   6.935   4.981  0.6741 -0.2714  3.7539
  112MOL   H14324785   4.213   6.956   5.004 -0.0011 -1.7771 -0.4528
  112MOL   H14424786   4.320   7.069   5.076 -2.4575 -0.5883 -0.0174
  112MOL   C14524787   4.449   7.253   4.729  0.4736 -0.5023  0.0363
  112MOL   C14624788   4.601   7.243   4.747  0.1887  0.4989  0.7545
  112MOL   C14724789   4.643   7.331   4.865  0.7410  0.1642 -0.1200
  112MOL   O14824790   4.684   7.281   4.972 -0.1175 -0.3668  0.1782
  112MOL   C14924791   4.622   7.485   4.853  0.0356 -0.3524 -0.1895
  112MOL   H15024792   4.423   7.351   4.689  1.1042  0.7417  2.5833
  112MOL   H15124793   4.430   7.196   4.637  0.0462 -0.8626  0.3416
  112MOL   H15224794   4.643   7.279   4.654  1.4771 -0.3507  0.9941
  112MOL   H15324795   4.714   7.543   4.860 -0.2859 -0.0076  1.2583
  112MOL   H15424796   4.575   7.519   4.761  1.2403 -1.7766 -1.3701
  112MOL   H15524797   4.560   7.512   4.938 -1.0564  0.0866 -1.1119
  112MOL   C15624798   4.649   7.095   4.744 -0.3661 -0.5605  0.0159
  112MOL   C15724799   4.805   7.090   4.721 -0.3547  0.1571  0.5135
  112MOL   C15824800   4.852   7.106   4.576 -0.1867 -0.2942 -0.0884
  112MOL   O15924801   4.783   7.081   4.477  0.0540 -0.0764  0.7693
  112MOL   C16024802   5.000   7.124   4.555 -0.1448  0.3894 -0.0822
  112MOL   H16124803   4.624   7.045   4.838  0.4245 -1.3441 -0.1855
  112MOL   H16224804   4.596   7.036   4.670  0.6124 -0.5891 -0.6683
  112MOL   H16324805   4.856   7.180   4.758  1.6058  0.0147 -1.7338
  112MOL   H16424806   5.038   7.035   4.503 -0.7533 -0.2944  0.6247
  112MOL   H16524807   5.056   7.109   4.647 -0.5233 -0.3700  0.0259
  112MOL   H16624808   5.029   7.212   4.497  1.7983  0.2832  0.6869
  112MOL   C16724809   4.871   6.963   4.789  0.3637 -0.1598  0.0943
  112MOL   C16824810   4.883   6.996   4.937 -0.1368 -0.6560  0.3721
  112MOL   C16924811   4.967   7.122   4.969  0.5055 -0.2538 -0.0604
  112MOL   O17024812   5.056   7.159   4.889 -0.2645  0.3198  0.5886
  112MOL   C17124813   4.962   7.190   5.102 -0.2340 -0.0662 -0.3232
  112MOL   H17224814   4.810   6.877   4.764 -0.8088  0.9528 -0.9905
  112MOL   H17324815   4.972   6.937   4.756 -0.5884 -1.5025 -1.8285
  112MOL   H17424816   4.781   7.016   4.971 -0.2034 -1.8444  0.8611
  112MOL   H17524817   5.055   7.214   5.153  0.3181  0.0147 -1.3609
  112MOL   H17624818   4.900   7.125   5.165  0.3154 -0.8489 -0.5751
  112MOL   H17724819   4.910   7.284   5.087  1.6028  1.1568  0.8600
  112MOL   C17824820   4.943   6.883   5.022 -0.1753 -0.0170  0.0526
  112MOL   C17924821   4.835   6.769   5.058  0.0389 -0.1466 -0.3488
  112MOL   C18024822   4.771   6.799   5.193  0.1642 -0.1462 -0.4579
  112MOL   O18124823   4.826   6.766   5.301 -0.2734  0.1476  0.0755
  112MOL   C18224824   4.640   6.871   5.196  0.2761 -0.2501  0.2250
  112MOL   H18324825   5.034   6.840   4.980 -0.4871  0.8894 -1.5740
  112MOL   H18424826   4.983   6.925   5.114  1.1366  0.2241 -0.6202
  112MOL   H18524827   4.755   6.774   4.985  0.3173 -1.3461 -0.7390
  112MOL   H18624828   4.653   6.978   5.206  1.5731 -0.5781  2.1857
  112MOL   H18724829   4.589   6.842   5.288  0.4522 -2.1765 -0.2536
  112MOL   H18824830   4.581   6.851   5.106  1.8212 -2.1880 -0.4020
  112MOL   C18924831   4.905   6.632   5.051 -0.5399 -0.7752 -0.0317
  112MOL   C19024832   4.811   6.508   5.083 -0.6937 -0.4861  0.9260
  112MOL   C19124833   4.693   6.491   4.988 -0.3386  0.2038 -0.2895
  112MOL   O19224834   4.713   6.516   4.867  0.0200  0.7910 -0.6899
  112MOL   C19324835   4.560   6.442   5.040 -0.4485  1.0043 -0.0726
  112MOL   H19424836   4.947   6.626   4.951  0.6690  1.6361  0.2871
  112MOL   H19524837   4.990   6.633   5.119 -0.2495 -2.2310 -0.3471
  112MOL   H19624838   4.760   6.528   5.177  1.0494  0.4147  1.7126
  112MOL   H19724839   4.510   6.526   5.088 -1.9234  0.3539 -0.4336
  112MOL   H19824840   4.486   6.406   4.968 -1.8493  4.3626 -0.3643
  112MOL   H19924841   4.571   6.363   5.115  1.2601 -0.7476 -2.1062
  112MOL   C20024842   4.901   6.387   5.097  0.6590 -0.3432 -0.9449
  112MOL   C20124843   4.892   6.328   5.243  0.1333  0.8220 -0.2000
  112MOL   C20224844   4.960   6.404   5.353 -0.0709 -0.0444  0.0482
  112MOL   O20324845   5.078   6.424   5.354 -0.6403  0.4047 -0.1192
  112MOL   C20424846   4.877   6.462   5.468 -0.2107  0.1394  0.6242
  112MOL   H20524847   4.876   6.316   5.019  0.7283  0.7103 -1.9455
  112MOL   H20624848   5.004   6.422   5.087  0.0856  1.9611  0.6508
  112MOL   H20724849   4.788   6.331   5.276  0.2009 -0.2035  0.1076
  112MOL   H20824850   4.937   6.456   5.559  1.2235  1.0232 -0.2388
  112MOL   H20924851   4.847   6.564   5.444 -3.5211 -0.6824  1.0381
  112MOL   H21024852   4.781   6.411   5.472  0.6352 -1.5249  0.0183
  112MOL   C21124853   4.934   6.182   5.255 -0.2178 -0.6646  0.2858
  112MOL   C21224854   5.065   6.155   5.183 -0.1130 -0.1248  0.2005
  112MOL   C21324855   5.114   6.013   5.198  0.4574 -0.4874  0.5233
  112MOL   O21424856   5.025   5.924   5.194  0.4176 -0.0803 -0.4089
  112MOL   C21524857   5.262   5.989   5.187 -0.0807  0.1551  0.3383
  112MOL   H21624858   4.943   6.148   5.358  3.7671 -0.1830  0.1694
  112MOL   H21724859   4.854   6.116   5.221 -0.8521  0.1731  0.1409
  112MOL   H21824860   5.138   6.228   5.218 -0.2279 -0.7686  1.8011
  112MOL   H21924861   5.282   5.891   5.231 -0.0890 -0.0244 -0.0572
  112MOL   H22024862   5.304   5.982   5.087 -1.3407  1.9781 -0.3427
  112MOL   H22124863   5.313   6.075   5.229  0.0506 -0.3559  1.2282
  112MOL   H22224864   5.058   6.184   5.078 -2.9046  0.8417  0.6111
  113MOL     C124865   7.769   3.600   6.030 -0.2064  0.0332  0.2186
  113MOL     C224866   7.615   3.571   6.033  0.2890 -0.1160  0.6417
  113MOL     C324867   7.555   3.638   6.158  0.1757  0.6506 -0.5169
  113MOL     O424868   7.501   3.747   6.157 -0.7508 -0.1199 -0.2628
  113MOL     C524869   7.540   3.553   6.278 -0.4291 -0.7209 -0.3858
  113MOL     H624870   7.800   3.605   5.926  1.2242  0.4844  0.6427
  113MOL     H724871   7.810   3.510   6.075 -1.0663 -1.0677 -1.1475
  113MOL     H824872   7.617   3.463   6.044  0.8696 -0.1995 -0.2401
  113MOL     H924873   7.618   3.480   6.256  0.4893  0.0573  0.2594
  113MOL    H1024874   7.566   3.611   6.366  0.3375  0.2464 -1.2329
  113MOL    H1124875   7.440   3.511   6.285 -0.2097 -0.9850  1.4689
  113MOL    H1224876   7.802   3.693   6.077 -1.7686  0.6254  0.1680
  113MOL    C1324877   7.543   3.605   5.899  0.4658  0.0353 -0.0904
  113MOL    C1424878   7.387   3.579   5.903 -0.7172 -0.1120  0.6684
  113MOL    C1524879   7.357   3.430   5.941  0.6429 -0.0269  0.4324
  113MOL    O1624880   7.313   3.394   6.051  0.6903  0.0595  0.2740
  113MOL    C1724881   7.379   3.326   5.834 -0.3254  0.0771 -0.1065
  113MOL    H1824882   7.561   3.712   5.889  1.6111 -0.2369 -1.1046
  113MOL    H1924883   7.585   3.543   5.820  2.4390  2.0459 -0.6593
  113MOL    H2024884   7.355   3.647   5.982  0.5723  0.8797  0.3657
  113MOL    H2124885   7.288   3.302   5.779 -0.5060 -0.2861  0.3574
  113MOL    H2224886   7.459   3.358   5.766 -0.2162 -1.0351 -0.5181
  113MOL    H2324887   7.414   3.236   5.884  1.5073  0.8668  0.0657
  113MOL    C2424888   7.324   3.623   5.768  0.0268  0.2890  0.7030
  113MOL    C2524889   7.184   3.704   5.768  0.2299 -0.3047  0.2975
  113MOL    C2624890   7.081   3.628   5.847  0.2048  0.6909  0.4123
  113MOL    O2724891   7.051   3.652   5.964  0.4309 -0.6677 -0.0116
  113MOL    C2824892   7.013   3.514   5.770  0.3671  0.6451 -0.2132
  113MOL    H2924893   7.388   3.692   5.714 -0.0992 -0.8377 -0.8985
  113MOL    H3024894   7.304   3.538   5.703  0.1841  1.4771 -0.9233
  113MOL    H3124895   7.138   3.719   5.671  1.3488  0.4935 -0.1268
  113MOL    H3224896   6.934   3.470   5.830  0.2195  0.3331 -0.6331
  113MOL    H3324897   6.962   3.555   5.683  2.7685  3.5317 -0.3277
  113MOL    H3424898   7.077   3.432   5.736 -1.0780 -0.2000 -0.9837
  113MOL    C3524899   7.199   3.842   5.837  0.0677 -0.9112 -0.1361
  113MOL    C3624900   7.315   3.942   5.783  0.3923  1.0436  0.4657
  113MOL    C3724901   7.306   3.957   5.627  0.1352 -0.2260  0.2728
  113MOL    O3824902   7.391   3.906   5.554 -0.2075 -0.2655  0.5429
  113MOL    C3924903   7.188   4.031   5.566  0.2389 -0.2203  0.1192
  113MOL    H4024904   7.222   3.819   5.941 -4.3350 -3.3859  0.3751
  113MOL    H4124905   7.103   3.893   5.845  0.6289 -0.4123  4.2624
  113MOL    H4224906   7.411   3.892   5.797  0.4080  0.3463 -1.9400
  113MOL    H4324907   7.098   4.009   5.624  0.3378 -0.7495  0.0716
  113MOL    H4424908   7.180   4.002   5.462  1.7966 -0.3563  0.0258
  113MOL    H4524909   7.203   4.139   5.572  0.1687 -0.1676 -0.6825
  113MOL    C4624910   7.329   4.074   5.868 -0.6188 -0.3213  0.2259
  113MOL    C4724911   7.383   4.043   6.016  0.0140  0.2071 -0.9705
  113MOL    C4824912   7.536   4.076   6.022  0.8862  0.2111 -0.3221
  113MOL    O4924913   7.579   4.155   6.108  0.1902  0.3429  0.7996
  113MOL    C5024914   7.634   4.008   5.926  0.0024 -0.2120 -0.5771
  113MOL    H5124915   7.226   4.110   5.864  0.0595  1.5489 -1.0791
  113MOL    H5224916   7.383   4.157   5.823 -2.1982  1.6382  1.8702
  113MOL    H5324917   7.379   3.937   6.039 -4.3525 -0.1048 -2.6619
  113MOL    H5424918   7.661   4.086   5.856 -0.1436 -1.1372 -1.6731
  113MOL    H5524919   7.719   3.972   5.984 -0.5768 -0.2821  0.2452
  113MOL    H5624920   7.582   3.928   5.873 -0.4872 -0.4785  0.2936
  113MOL    C5724921   7.302   4.125   6.128  0.5357 -0.2770  0.4469
  113MOL    C5824922   7.147   4.086   6.130  0.0215  0.2197  0.6939
  113MOL    C5924923   7.120   4.006   6.253  0.2432  0.4298  0.3754
  113MOL    O6024924   7.062   4.050   6.354 -0.3702 -0.5534  0.4502
  113MOL    C6124925   7.169   3.863   6.253 -0.4951  0.2908  0.1676
  113MOL    H6224926   7.319   4.232   6.117  1.3032 -0.5506 -1.1575
  113MOL    H6324927   7.347   4.107   6.226 -0.9281 -1.4174  0.9330
  113MOL    H6424928   7.129   4.027   6.041 -2.5904 -0.7887  1.8441
  113MOL    H6524929   7.145   3.810   6.161 -2.9254  1.4323  0.1032
  113MOL    H6624930   7.274   3.864   6.281 -0.6593 -2.6418  1.0293
  113MOL    H6724931   7.126   3.809   6.337  1.1219  1.0330  1.4834
  113MOL    C6824932   7.062   4.215   6.110  0.4075  0.7267  0.9750
  113MOL    C6924933   6.911   4.194   6.133  0.1925  0.9970 -0.2583
  113MOL    C7024934   6.847   4.084   6.049  0.4284  0.5233  0.5694
  113MOL    O7124935   6.848   4.081   5.929 -0.0612 -0.1314  0.2950
  113MOL    C7224936   6.793   3.967   6.124  0.0011  0.7449  0.0660
  113MOL    H7324937   7.105   4.299   6.165 -2.8364  1.1281  3.0163
  113MOL    H7424938   7.060   4.245   6.005 -0.6612  0.4412  0.9067
  113MOL    H7524939   6.908   4.159   6.237 -2.4757  1.5620 -0.0864
  113MOL    H7624940   6.848   3.875   6.104 -0.1388  0.9576 -1.3170
  113MOL    H7724941   6.776   3.981   6.231 -2.1357  0.2630 -0.1810
  113MOL    H7824942   6.692   3.943   6.091 -0.1912 -0.0689  1.2222
  113MOL    C7924943   6.834   4.326   6.117  0.0001  0.2438  0.6554
  113MOL    C8024944   6.848   4.433   6.225  0.2060  0.0461  0.4406
  113MOL    C8124945   6.748   4.393   6.331 -0.3336 -0.1918 -0.4606
  113MOL    O8224946   6.642   4.456   6.341 -0.2269 -0.5730  0.1365
  113MOL    C8324947   6.781   4.276   6.430 -0.3940  0.4320  0.4123
  113MOL    H8424948   6.731   4.305   6.087  0.1653 -1.6102  1.3258
  113MOL    H8524949   6.862   4.371   6.022  0.1111  1.1374  1.1028
  113MOL    H8624950   6.950   4.422   6.264 -0.3744 -0.1989  1.9189
  113MOL    H8724951   6.749   4.183   6.384 -0.3709 -0.4195  2.1131
  113MOL    H8824952   6.734   4.297   6.526  0.8923  2.4286  0.6434
  113MOL    H8924953   6.885   4.258   6.454 -0.9902 -2.7313  0.7442
  113MOL    C9024954   6.829   4.575   6.165  0.3408  0.3454 -0.0885
  113MOL    C9124955   6.865   4.700   6.246  0.6123 -0.0616  0.0590
  113MOL    C9224956   6.988   4.685   6.334 -0.4811  0.6967  0.4641
  113MOL    O9324957   6.986   4.727   6.443  0.1701 -0.0053 -0.7540
  113MOL    C9424958   7.120   4.630   6.276  0.2662  0.2756  0.4179
  113MOL    H9524959   6.896   4.588   6.081 -1.5726  2.4323 -1.3424
  113MOL    H9624960   6.722   4.580   6.143 -0.3196  0.8538  2.9144
  113MOL    H9724961   6.785   4.702   6.320  0.3371  1.1821 -0.2646
  113MOL    H9824962   7.142   4.537   6.327  2.2783  0.3345 -0.2870
  113MOL    H9924963   7.120   4.616   6.168 -0.2015 -2.3049  0.7264
  113MOL   H10024964   7.208   4.689   6.301  0.2909  0.2859  0.3081
  113MOL   C10124965   6.864   4.829   6.170  0.0696  0.7249 -0.5225
  113MOL   C10224966   6.860   4.959   6.252 -0.0202 -0.3031 -0.3405
  113MOL   C10324967   6.720   4.982   6.310  0.6294  0.8669  0.9337
  113MOL   O10424968   6.619   4.933   6.256  0.2127  0.5775  0.0786
  113MOL   C10524969   6.701   5.072   6.430 -0.0910 -0.0532 -0.6039
  113MOL   H10624970   6.949   4.831   6.103 -1.7611  0.3732 -2.9489
  113MOL   H10724971   6.776   4.842   6.106 -1.4179  0.3513  1.3999
  113MOL   H10824972   6.927   4.955   6.338 -1.6577  1.5750  1.0779
  113MOL   H10924973   6.771   5.053   6.511  2.3584 -0.3930 -2.7045
  113MOL   H11024974   6.704   5.181   6.419  0.8699  0.0121  0.1832
  113MOL   H11124975   6.604   5.065   6.479 -0.5514  2.1616 -1.1467
  113MOL   C11224976   6.897   5.088   6.171 -0.0705 -0.6914 -0.4787
  113MOL   C11324977   7.050   5.123   6.157 -0.2403  0.3559  0.3946
  113MOL   C11424978   7.133   5.124   6.289 -0.1289 -0.0469  0.2863
  113MOL   O11524979   7.142   5.226   6.359  0.4584 -0.3877 -0.0919
  113MOL   C11624980   7.220   4.993   6.326  0.2693 -0.7965  0.0125
  113MOL   H11724981   6.839   5.164   6.223 -2.6074 -3.1077  0.3541
  113MOL   H11824982   6.864   5.083   6.067 -0.6953  0.2549 -0.3334
  113MOL   H11924983   7.095   5.045   6.095 -0.9709  0.9093 -0.8448
  113MOL   H12024984   7.281   5.010   6.414  0.6058 -0.4039 -0.2922
  113MOL   H12124985   7.143   4.919   6.348 -0.1517 -0.1946  0.5880
  113MOL   H12224986   7.273   4.959   6.237  0.4176  1.8577 -0.9648
  113MOL   C12324987   7.073   5.255   6.071 -0.4926 -0.1067 -0.5273
  113MOL   C12424988   7.223   5.290   6.037  0.0853  0.8258 -0.6298
  113MOL   C12524989   7.231   5.440   5.991 -0.5460  0.4342  0.1401
  113MOL   O12624990   7.300   5.523   6.048 -0.0061  0.2478  0.4431
  113MOL   C12724991   7.169   5.477   5.856 -0.3830 -0.4074  1.1502
  113MOL   H12824992   7.028   5.334   6.130 -2.9639 -1.7349 -0.1330
  113MOL   H12924993   7.016   5.242   5.979  1.2844 -0.3490 -1.6277
  113MOL   H13024994   7.280   5.296   6.130 -1.9107  0.9401  0.6246
  113MOL   H13124995   7.105   5.401   5.812  0.2295 -0.1406 -0.2109
  113MOL   H13224996   7.243   5.513   5.784 -0.4622  3.9789  3.1080
  113MOL   H13324997   7.104   5.564   5.872  1.1030  0.7668  0.9516
  113MOL   C13424998   7.294   5.194   5.939  0.7651 -0.0436  0.0049
  113MOL   C13524999   7.454   5.208   5.929 -0.4322 -0.1401  0.5589
  113MOL   C13625000   7.528   5.215   6.058  0.4030  0.2616 -0.0501
  113MOL   O13725001   7.486   5.164   6.161  0.1971  0.7888 -0.7155
  113MOL   C13825002   7.670   5.269   6.060 -0.0300 -0.6019  0.3409
  113MOL   H13925003   7.254   5.210   5.839 -0.2241  0.6381  0.5028
  113MOL   H14025004   7.267   5.097   5.979  0.8454  0.4213  1.2150
  113MOL   H14125005   7.481   5.304   5.885  1.5755 -0.4400  1.1048
  113MOL   H14225006   7.728   5.237   5.973 -0.4415  0.0423 -0.1788
  113MOL   H14325007   7.720   5.235   6.151 -0.3039  0.0002  0.7225
  113MOL   H14425008   7.655   5.377   6.063 -1.8814 -0.8977  2.5344
  113MOL   C14525009   7.514   5.114   5.829 -0.3211  0.3367  0.2320
  113MOL   C14625010   7.471   4.966   5.833 -0.3205  0.1209  0.3202
  113MOL   C14725011   7.545   4.887   5.724  0.4727 -0.4665 -0.5879
  113MOL   O14825012   7.622   4.794   5.735  0.2506 -0.3996 -0.4836
  113MOL   C14925013   7.519   4.935   5.586  0.3945 -0.3567  0.6326
  113MOL   H15025014   7.622   5.118   5.834 -0.2221 -2.9345  2.5205
  113MOL   H15125015   7.496   5.154   5.729 -0.8357 -3.2436 -1.1777
  113MOL   H15225016   7.362   4.960   5.824 -0.3161 -0.2841  0.4847
  113MOL   H15325017   7.602   4.899   5.525  1.3740  2.6543  0.1060
  113MOL   H15425018   7.424   4.898   5.546 -0.6392  0.8511  1.9473
  113MOL   H15525019   7.528   5.043   5.577 -2.8355 -0.1491 -0.7431
  113MOL   C15625020   7.499   4.890   5.962 -0.5956  0.4014  0.0663
  113MOL   C15725021   7.439   4.746   5.982  0.1237 -0.2193  0.0161
  113MOL   C15825022   7.281   4.739   5.984 -0.0697 -0.4722  0.9601
  113MOL   O15925023   7.205   4.832   6.024  0.5542  0.3560 -0.0353
  113MOL   C16025024   7.221   4.610   5.928  0.3516  0.3609  0.1696
  113MOL   H16125025   7.607   4.884   5.972 -0.1340  2.0243 -3.2024
  113MOL   H16225026   7.464   4.945   6.049 -2.6860 -0.0795 -0.4448
  113MOL   H16325027   7.470   4.694   5.891  1.6445  1.8015 -0.6656
  113MOL   H16425028   7.279   4.518   5.938 -2.2999 -1.2530  1.3072
  113MOL   H16525029   7.201   4.630   5.823 -1.2951 -0.0314  0.3907
  113MOL   H16625030   7.120   4.601   5.968  0.3052  2.4703  0.5681
  113MOL   C16725031   7.495   4.669   6.103  0.4593 -0.6624  0.3974
  113MOL   C16825032   7.621   4.590   6.069 -0.3510 -0.0107  0.2998
  113MOL   C16925033   7.597   4.486   5.954 -0.1077 -0.0969  0.6255
  113MOL   O17025034   7.498   4.412   5.953  0.3851  0.4026  0.2363
  113MOL   C17125035   7.691   4.476   5.831 -0.0880  0.4978 -0.1355
  113MOL   H17225036   7.506   4.736   6.188 -0.1522 -0.3559  0.2379
  113MOL   H17325037   7.422   4.595   6.139 -0.7398  1.9259  3.5313
  113MOL   H17425038   7.697   4.662   6.039  0.0767 -0.9081 -0.8221
  113MOL   H17525039   7.649   4.514   5.738  0.1898 -0.1628 -0.5315
  113MOL   H17625040   7.717   4.372   5.816 -1.0042  0.3019 -0.4236
  113MOL   H17725041   7.784   4.529   5.854 -0.3788  1.0645 -0.2407
  113MOL   C17825042   7.669   4.519   6.198 -0.6570  0.6440  0.6475
  113MOL   C17925043   7.823   4.490   6.200  0.1334 -0.0553  0.8687
  113MOL   C18025044   7.856   4.353   6.267  0.0696  0.9802  0.1969
  113MOL   O18125045   0.019   4.346   6.390 -1.0646 -0.0772  0.9069
  113MOL   C18225046   7.855   4.234   6.177 -0.2483 -0.0656  0.0265
  113MOL   H18325047   7.649   4.592   6.276 -1.5734 -0.1686  1.1927
  113MOL   H18425048   7.615   4.424   6.203  0.4454 -0.2054 -2.4074
  113MOL   H18525049   7.848   4.487   6.094  0.9950  1.0338  1.0270
  113MOL   H18625050   7.794   4.155   6.222 -1.4055 -0.9362 -2.9822
  113MOL   H18725051   0.096   4.192   6.157  0.4157  1.5470 -0.1293
  113MOL   H18825052   7.807   4.259   6.083 -2.5590 -1.9944  0.6268
  113MOL   C18925053   0.048   4.601   6.265 -0.2366  0.1148 -0.5489
  113MOL   C19025054   0.169   4.638   6.176 -0.2219  0.5869 -0.2032
  113MOL   C19125055   0.126   4.711   6.042  0.2343  0.2171 -0.2817
  113MOL   O19225056   0.156   4.662   5.930 -0.0788 -0.6974 -0.5235
  113MOL   C19325057   0.054   4.848   6.052  0.7350 -0.6008  0.0855
  113MOL   H19425058   7.844   4.689   6.283  0.3035  0.2539  0.7065
  113MOL   H19525059   0.073   4.581   6.369 -0.3700  1.6101 -0.2156
  113MOL   H19625060   0.220   4.546   6.147  1.1798  0.9642  0.9450
  113MOL   H19725061   7.837   4.851   6.131 -0.0833 -1.3745 -0.6419
  113MOL   H19825062   0.128   4.928   6.055  0.9211 -0.7265 -0.9690
  113MOL   H19925063   7.854   4.877   5.964 -0.7466 -0.0727  1.2095
  113MOL   C20025064   0.268   4.724   6.256  0.1529  0.7684 -0.1837
  113MOL   C20125065   0.423   4.727   6.215  0.0577 -0.2730 -0.0885
  113MOL   C20225066   0.485   4.586   6.222  0.3147 -0.4882 -0.1493
  113MOL   O20325067   0.426   4.486   6.257 -0.3376  0.1619 -0.0304
  113MOL   C20425068   0.628   4.573   6.183 -0.1549 -0.8189  0.2253
  113MOL   H20525069   0.231   4.827   6.262  0.1476  0.9217 -2.4563
  113MOL   H20625070   0.272   4.689   6.359 -1.5675  1.7420  0.2388
  113MOL   H20725071   0.433   4.753   6.109  0.5715 -0.6669 -0.1402
  113MOL   H20825072   0.686   4.590   6.274 -2.1211  0.2522  1.3123
  113MOL   H20925073   0.661   4.484   6.129  0.4947 -0.1462 -0.4905
  113MOL   H21025074   0.649   4.646   6.106  0.1646 -0.6849  0.4351
  113MOL   C21125075   0.496   4.839   6.295  0.1729 -0.0920 -0.0995
  113MOL   C21225076   0.498   4.833   6.443  0.3636 -0.0719  0.1502
  113MOL   C21325077   0.542   4.966   6.499 -0.5522  0.3642  0.4781
  113MOL   O21425078   0.477   5.068   6.471 -0.2943 -0.2054 -0.0152
  113MOL   C21525079   0.673   4.965   6.576  0.0564 -0.3015  0.5367
  113MOL   H21625080   0.601   4.839   6.268  0.2566  1.0446  0.2063
  113MOL   H21725081   0.456   4.938   6.270  2.7863  1.1635  0.4755
  113MOL   H21825082   0.576   4.760   6.465  3.9249  2.3847 -3.5420
  113MOL   H21925083   0.693   5.057   6.631  4.9725 -0.2992 -0.9467
  113MOL   H22025084   0.674   4.888   6.654  0.5713 -0.4701  0.3664
  113MOL   H22125085   0.753   4.949   6.503  1.1235 -2.2580  2.0562
  113MOL   H22225086   0.404   4.798   6.484 -0.7901 -0.0489 -2.3800
  114MOL     C125087   2.083   3.461   7.141  0.1247 -0.1857  0.9343
  114MOL     C225088   2.080   3.308   7.111 -0.1549  0.1266  0.1500
  114MOL     C325089   2.018   3.239   7.227  0.4369 -0.2031 -0.3452
  114MOL     O425090   1.898   3.241   7.250 -0.5418 -0.5914 -0.5814
  114MOL     C525091   2.113   3.194   7.335  0.5343 -0.1453  0.4514
  114MOL     H625092   1.985   3.501   7.166  0.4552 -1.0130  3.7772
  114MOL     H725093   2.097   3.510   7.045 -1.3083  2.0137  1.8058
  114MOL     H825094   2.185   3.278   7.107  0.3356  1.8318 -0.1807
  114MOL     H925095   2.188   3.127   7.295  0.4204  0.1309 -0.2409
  114MOL    H1025096   2.159   3.278   7.387 -0.1571 -0.2149  1.1970
  114MOL    H1125097   2.053   3.133   7.403 -0.7064  0.1279 -0.3695
  114MOL    H1225098   2.164   3.515   7.190  0.4149 -0.0236  0.2851
  114MOL    C1325099   2.011   3.260   6.981  0.3168 -0.3061 -0.4858
  114MOL    C1425100   2.083   3.308   6.839  1.2847  0.3448  0.0284
  114MOL    C1525101   1.978   3.363   6.743 -0.4399 -0.5063 -0.4776
  114MOL    O1625102   1.970   3.329   6.632 -0.5209  0.0617  0.0937
  114MOL    C1725103   1.886   3.476   6.786 -0.2247  0.5557 -0.2268
  114MOL    H1825104   2.014   3.151   6.981 -0.1938 -0.3356 -1.7613
  114MOL    H1925105   1.905   3.282   6.966  0.8148  1.3899 -1.6371
  114MOL    H2025106   2.145   3.395   6.857 -1.0863  2.2603 -0.8060
  114MOL    H2125107   1.784   3.438   6.797 -0.3117  1.5455  3.0215
  114MOL    H2225108   1.916   3.528   6.877 -0.3131  1.2126 -0.5665
  114MOL    H2325109   1.886   3.556   6.712  0.2254  0.7024 -0.0674
  114MOL    C2425110   2.179   3.197   6.785  0.1164 -0.1263  0.0320
  114MOL    C2525111   2.251   3.225   6.652 -1.4108 -0.5925  0.2231
  114MOL    C2625112   2.332   3.357   6.647  0.4226 -0.4247  0.4785
  114MOL    O2725113   2.395   3.389   6.744 -0.4301 -0.1515 -0.0827
  114MOL    C2825114   2.327   3.434   6.521 -0.0039 -0.0057  0.4976
  114MOL    H2925115   2.256   3.176   6.859  0.4541  0.4385 -0.1571
  114MOL    H3025116   2.120   3.105   6.785  0.4585 -0.3451 -0.1742
  114MOL    H3125117   2.185   3.240   6.566 -0.3109  0.1281 -0.5116
  114MOL    H3225118   2.422   3.487   6.509  1.0739 -2.0648 -0.2294
  114MOL    H3325119   2.305   3.382   6.428  1.2873 -2.0093  1.2762
  114MOL    H3425120   2.250   3.510   6.535 -0.4198 -0.0716 -1.3689
  114MOL    C3525121   2.338   3.103   6.613  0.1216 -0.1841 -0.1765
  114MOL    C3625122   2.246   2.980   6.564  0.1898 -0.1274 -0.0720
  114MOL    C3725123   2.214   2.994   6.417 -0.5083 -0.5091 -0.2443
  114MOL    O3825124   2.276   2.937   6.329 -0.5400 -0.4325  0.4904
  114MOL    C3925125   2.091   3.078   6.374  0.1317  0.3654 -0.1730
  114MOL    H4025126   2.395   3.073   6.700 -1.0109 -2.2410 -0.0982
  114MOL    H4125127   2.414   3.118   6.537  2.6363 -1.5636  1.9934
  114MOL    H4225128   2.156   2.991   6.626  0.7835  3.5819  0.2654
  114MOL    H4325129   2.008   3.078   6.444  1.1661  2.5366  1.1087
  114MOL    H4425130   2.065   3.032   6.279  1.5684 -0.7229 -0.0710
  114MOL    H4525131   2.109   3.184   6.360  0.8807  0.5753  2.1517
  114MOL    C4625132   2.316   2.842   6.600  0.3021 -0.4979 -0.1439
  114MOL    C4725133   2.240   2.716   6.538 -0.2788 -0.6717 -0.0424
  114MOL    C4825134   2.337   2.607   6.487 -0.0820  0.4874 -0.0796
  114MOL    O4925135   2.346   2.506   6.555  0.1304 -0.4122  0.8191
  114MOL    C5025136   2.413   2.626   6.356 -0.0640  0.1942 -0.2269
  114MOL    H5125137   2.347   2.817   6.702 -1.2390 -2.5884 -0.1479
  114MOL    H5225138   2.411   2.859   6.551  0.3104  4.4076  1.3330
  114MOL    H5325139   2.187   2.737   6.445 -2.4927  0.3335  1.3805
  114MOL    H5425140   2.411   2.538   6.292  0.6387  0.0057  0.0067
  114MOL    H5525141   2.374   2.698   6.284 -1.0104 -0.5114 -0.4213
  114MOL    H5625142   2.517   2.651   6.380 -0.7654  0.8900  2.2336
  114MOL    C5725143   2.142   2.672   6.648 -0.7230  0.3868 -0.0032
  114MOL    C5825144   2.046   2.559   6.614 -0.1482 -0.8192 -0.6241
  114MOL    C5925145   2.041   2.462   6.735 -0.4249  0.3576  0.3023
  114MOL    O6025146   2.029   2.506   6.850 -0.2975  0.2171 -0.3004
  114MOL    C6125147   2.057   2.313   6.719  0.4525  0.2098  0.2656
  114MOL    H6225148   2.088   2.759   6.685  0.8628  0.5138  2.1336
  114MOL    H6325149   2.204   2.651   6.736 -2.0202  1.2434  1.1457
  114MOL    H6425150   2.081   2.496   6.532  1.2653 -1.5056  0.4861
  114MOL    H6525151   1.967   2.286   6.665  0.4680  0.2083  0.2401
  114MOL    H6625152   2.150   2.298   6.664  0.2240 -0.5317  0.0918
  114MOL    H6725153   2.071   2.263   6.815  0.3717 -0.1521  0.0853
  114MOL    C6825154   1.906   2.618   6.583 -0.0727  0.9549 -0.1877
  114MOL    C6925155   1.909   2.673   6.435 -0.2650  0.0532 -0.2732
  114MOL    C7025156   1.794   2.771   6.416  0.1012  0.3097 -0.8036
  114MOL    O7125157   1.802   2.882   6.372 -0.4962  1.3223  0.3227
  114MOL    C7225158   1.654   2.713   6.429 -0.0214 -0.0628 -0.8508
  114MOL    H7325159   1.827   2.545   6.600 -1.2601  2.3145  0.1674
  114MOL    H7425160   1.882   2.693   6.658  1.3206  0.6162  0.6090
  114MOL    H7525161   1.999   2.726   6.406  1.3335 -2.5691 -0.3143
  114MOL    H7625162   1.654   2.609   6.462 -1.2386 -1.0590 -3.7970
  114MOL    H7725163   1.608   2.777   6.504  0.3007 -1.2595  0.3814
  114MOL    H7825164   1.600   2.730   6.335  1.8587  0.4649 -1.8569
  114MOL    C7925165   1.905   2.562   6.335  0.3165  0.0300  0.1717
  114MOL    C8025166   1.925   2.595   6.184 -0.0899  0.3452  0.5153
  114MOL    C8125167   1.896   2.480   6.094  0.2988  0.1434  0.2220
  114MOL    O8225168   1.975   2.391   6.074 -0.0156 -0.5442  0.7748
  114MOL    C8325169   1.763   2.484   6.026  0.3914 -0.0043  0.0172
  114MOL    H8425170   1.815   2.507   6.363 -1.3021  2.3623 -0.2794
  114MOL    H8525171   1.977   2.484   6.360  1.7232  2.0073  2.6258
  114MOL    H8625172   1.860   2.679   6.156  3.0919  2.3201 -1.2462
  114MOL    H8725173   1.691   2.425   6.082 -0.7195 -0.0070 -1.3741
  114MOL    H8825174   1.770   2.420   5.938 -2.0136 -1.3740  0.7913
  114MOL    H8925175   1.738   2.588   6.008  1.1768 -0.0146 -1.2007
  114MOL    C9025176   2.073   2.650   6.159 -0.3514  0.8022 -0.3088
  114MOL    C9125177   2.110   2.704   6.019 -0.0373 -0.5011 -0.4701
  114MOL    C9225178   2.023   2.824   5.982  0.2352 -0.2831 -0.4376
  114MOL    O9325179   2.021   2.932   6.040 -0.0236 -0.3570 -0.1761
  114MOL    C9425180   1.941   2.808   5.855 -0.1402 -0.6789  0.0672
  114MOL    H9525181   2.100   2.726   6.232  0.2164 -0.1420  0.4959
  114MOL    H9625182   2.143   2.567   6.174 -0.9081  0.5147  0.7300
  114MOL    H9725183   2.087   2.618   5.956 -0.5895 -2.3295  2.0942
  114MOL    H9825184   1.997   2.767   5.771 -1.3950 -1.1836 -0.5454
  114MOL    H9925185   1.862   2.734   5.867 -0.9461  0.3369  1.1927
  114MOL   H10025186   1.885   2.899   5.832  1.0457 -0.0369 -0.2855
  114MOL   C10125187   2.264   2.727   6.010  0.4474  0.5188 -0.4491
  114MOL   C10225188   2.321   2.762   5.873 -0.4166  0.6391 -0.0135
  114MOL   C10325189   2.287   2.654   5.772 -0.2026  0.2242  0.3065
  114MOL   O10425190   2.277   2.539   5.815  0.2406  0.0255 -0.6151
  114MOL   C10525191   2.278   2.701   5.627  0.0140 -0.2000  0.8910
  114MOL   H10625192   2.299   2.788   6.093 -0.8980 -0.6797  1.0330
  114MOL   H10725193   2.315   2.637   6.046 -0.0082  0.0199 -1.0318
  114MOL   H10825194   2.271   2.851   5.835 -0.2893  1.4148  1.6036
  114MOL   H10925195   2.380   2.710   5.589 -1.1610  0.1848 -2.3327
  114MOL   H11025196   2.226   2.627   5.566  0.8846 -1.9976  2.2784
  114MOL   H11125197   2.226   2.796   5.633  1.2026  0.4301  1.5316
  114MOL   C11225198   2.482   2.767   5.886  0.9811  0.3199  0.0622
  114MOL   C11325199   2.532   2.874   5.981 -0.1608  0.2722  0.5323
  114MOL   C11425200   2.485   3.014   5.937 -0.6745  0.7041 -0.2457
  114MOL   O11525201   2.530   3.057   5.830  0.2079  0.5376  0.2056
  114MOL   C11625202   2.378   3.090   6.009  0.1035 -0.1518  0.4714
  114MOL   H11725203   2.537   2.767   5.792  0.5966 -1.8758 -0.2031
  114MOL   H11825204   2.514   2.672   5.928  2.2563  0.6724 -0.1151
  114MOL   H11925205   2.490   2.861   6.080 -0.5057 -1.1971  0.2032
  114MOL   H12025206   2.381   3.091   6.118 -0.3583 -1.3459  0.4960
  114MOL   H12125207   2.382   3.195   5.981  0.3095 -0.7188 -1.6928
  114MOL   H12225208   2.283   3.049   5.972 -0.2721  1.7761 -0.7796
  114MOL   C12325209   2.682   2.863   6.004  0.0152 -0.1218  0.2573
  114MOL   C12425210   2.740   2.968   6.111 -0.6714  0.8423 -0.1373
  114MOL   C12525211   2.893   2.998   6.095  0.4624 -0.0104 -0.2651
  114MOL   O12625212   2.977   2.935   6.168  0.3858 -0.0469 -0.0366
  114MOL   C12725213   2.936   3.103   5.992  0.0947 -0.2313  0.6176
  114MOL   H12825214   2.742   2.873   5.914 -0.6422 -3.4536 -0.6004
  114MOL   H12925215   2.709   2.764   6.038 -0.3012 -0.1462  0.4426
  114MOL   H13025216   2.695   3.065   6.092  1.4916  2.1438  1.2456
  114MOL   H13125217   2.904   3.204   6.017 -0.6100 -0.2923 -0.0367
  114MOL   H13225218   2.885   3.073   5.900  1.4843 -2.4428  0.5406
  114MOL   H13325219   3.044   3.104   5.974  0.6082 -1.0368  3.4780
  114MOL   C13425220   2.705   2.929   6.255 -0.4972  0.2216  0.2119
  114MOL   C13525221   2.729   3.036   6.369  0.0421 -0.1744  0.3894
  114MOL   C13625222   2.631   3.157   6.349  0.0518  0.5361 -0.5845
  114MOL   O13725223   2.526   3.162   6.287  0.6096  0.2340 -0.3092
  114MOL   C13825224   2.667   3.282   6.427 -0.7586 -0.0128  0.5672
  114MOL   H13925225   2.755   2.836   6.280  1.5675  0.6523 -2.1805
  114MOL   H14025226   2.600   2.899   6.261 -0.4097 -0.3493 -0.9831
  114MOL   H14125227   2.832   3.067   6.352 -0.1930  0.9837  1.0330
  114MOL   H14225228   2.765   3.275   6.475 -0.0713  1.2403 -0.6300
  114MOL   H14325229   2.586   3.284   6.500 -1.4752 -0.1410 -0.2152
  114MOL   H14425230   2.664   3.360   6.352 -0.7908  0.1654  0.7542
  114MOL   C14525231   2.715   2.973   6.510  0.1220 -0.3448 -0.9780
  114MOL   C14625232   2.845   2.897   6.554  0.4260  0.3364  0.1430
  114MOL   C14725233   2.968   2.998   6.564  0.1322  0.2614 -0.3712
  114MOL   O14825234   2.955   3.115   6.601  0.0316  0.0160 -0.1636
  114MOL   C14925235   3.106   2.948   6.537 -0.0846  0.3708 -0.0627
  114MOL   H15025236   2.620   2.919   6.510 -0.9982  1.5954  0.9342
  114MOL   H15125237   2.690   3.044   6.589 -0.8785 -1.8313  0.0816
  114MOL   H15225238   2.867   2.819   6.482 -3.7686  0.2719 -1.2172
  114MOL   H15325239   3.102   2.919   6.432 -1.3359 -0.2393  0.1388
  114MOL   H15425240   3.173   3.033   6.545  1.1523 -0.6625  0.6584
  114MOL   H15525241   3.134   2.863   6.599 -0.5619  0.6809  0.5818
  114MOL   C15625242   2.812   2.831   6.694 -0.2708  0.4940  0.1492
  114MOL   C15725243   2.930   2.748   6.756  0.3386 -0.4970  0.4908
  114MOL   C15825244   2.970   2.635   6.667 -0.0332  0.3159 -0.1393
  114MOL   O15925245   2.886   2.571   6.602 -0.2409  0.4851 -0.0854
  114MOL   C16025246   3.124   2.606   6.658  0.6007  0.0997  0.4286
  114MOL   H16125247   2.782   2.906   6.767 -3.4497  0.1395 -0.6992
  114MOL   H16225248   2.730   2.760   6.680 -0.1735  0.2881  0.6413
  114MOL   H16325249   3.023   2.804   6.761 -0.1916  0.6916 -2.0345
  114MOL   H16425250   3.175   2.688   6.708 -0.7207  1.9523 -1.2076
  114MOL   H16525251   3.161   2.621   6.557 -1.9200  1.2421 -0.3429
  114MOL   H16625252   3.144   2.509   6.704  1.2825  0.2457  0.4474
  114MOL   C16725253   2.903   2.708   6.896  0.1829  0.2335 -0.1741
  114MOL   C16825254   2.886   2.820   7.004 -0.8482 -0.0039 -0.0179
  114MOL   C16925255   3.008   2.905   7.047  0.5202 -0.2066  0.1663
  114MOL   O17025256   3.090   2.871   7.131  0.1912  0.7228 -0.5107
  114MOL   C17125257   3.027   3.040   6.978  0.2354  0.2826 -0.4122
  114MOL   H17225258   2.820   2.636   6.892 -0.0620  0.5317 -0.5748
  114MOL   H17325259   2.994   2.660   6.930  0.3386  1.3241  0.9714
  114MOL   H17425260   2.807   2.886   6.968 -0.8365  0.1176  0.1767
  114MOL   H17525261   3.123   3.084   7.005 -0.3300 -1.1722  4.3637
  114MOL   H17625262   2.938   3.102   6.988  0.6945  0.9864 -0.6383
  114MOL   H17725263   3.032   3.024   6.870 -1.4676  1.4102 -0.6818
  114MOL   C17825264   2.835   2.750   7.126 -0.0455  0.4700  0.3081
  114MOL   C17925265   2.767   2.836   7.242  0.4627  0.7409 -0.4699
  114MOL   C18025266   2.836   2.798   7.374  0.0861  0.4408  0.2500
  114MOL   O18125267   2.808   2.696   7.439  0.0110  0.4883  0.8647
  114MOL   C18225268   2.938   2.905   7.431 -0.5817  0.2713 -0.9233
  114MOL   H18325269   2.760   2.675   7.102 -0.6910  1.4471 -0.8340
  114MOL   H18425270   2.913   2.684   7.163 -0.4769 -0.4728 -0.4498
  114MOL   H18525271   2.787   2.940   7.213  0.8883  0.9190  0.4335
  114MOL   H18625272   2.988   2.854   7.513 -2.0238  0.5487  0.1560
  114MOL   H18725273   2.886   2.995   7.464  1.7264  1.5092 -0.5608
  114MOL   H18825274   3.017   2.920   7.358  0.0729 -1.0819 -0.5127
  114MOL   C18925275   2.618   2.823   7.236  0.5656  0.3082  0.2305
  114MOL   C19025276   2.527   2.912   7.323 -0.0493  0.1898  0.2532
  114MOL   C19125277   2.384   2.938   7.259  0.0118  0.0517  0.2801
  114MOL   O19225278   2.276   2.893   7.298  0.1010  0.1530  0.6194
  114MOL   C19325279   2.387   3.038   7.146  0.3085 -0.6865  0.4609
  114MOL   H19425280   2.604   2.851   7.131  3.3645  2.8669  0.4570
  114MOL   H19525281   2.585   2.720   7.248  0.9562 -0.0103 -1.2542
  114MOL   H19625282   2.577   3.008   7.340  1.3865 -0.7052  1.1450
  114MOL   H19725283   2.287   3.052   7.105  1.7654  1.7994 -2.4720
  114MOL   H19825284   2.425   3.132   7.188 -0.4270  0.6342 -1.7378
  114MOL   H19925285   2.446   2.999   7.064  0.0633 -0.2414  0.0657
  114MOL   C20025286   2.513   2.863   7.473 -0.6678 -0.2363  0.5356
  114MOL   C20125287   2.423   2.940   7.575 -0.0266  0.3805  0.4995
  114MOL   C20225288   2.435   3.096   7.579 -0.0902 -0.5614  0.2967
  114MOL   O20325289   2.526   3.152   7.513  0.4254  0.3315  0.9110
  114MOL   C20425290   2.340   3.184   7.663  0.2079 -0.3305  0.1640
  114MOL   H20525291   2.484   2.758   7.467  1.2514 -0.6687 -2.5154
  114MOL   H20625292   2.611   2.863   7.521 -1.9566  2.1641  3.2706
  114MOL   H20725293   2.322   2.923   7.538  0.8962  0.2336 -2.0801
  114MOL   H20825294   2.372   3.183   7.767 -3.1866 -1.6512  1.2734
  114MOL   H20925295   2.339   3.288   7.629 -1.6971 -0.0116  1.1350
  114MOL   H21025296   2.248   3.127   7.670 -0.1251  0.2190  0.3399
  114MOL   C21125297   2.440   2.882   7.715 -0.2236 -0.4463 -0.3153
  114MOL   C21225298   2.316   2.849   7.797  0.6039 -0.1419 -0.3808
  114MOL   C21325299   2.237   2.725   7.752 -0.2753  0.2487  0.7856
  114MOL   O21425300   2.279   2.663   7.649 -0.4888  0.2588 -0.0814
  114MOL   C21525301   2.114   2.681   7.833  0.1477 -0.0307 -0.0884
  114MOL   H21625302   2.512   2.800   7.720  0.9222  0.5898  0.4094
  114MOL   H21725303   2.494   2.960   7.769  1.2892 -1.4487 -0.3295
  114MOL   H21825304   2.241   2.928   7.794 -0.3773 -1.0192  0.8593
  114MOL   H21925305   2.133   2.680   0.083 -2.6248 -2.3349  0.4359
  114MOL   H22025306   2.024   2.742   7.831 -0.6953 -1.0791  3.1643
  114MOL   H22125307   2.094   2.576   7.812  0.2269 -0.5000  2.0354
  114MOL   H22225308   2.341   2.838   0.045 -1.6320 -1.1005  0.0801
  115MOL     C125309   4.126   4.291   6.447 -0.6564  0.0407  0.0704
  115MOL     C225310   4.050   4.297   6.577  0.7795  0.6260  0.2898
  115MOL     C325311   3.905   4.246   6.561 -0.4787  0.6170  0.4231
  115MOL     O425312   3.873   4.133   6.517  0.3493 -0.3526 -0.7412
  115MOL     C525313   3.792   4.349   6.593  0.0614  0.8267 -0.1450
  115MOL     H625314   4.068   4.351   6.377  0.3486  1.8063  0.7331
  115MOL     H725315   4.147   4.188   6.418 -0.2320 -0.3130  1.6154
  115MOL     H825316   4.044   4.401   6.608  1.0072  0.1042  2.1667
  115MOL     H925317   3.768   4.351   6.699 -0.9514 -0.1115 -0.3349
  115MOL    H1025318   3.830   4.442   6.551  3.0798  0.6901  2.1625
  115MOL    H1125319   3.704   4.306   6.544 -0.1194  1.9848 -0.8498
  115MOL    H1225320   4.218   4.347   6.462  0.0764 -1.3886  0.9672
  115MOL    C1325321   4.136   4.230   6.690 -0.1942 -0.3358 -0.6440
  115MOL    C1425322   4.067   4.222   6.831  0.1489 -0.2574 -0.1032
  115MOL    C1525323   4.141   4.301   6.944 -0.2018  0.3415  0.1523
  115MOL    O1625324   4.238   4.372   6.916  0.2781 -0.1435 -0.1712
  115MOL    C1725325   4.096   4.292   7.088  0.3708  0.1894 -0.0689
  115MOL    H1825326   4.172   4.130   6.666 -0.7221 -0.8770  0.7401
  115MOL    H1925327   4.213   4.305   6.700 -1.4837  1.0274 -0.7967
  115MOL    H2025328   3.976   4.282   6.824 -0.1653 -0.2983  2.8330
  115MOL    H2125329   3.988   4.278   7.094  0.1207  1.5172 -1.2166
  115MOL    H2225330   4.146   4.204   7.128  0.8125 -0.3498 -1.7337
  115MOL    H2325331   4.116   4.373   7.158 -0.3126  0.2201  0.0897
  115MOL    C2425332   4.041   4.075   6.879 -0.1463 -0.7403  0.6721
  115MOL    C2525333   3.929   4.040   6.982  0.7986  0.0556  0.7059
  115MOL    C2625334   3.783   4.084   6.941 -0.1234 -0.1838  0.2094
  115MOL    O2725335   3.733   4.191   6.978  0.1140 -0.7722 -0.4953
  115MOL    C2825336   3.713   3.998   6.837 -0.9528 -0.3333  0.2402
  115MOL    H2925337   3.993   4.012   6.804 -3.2302  1.0563  1.0178
  115MOL    H3025338   4.135   4.025   6.902 -0.3129 -2.2998 -1.8544
  115MOL    H3125339   3.952   4.099   7.071 -0.7949  2.3455 -0.3449
  115MOL    H3225340   3.763   3.980   6.741  1.2064  1.4747  0.9886
  115MOL    H3325341   3.685   3.901   6.877 -0.3287 -0.9761 -0.8405
  115MOL    H3425342   3.619   4.047   6.811 -2.0765 -2.1170  0.8316
  115MOL    C3525343   3.921   3.891   7.014 -0.0943 -0.2150 -0.2863
  115MOL    C3625344   4.046   3.842   7.099 -0.1967  0.3477 -0.4538
  115MOL    C3725345   4.061   3.925   7.232  0.3378  0.3332  0.3874
  115MOL    O3825346   3.977   4.011   7.268 -0.0475  0.9712  0.2883
  115MOL    C3925347   4.181   3.903   7.323 -0.2579 -0.2366  0.5187
  115MOL    H4025348   3.939   3.834   6.923 -0.9865  0.4246 -0.8692
  115MOL    H4125349   3.827   3.870   7.066 -1.5406  0.4931 -2.5757
  115MOL    H4225350   4.127   3.862   7.029  0.3253  0.8454  0.2913
  115MOL    H4325351   4.218   3.800   7.325 -0.6111 -0.4209 -1.2791
  115MOL    H4425352   4.138   3.909   7.423  0.4026 -0.6019  0.8289
  115MOL    H4525353   4.265   3.972   7.312 -0.7298  0.4168  0.9880
  115MOL    C4625354   4.055   3.689   7.112 -0.4806 -0.1036  0.9174
  115MOL    C4725355   3.961   3.626   7.220  0.4142  0.2977  0.4658
  115MOL    C4825356   3.810   3.635   7.184 -0.2978 -0.0273  0.3482
  115MOL    O4925357   3.771   3.605   7.069 -0.3485 -0.1403 -0.4011
  115MOL    C5025358   3.717   3.680   7.286 -0.8672  0.0174 -0.2543
  115MOL    H5125359   4.161   3.668   7.128  0.0494  1.1811 -0.7442
  115MOL    H5225360   4.043   3.645   7.013  1.1614 -1.7185  1.4131
  115MOL    H5325361   3.981   3.681   7.312  1.4175 -0.4639  0.7057
  115MOL    H5425362   3.705   3.604   7.363 -2.0493 -1.1505 -1.5674
  115MOL    H5525363   3.761   3.766   7.336  0.2680 -0.9806  0.4810
  115MOL    H5625364   3.618   3.706   7.247 -0.6163  2.1001  0.4015
  115MOL    C5725365   3.991   3.473   7.244 -0.3418  0.0126  0.1593
  115MOL    C5825366   4.134   3.446   7.309  0.2927 -0.5385  0.3229
  115MOL    C5925367   4.127   3.378   7.445  0.9165  0.7443 -0.5948
  115MOL    O6025368   4.155   3.432   7.551 -0.7555  0.3061  0.2380
  115MOL    C6125369   4.080   3.235   7.453 -0.4227 -1.0247  0.4349
  115MOL    H6225370   3.981   3.427   7.146  1.3641  0.7393 -0.3620
  115MOL    H6325371   3.908   3.440   7.307 -0.8139  0.7418 -0.0729
  115MOL    H6425372   4.162   3.546   7.340  2.3530 -0.7258 -0.8713
  115MOL    H6525373   4.144   3.173   7.390  0.2537 -1.2442  1.3325
  115MOL    H6625374   4.087   3.193   7.554 -2.4472  0.9989  1.4582
  115MOL    H6725375   3.977   3.218   7.422 -0.6491  2.8719 -1.1635
  115MOL    C6825376   4.238   3.394   7.205 -0.0935 -0.4564  0.8709
  115MOL    C6925377   4.385   3.419   7.258  0.2021  0.3502  0.6483
  115MOL    C7025378   4.417   3.569   7.285 -0.5335  0.8518 -0.8284
  115MOL    O7125379   4.418   3.655   7.189  0.0695  0.2560 -0.5033
  115MOL    C7225380   4.458   3.593   7.431  0.6604  0.8924  0.0364
  115MOL    H7325381   4.230   3.286   7.221  0.2471 -0.3009  2.1477
  115MOL    H7425382   4.215   3.420   7.102  1.9308 -2.7935 -0.2189
  115MOL    H7525383   4.388   3.378   7.359  0.5184 -0.4480  0.3171
  115MOL    H7625384   4.565   3.586   7.448  0.9077  1.5732 -1.1752
  115MOL    H7725385   4.438   3.696   7.462  3.1037  0.5628  2.8323
  115MOL    H7825386   4.412   3.527   7.504  1.9574 -1.4482 -1.2213
  115MOL    C7925387   4.492   3.352   7.176 -0.1093  0.1053 -0.0531
  115MOL    C8025388   4.596   3.259   7.242 -0.1169  0.0310  0.2650
  115MOL    C8125389   4.533   3.136   7.311  0.7480 -0.5735  0.8018
  115MOL    O8225390   4.436   3.155   7.383  0.4336  0.2898 -0.5383
  115MOL    C8325391   4.582   2.999   7.275 -0.1120 -0.1187  0.3818
  115MOL    H8425392   4.549   3.431   7.126  0.4412 -0.1494  0.1735
  115MOL    H8525393   4.452   3.292   7.094 -1.3251 -0.1744  0.7364
  115MOL    H8625394   4.653   3.213   7.161 -1.1467  1.5556 -1.3351
  115MOL    H8725395   4.672   2.987   7.335  0.5393  1.1970 -0.3125
  115MOL    H8825396   4.613   2.978   7.173  2.6297 -2.1382  1.5780
  115MOL    H8925397   4.507   2.928   7.311 -0.6444  0.1321 -0.2205
  115MOL    C9025398   4.691   3.328   7.331  0.5894  0.3203  0.2149
  115MOL    C9125399   4.838   3.268   7.346 -0.8074  0.2706 -0.1102
  115MOL    C9225400   4.906   3.282   7.206  0.2666  1.0307  1.0151
  115MOL    O9325401   4.945   3.391   7.161  0.4021  0.3655  0.4409
  115MOL    C9425402   4.931   3.155   7.131 -0.2216 -0.3205 -0.4002
  115MOL    H9525403   4.694   3.432   7.299 -0.4474  0.2989  0.0117
  115MOL    H9625404   4.652   3.343   7.432  1.0223  2.4716  0.0719
  115MOL    H9725405   4.820   3.161   7.355 -1.4938  0.4915  1.3102
  115MOL    H9825406   4.937   3.189   7.027  1.0898 -0.9150 -0.5266
  115MOL    H9925407   5.017   3.097   7.164  0.8008  0.8198 -1.0398
  115MOL   H10025408   4.843   3.091   7.131 -0.5424  0.0801 -2.0449
  115MOL   C10125409   4.927   3.335   7.457 -0.3276 -0.3054  0.0595
  115MOL   C10225410   5.062   3.272   7.485  0.2804 -0.2248 -0.7127
  115MOL   C10325411   5.040   3.129   7.534  0.1781 -0.2819  0.6275
  115MOL   O10425412   5.071   3.033   7.462  0.4041 -0.4438  0.5177
  115MOL   C10525413   4.997   3.118   7.681  0.0830 -0.2690  0.0756
  115MOL   H10625414   4.939   3.441   7.435  0.4628  0.3912  3.5376
  115MOL   H10725415   4.875   3.337   7.553  0.1017 -2.5616  0.3730
  115MOL   H10825416   5.109   3.263   7.387 -1.2268 -0.2057 -1.4524
  115MOL   H10925417   4.929   3.035   7.702  0.6568 -0.3018  1.9374
  115MOL   H11025418   5.092   3.103   7.733 -0.2729  0.7265  1.0356
  115MOL   H11125419   4.960   3.216   7.710  0.6477  0.0645 -0.3199
  115MOL   C11225420   5.157   3.366   7.569  0.3774 -0.4536 -0.0148
  115MOL   C11325421   5.305   3.355   7.521  0.7639  0.5771 -0.0325
  115MOL   C11425422   5.397   3.405   7.632 -0.2338 -0.2598  0.6165
  115MOL   O11525423   5.494   3.337   7.676 -0.0033 -0.3731  0.1922
  115MOL   C11625424   5.380   3.546   7.678 -0.0227  0.6421 -0.0366
  115MOL   H11725425   5.152   3.343   7.676  0.3231  1.9302  0.5203
  115MOL   H11825426   5.127   3.469   7.549 -0.2501 -0.5652  0.3320
  115MOL   H11925427   5.347   3.254   7.519  0.3277  0.4023 -0.3870
  115MOL   H12025428   5.295   3.601   7.638  1.3993  1.6253 -1.7936
  115MOL   H12125429   5.349   3.547   7.782  1.2191 -0.3760  0.3495
  115MOL   H12225430   5.471   3.602   7.656  0.3849  0.3600  0.9308
  115MOL   C12325431   5.313   3.423   7.387  0.4033  0.1433 -0.7836
  115MOL   C12425432   5.418   3.358   7.298  0.1701 -0.0122  0.1930
  115MOL   C12525433   5.389   3.215   7.254 -0.1701  0.6576 -0.1161
  115MOL   O12625434   5.424   3.114   7.313  0.0335 -0.7677 -0.1609
  115MOL   C12725435   5.296   3.197   7.134 -0.5876 -0.7902 -0.1148
  115MOL   H12825436   5.356   3.523   7.387 -1.3664  0.9139 -1.7936
  115MOL   H12925437   5.221   3.423   7.330  0.2421 -0.3667 -0.5286
  115MOL   H13025438   5.416   3.431   7.217  3.1863  0.5445  0.5575
  115MOL   H13125439   5.256   3.098   7.114  0.0327 -1.0910  0.1425
  115MOL   H13225440   5.346   3.229   7.043 -2.8813  2.4463 -0.3258
  115MOL   H13325441   5.220   3.275   7.138 -1.2092 -1.3914 -0.1132
  115MOL   C13425442   5.557   3.364   7.356  1.0546  0.1719 -0.8261
  115MOL   C13525443   5.681   3.344   7.268 -0.4223  0.4063 -0.3922
  115MOL   C13625444   5.701   3.472   7.180  0.1461  0.0689  0.4107
  115MOL   O13725445   5.758   3.565   7.229  0.2710  0.0298 -0.0333
  115MOL   C13825446   5.616   3.481   7.050  0.4394  0.5991 -0.8142
  115MOL   H13925447   5.573   3.300   7.443  0.2231 -0.2037 -0.9474
  115MOL   H14025448   5.563   3.466   7.395 -1.8817  0.3392 -0.7053
  115MOL   H14125449   5.667   3.259   7.202  1.1643 -0.6999  0.6490
  115MOL   H14225450   5.583   3.380   7.028 -1.1531  1.1754 -1.1453
  115MOL   H14325451   5.675   3.517   6.965  1.0427  0.1845 -0.5705
  115MOL   H14425452   5.524   3.534   7.073  0.3076  0.6275 -1.3956
  115MOL   C14525453   5.803   3.332   7.357 -0.2298  0.0726 -0.3748
  115MOL   C14625454   5.815   3.205   7.438  0.3628 -0.7668 -0.2256
  115MOL   C14725455   5.796   3.079   7.354 -0.1097 -1.1933  0.0314
  115MOL   O14825456   5.855   3.061   7.244 -0.3758 -0.0176 -0.3732
  115MOL   C14925457   5.698   2.967   7.402 -0.2272 -0.4716  0.4316
  115MOL   H15025458   5.813   3.416   7.425  1.3036 -1.5890  1.5326
  115MOL   H15125459   5.889   3.345   7.291 -0.7403  0.1410 -1.0265
  115MOL   H15225460   5.737   3.207   7.514 -0.1848 -0.1476 -0.7955
  115MOL   H15325461   5.669   3.003   7.501  0.2415  2.1533 -0.3313
  115MOL   H15425462   5.621   2.955   7.327 -0.7254  1.2478  0.6508
  115MOL   H15525463   5.757   2.876   7.415 -0.8772 -1.2219 -1.6906
  115MOL   C15625464   5.946   3.213   7.514 -0.0449 -0.3883 -0.2005
  115MOL   C15725465   5.936   3.212   7.668  0.1256  0.6889 -0.3903
  115MOL   C15825466   5.940   3.353   7.732  0.4719 -0.5323  0.3603
  115MOL   O15925467   6.045   3.417   7.728  0.4525 -0.0576  0.3887
  115MOL   C16025468   5.817   3.403   7.807 -0.3555 -0.2314  0.1320
  115MOL   H16125469   6.012   3.130   7.490  1.1571 -0.0172  1.6922
  115MOL   H16225470   6.006   3.297   7.480 -0.8148 -0.5133 -1.9611
  115MOL   H16325471   5.836   3.177   7.690 -0.4880  2.5642 -0.0894
  115MOL   H16425472   5.835   3.503   7.845 -0.6516  0.1377 -0.6670
  115MOL   H16525473   5.784   3.334   0.027 -1.1283 -0.1316 -0.1041
  115MOL   H16625474   5.727   3.412   7.746 -1.3187 -1.9318  1.2765
  115MOL   C16725475   6.045   3.126   7.745  0.2892 -0.2833 -0.7387
  115MOL   C16825476   6.032   3.106   0.042 -0.0731  0.2009  0.4646
  115MOL   C16925477   6.155   3.040   0.103 -0.9756  0.4103 -0.4722
  115MOL   O17025478   6.168   2.921   0.136  1.0160  0.9441  0.7101
  115MOL   C17125479   6.284   3.126   0.135  0.0187  0.1661  0.0837
  115MOL   H17225480   6.053   3.029   7.697 -2.6191 -0.7191 -0.4421
  115MOL   H17325481   6.141   3.174   7.729  0.7317 -0.4594  1.2220
  115MOL   H17425482   6.011   3.204   0.084 -0.8919  0.3431 -0.2697
  115MOL   H17525483   6.290   3.192   0.222 -1.3335  0.1168  0.2250
  115MOL   H17625484   6.315   3.175   0.043 -1.5737 -3.0593 -2.2829
  115MOL   H17725485   6.363   3.054   0.158 -0.6002 -0.2180  1.0359
  115MOL   C17825486   5.911   3.020   0.080 -0.0769 -0.4593  0.0098
  115MOL   C17925487   5.884   2.993   0.230 -0.0495 -0.0668  0.3676
  115MOL   C18025488   5.764   2.899   0.247  0.2975  0.5743 -0.1098
  115MOL   O18125489   5.650   2.932   0.211 -0.5962  0.3219 -0.5901
  115MOL   C18225490   5.779   2.755   0.315  0.0451  0.7574  0.1228
  115MOL   H18325491   5.822   3.050   0.026  0.4209  0.7195 -0.1675
  115MOL   H18425492   5.924   2.922   0.035 -2.2693  0.2369 -2.2123
  115MOL   H18525493   5.965   2.930   0.266  1.3159  0.7334 -1.2279
  115MOL   H18625494   5.882   2.747   0.352  0.7207  1.7918 -1.4692
  115MOL   H18725495   5.760   2.679   0.240  1.7810  0.2387  0.1770
  115MOL   H18825496   5.707   2.755   0.397 -0.4979  0.4816 -0.3576
  115MOL   C18925497   5.866   3.119   0.322  0.2428 -0.3239  0.4400
  115MOL   C19025498   5.850   3.085   0.473  0.6018  0.0084  0.3106
  115MOL   C19125499   5.982   3.127   0.549  0.0941 -0.2747 -0.2588
  115MOL   O19225500   6.028   3.240   0.559 -0.1841 -0.1109 -0.0407
  115MOL   C19325501   6.073   3.008   0.572 -0.4447  0.1773 -0.0238
  115MOL   H19425502   5.951   3.188   0.313 -0.1600  0.2394  0.8907
  115MOL   H19525503   5.783   3.178   0.282  0.2165 -0.5899  0.1094
  115MOL   H19625504   5.829   2.981   0.497  1.7293 -0.0840  0.8767
  115MOL   H19725505   6.004   2.929   0.600 -0.8875  0.1997 -0.9975
  115MOL   H19825506   6.123   2.981   0.479 -2.3936  2.0821 -1.6991
  115MOL   H19925507   6.139   3.018   0.658 -1.3269  2.6739  0.4136
  115MOL   C20025508   5.723   3.171   0.523  0.1444 -0.1050 -0.5624
  115MOL   C20125509   5.684   3.156   0.675  0.7310  0.2007  0.6347
  115MOL   C20225510   5.648   3.012   0.699 -0.6465  0.7131  0.1134
  115MOL   O20325511   5.576   2.943   0.631  0.3889 -0.2774  0.5948
  115MOL   C20425512   5.716   2.960   0.828  0.2714 -0.3987  0.4755
  115MOL   H20525513   5.739   3.276   0.497  0.3596  0.3358  1.3184
  115MOL   H20625514   5.641   3.142   0.456  0.9021 -1.2608 -1.0026
  115MOL   H20725515   5.766   3.174   0.746  0.5344 -0.4456  1.0248
  115MOL   H20825516   5.685   2.856   0.826  1.3247 -0.6938 -1.8109
  115MOL   H20925517   5.823   2.957   0.805  0.4498 -0.4960  1.2949
  115MOL   H21025518   5.681   3.018   0.914 -0.7647  0.7622 -0.7082
  115MOL   C21125519   5.566   3.253   0.714  0.3566 -0.1587 -0.1150
  115MOL   C21225520   5.586   3.399   0.671 -0.2610 -0.1716  0.1066
  115MOL   C21325521   5.510   3.509   0.750  0.5408 -0.0864 -0.1265
  115MOL   O21425522   5.410   3.473   0.819  0.2308 -0.2613 -0.4476
  115MOL   C21525523   5.565   3.651   0.754  0.7937  0.9005 -0.0854
  115MOL   H21625524   5.470   3.221   0.674 -0.6103  1.7446  0.6166
  115MOL   H21725525   5.573   3.252   0.823  0.4168 -0.7902 -0.1217
  115MOL   H21825526   5.559   3.418   0.567 -0.5617  1.6050  0.5052
  115MOL   H21925527   5.597   3.671   0.856  1.0453 -0.4167  0.1137
  115MOL   H22025528   5.657   3.656   0.695  0.4893 -1.9540 -0.9311
  115MOL   H22125529   5.493   3.730   0.734  0.2774  0.2797 -0.7295
  115MOL   H22225530   5.694   3.409   0.672 -0.4191  1.7376  2.4046
  116MOL     C125531   5.898   7.787   0.422 -0.0248 -0.1130 -0.2181
  116MOL     C225532   5.947   7.645   0.441  0.6236 -0.0463  0.8465
  116MOL     C325533   5.829   7.554   0.498 -0.3620 -0.3279 -0.2715
  116MOL     O425534   5.748   7.508   0.416  0.1880 -0.0137  0.0802
  116MOL     C525535   5.810   7.560   0.649 -0.5234 -0.3813  0.0742
  116MOL     H625536   5.830   7.808   0.339  0.1106 -1.0685 -0.5736
  116MOL     H725537   5.986   7.850   0.407 -0.7557  1.4503  1.7536
  116MOL     H825538   6.024   7.654   0.517 -0.6066 -0.5008  2.1703
  116MOL     H925539   5.795   7.661   0.686 -2.5144 -1.0247  1.0733
  116MOL    H1025540   5.718   7.516   0.685 -0.2803 -0.6205  0.4016
  116MOL    H1125541   5.893   7.515   0.703 -1.6962 -0.4293  1.8882
  116MOL    H1225542   5.855   7.831   0.512  0.5282  0.6253 -0.3105
  116MOL    C1325543   5.999   7.582   0.307  0.1395 -0.2772  0.3106
  116MOL    C1425544   6.056   7.440   0.308  0.1625 -0.9886  0.3919
  116MOL    C1525545   6.149   7.410   0.427 -0.0048 -1.0542  0.1943
  116MOL    O1625546   6.252   7.477   0.458  0.0560 -0.6428  0.3421
  116MOL    C1725547   6.097   7.292   0.511  0.7083 -0.1204  0.0699
  116MOL    H1825548   5.918   7.580   0.234  0.0255  0.3799  0.4226
  116MOL    H1925549   6.070   7.655   0.269 -1.0638  0.7000 -0.0737
  116MOL    H2025550   5.973   7.370   0.318  0.5417 -2.0339 -3.0315
  116MOL    H2125551   6.167   7.270   0.591 -0.3555 -1.7932  0.5762
  116MOL    H2225552   6.006   7.324   0.563 -0.0375 -1.1464 -0.5844
  116MOL    H2325553   6.073   7.201   0.455  0.8616  0.4259 -0.8973
  116MOL    C2425554   6.118   7.408   0.172 -0.1613  0.2334  0.4517
  116MOL    C2525555   6.134   7.266   0.117  0.0417  0.3065 -0.1227
  116MOL    C2625556   5.999   7.219   0.080 -0.1418 -0.6512 -0.5244
  116MOL    O2725557   5.954   7.244   7.826  0.4602  0.2095  0.0225
  116MOL    C2825558   5.911   7.163   0.182 -0.0971  0.6817 -0.1667
  116MOL    H2925559   6.064   7.474   0.103  0.0685 -1.1986 -1.1345
  116MOL    H3025560   6.216   7.455   0.168 -0.4993  0.9755  0.8645
  116MOL    H3125561   6.165   7.194   0.191 -0.0920  1.1848  0.8020
  116MOL    H3225562   5.963   7.136   0.274 -0.9802 -0.9909 -0.1443
  116MOL    H3325563   5.846   7.249   0.197  0.9204  1.4318  0.0277
  116MOL    H3425564   5.850   7.083   0.141  1.1006 -0.0696 -0.4966
  116MOL    C3525565   6.227   7.261   7.848 -0.4561 -0.1513  0.3541
  116MOL    C3625566   6.381   7.261   0.014 -0.3412 -0.0247 -0.1810
  116MOL    C3725567   6.423   7.149   0.108 -0.0453  0.6984 -0.3286
  116MOL    O3825568   6.471   7.037   0.075 -0.0798  0.0603 -0.1173
  116MOL    C3925569   6.417   7.184   0.257  0.8654  0.1847 -0.0024
  116MOL    H4025570   6.208   7.342   7.777  0.9077  0.3988  0.6032
  116MOL    H4125571   6.201   7.171   7.792 -1.5457  0.3830 -0.0138
  116MOL    H4225572   6.404   7.353   0.067  0.7345 -1.5275  2.0077
  116MOL    H4325573   6.515   7.169   0.301  1.0581  0.2305 -0.4148
  116MOL    H4425574   6.352   7.113   0.309  1.0935  0.2234  0.3391
  116MOL    H4525575   6.404   7.290   0.277  0.7489  0.6962 -2.6441
  116MOL    C4625576   6.460   7.255   7.738  0.9038  0.1590 -0.2058
  116MOL    C4725577   6.608   7.300   7.755 -0.0021 -0.2248 -0.4361
  116MOL    C4825578   6.699   7.245   7.646 -1.0411 -0.0538  0.4779
  116MOL    O4925579   6.764   7.310   7.566 -0.6264  0.0494 -0.4201
  116MOL    C5025580   6.727   7.097   7.652 -0.4224  0.4596  0.7240
  116MOL    H5125581   6.412   7.319   7.664  0.3454  0.4995  0.4525
  116MOL    H5225582   6.452   7.153   7.699  0.0598  0.3965 -0.6528
  116MOL    H5325583   6.631   7.250   7.849  1.9844  0.7533 -0.3911
  116MOL    H5425584   6.833   7.080   7.667 -0.0508 -0.8853 -2.8949
  116MOL    H5525585   6.675   7.053   7.738  0.6516 -1.2142  0.5409
  116MOL    H5625586   6.696   7.035   7.568  2.8326 -2.6199  1.6897
  116MOL    C5725587   6.619   7.451   7.768  0.0510 -1.0401 -0.3896
  116MOL    C5825588   6.717   7.509   0.007  0.0808 -0.8519  0.5526
  116MOL    C5925589   6.697   7.449   0.146  0.2269  0.2771 -0.2474
  116MOL    O6025590   6.756   7.353   0.184 -0.2558 -0.8668  0.1718
  116MOL    C6125591   6.582   7.509   0.232  0.5740  0.4373  0.0734
  116MOL    H6225592   6.521   7.495   7.788 -0.4722 -2.5805  0.5566
  116MOL    H6325593   6.639   7.500   7.672  2.4769  0.8695  1.0322
  116MOL    H6425594   6.685   7.613   0.016  1.3344 -0.5281  1.3568
  116MOL    H6525595   6.485   7.464   0.213  1.4863 -0.6595 -2.1345
  116MOL    H6625596   6.599   7.493   0.338  0.8083  0.0288 -0.0255
  116MOL    H6725597   6.586   7.614   0.201 -0.7639  0.3485 -0.4307
  116MOL    C6825598   6.865   7.495   7.822 -0.3899  0.2139 -0.2719
  116MOL    C6925599   6.981   7.582   0.033  0.0116  0.4718 -0.3890
  116MOL    C7025600   6.933   7.723   0.045  0.5818 -0.6007 -0.0730
  116MOL    O7125601   6.878   7.782   7.811  0.2777 -0.4437 -0.3963
  116MOL    C7225602   6.948   7.789   0.180 -0.0265  0.2633 -0.6669
  116MOL    H7325603   6.902   7.395   7.845  0.2292  0.3391 -0.7092
  116MOL    H7425604   6.873   7.514   7.715 -1.0635  1.0522 -0.1790
  116MOL    H7525605   6.987   7.563   0.140  0.0406  0.4060 -0.4022
  116MOL    H7625606   7.014   0.016   0.158 -1.0081  0.9299 -1.0762
  116MOL    H7725607   6.855   7.841   0.203  1.6733  3.6051 -1.0117
  116MOL    H7825608   6.990   7.730   0.261  0.4836  0.4244 -0.8104
  116MOL    C7925609   7.123   7.558   7.830 -0.0942  0.6944 -0.1485
  116MOL    C8025610   7.185   7.410   0.002  0.3370 -0.5072  0.2092
  116MOL    C8125611   7.154   7.306   7.749 -0.0233 -0.1956 -0.4331
  116MOL    O8225612   7.053   7.236   7.746 -0.3269 -0.1715  0.0112
  116MOL    C8325613   7.256   7.291   7.635  0.5903  0.1286 -0.0821
  116MOL    H8425614   7.194   7.626   0.020 -0.2638 -0.4102  1.7252
  116MOL    H8525615   7.134   7.588   7.725  2.3963 -0.8342 -0.3722
  116MOL    H8625616   7.292   7.432   7.856  0.5074 -1.4402 -0.6239
  116MOL    H8725617   7.361   7.315   7.649  0.6481  0.3569 -0.8466
  116MOL    H8825618   7.224   7.352   7.550  2.5343 -0.0503 -0.9849
  116MOL    H8925619   7.259   7.186   7.606  0.3799 -0.0659  0.6013
  116MOL    C9025620   7.159   7.355   0.140  0.4180  0.1459 -0.3832
  116MOL    C9125621   7.209   7.212   0.176  0.7116 -0.3665 -0.2007
  116MOL    C9225622   7.357   7.216   0.176 -0.5411  0.2169 -0.1876
  116MOL    O9325623   7.412   7.299   0.251 -0.0149  0.8465  0.0223
  116MOL    C9425624   7.440   7.112   0.099 -0.2216 -0.8283 -0.0704
  116MOL    H9525625   7.205   7.423   0.212 -0.2240  0.2019 -0.0176
  116MOL    H9625626   7.051   7.353   0.160  0.2442 -1.0570 -1.3556
  116MOL    H9725627   7.183   7.137   0.102 -0.8651 -1.2452  1.2411
  116MOL    H9825628   7.436   7.141   7.852 -0.1721 -1.6302 -0.2937
  116MOL    H9925629   7.543   7.118   0.136  0.0039  1.1053 -0.9465
  116MOL   H10025630   7.415   7.006   0.106  0.7441 -1.0590  0.0259
  116MOL   C10125631   7.153   7.170   0.313 -0.1844 -0.1519  0.3760
  116MOL   C10225632   7.197   7.033   0.370  0.3635  0.2588  0.8635
  116MOL   C10325633   7.133   6.910   0.296  0.2225 -0.1725 -0.1862
  116MOL   O10425634   7.015   6.877   0.327 -0.4461  0.1362  0.1742
  116MOL   C10525635   7.217   6.839   0.195 -0.1454 -0.0239  0.1132
  116MOL   H10625636   7.174   7.249   0.384  1.2514  0.7508 -0.9964
  116MOL   H10725637   7.047   7.164   0.291 -0.0010  3.2924 -1.7557
  116MOL   H10825638   7.305   7.028   0.358  0.1844  1.2640 -1.3596
  116MOL   H10925639   7.163   6.861   0.102 -1.3746 -3.0216  0.0782
  116MOL   H11025640   7.321   6.869   0.187  1.3933 -4.8822  0.5223
  116MOL   H11125641   7.209   6.731   0.200 -2.9507  0.0472 -1.5528
  116MOL   C11225642   7.168   7.027   0.517 -0.0739  0.4946  0.5966
  116MOL   C11325643   7.209   6.901   0.595  0.1415 -0.6533 -0.4073
  116MOL   C11425644   7.117   6.904   0.715 -0.2097  0.4547  0.2074
  116MOL   O11525645   7.145   6.970   0.817 -0.0820 -0.1562  0.6316
  116MOL   C11625646   6.990   6.822   0.711  0.2864  0.1082 -0.5163
  116MOL   H11725647   7.059   7.029   0.525 -0.1255 -4.1631  2.7256
  116MOL   H11825648   7.213   7.116   0.560  1.6711 -1.8313  3.8250
  116MOL   H11925649   7.189   6.808   0.543 -0.8468 -1.2876  1.0638
  116MOL   H12025650   6.945   6.813   0.810 -1.1349 -2.4824 -1.3468
  116MOL   H12125651   6.918   6.877   0.650 -1.1483  0.6298  1.6070
  116MOL   H12225652   7.005   6.720   0.674 -0.0187 -0.7570  1.6784
  116MOL   C12325653   7.358   6.914   0.648 -0.3446  0.3998 -0.2394
  116MOL   C12425654   7.471   6.875   0.550 -0.6456 -0.1236  0.1899
  116MOL   C12525655   7.446   6.730   0.497 -0.1986  0.7241  0.3431
  116MOL   O12625656   7.417   6.708   0.379  0.1586 -0.3281  0.5007
  116MOL   C12725657   7.460   6.621   0.593 -0.5185 -0.0600 -0.2760
  116MOL   H12825658   7.369   6.839   0.726 -0.5350  1.2372  0.6068
  116MOL   H12925659   7.380   7.011   0.694 -0.5302 -0.3588  1.4982
  116MOL   H13025660   7.455   6.932   0.458 -3.8038  0.5884  1.1211
  116MOL   H13125661   7.383   6.617   0.670 -1.2887 -0.3626 -1.0557
  116MOL   H13225662   7.557   6.614   0.642 -0.6053 -1.3609 -0.2557
  116MOL   H13325663   7.453   6.530   0.533 -1.0960 -0.7869  0.8541
  116MOL   C13425664   7.619   6.893   0.601  0.1156  0.0812 -0.8911
  116MOL   C13525665   7.723   6.976   0.513 -0.6919 -0.5288 -0.0501
  116MOL   C13625666   7.671   7.121   0.487 -0.0427  0.0321  0.3331
  116MOL   O13725667   7.593   7.167   0.566 -0.7421 -0.0351 -0.3887
  116MOL   C13825668   7.732   7.199   0.373  0.1833 -0.9042  0.1729
  116MOL   H13925669   7.663   6.794   0.616  0.3464  0.2620 -0.3199
  116MOL   H14025670   7.615   6.937   0.701  2.9418 -0.2303 -0.5916
  116MOL   H14125671   7.734   6.934   0.413  0.3453  1.2344 -0.6939
  116MOL   H14225672   7.747   7.141   0.282 -2.5889  0.4431 -1.2334
  116MOL   H14325673   7.825   7.250   0.397 -0.8302  1.6861 -1.1223
  116MOL   H14425674   7.661   7.279   0.349  1.2529 -0.0430 -0.1625
  116MOL   C14525675   0.001   6.986   0.585  0.5917  0.1654 -0.0746
  116MOL   C14625676   0.071   6.849   0.610 -0.0119 -0.6541  0.3866
  116MOL   C14725677   0.220   6.865   0.570  0.1238  0.0014  0.0760
  116MOL   O14825678   0.259   6.797   0.476 -0.3513  0.5178  0.2365
  116MOL   C14925679   0.309   6.964   0.644  0.2730 -0.1678  1.1061
  116MOL   H15025680   7.855   7.043   0.678 -1.6211 -2.0361  1.2587
  116MOL   H15125681   0.065   7.046   0.520 -0.0000  0.8814 -0.0052
  116MOL   H15225682   0.018   6.777   0.547 -1.2965  0.0895  0.5824
  116MOL   H15325683   0.389   6.910   0.696  0.2670  0.4766  1.7913
  116MOL   H15425684   0.351   7.035   0.573 -1.0375 -0.6185 -0.1262
  116MOL   H15525685   0.257   7.033   0.711 -0.7040 -0.2340  0.4226
  116MOL   C15625686   0.057   6.797   0.750 -0.2352  0.2293 -0.2026
  116MOL   C15725687   0.122   6.661   0.790 -0.8389 -0.5770 -0.1377
  116MOL   C15825688   0.084   6.535   0.698 -0.2303 -0.3801  0.1041
  116MOL   O15925689   7.826   6.484   0.701  0.0098  0.0206 -0.9070
  116MOL   C16025690   0.200   6.480   0.622  1.0019 -0.2447 -0.1062
  116MOL   H16125691   0.092   6.865   0.828  1.1696  1.0998 -1.5796
  116MOL   H16225692   7.809   6.790   0.776 -0.1343  0.9674  0.4327
  116MOL   H16325693   0.230   6.672   0.778 -1.1384  2.0906 -0.6787
  116MOL   H16425694   0.259   6.413   0.685 -1.4960 -2.0178  0.4163
  116MOL   H16525695   0.264   6.564   0.597  1.2999 -0.5909 -0.5279
  116MOL   H16625696   0.172   6.426   0.531 -1.6350  1.8293 -0.5700
  116MOL   C16725697   0.091   6.613   0.934 -0.3341 -0.6644  0.1903
  116MOL   C16825698   0.157   6.687   1.053  0.3133 -0.2862  0.7153
  116MOL   C16925699   0.310   6.657   1.048 -0.4743  0.2729  0.1719
  116MOL   O17025700   0.388   6.744   1.018  0.5060 -0.5515  0.4426
  116MOL   C17125701   0.356   6.521   1.097 -0.2833 -0.3702  0.3969
  116MOL   H17225702   7.842   6.589   0.937 -0.6689  0.8650  1.2931
  116MOL   H17325703   0.123   6.512   0.957 -4.2662 -1.8516  0.9532
  116MOL   H17425704   0.163   6.793   1.029 -1.2299 -0.6269 -1.4333
  116MOL   H17525705   0.439   6.526   1.167  1.6861 -1.8477 -1.7318
  116MOL   H17625706   0.389   6.457   1.015 -1.2400 -1.8029  1.1215
  116MOL   H17725707   0.264   6.478   1.137 -1.0125  0.3649 -0.4424
  116MOL   C17825708   0.090   6.655   1.186 -0.0128 -0.4987  0.9045
  116MOL   C17925709   0.158   6.681   1.320 -0.4158  0.5062  0.2054
  116MOL   C18025710   0.069   6.618   1.421 -0.6954 -0.6265 -0.1559
  116MOL   O18125711   7.838   6.692   1.477  0.5057 -0.9405  0.2037
  116MOL   C18225712   0.093   6.473   1.464 -0.0993  0.0626  0.9394
  116MOL   H18325713   7.850   6.703   1.178 -0.2702 -1.4304 -2.3491
  116MOL   H18425714   0.059   6.551   1.178  0.2630 -0.6848  2.0895
  116MOL   H18525715   0.255   6.630   1.320 -0.2233  0.8526  1.9102
  116MOL   H18625716   0.196   6.439   1.455 -0.7718 -1.3384 -1.8598
  116MOL   H18725717   0.024   6.408   1.410  1.3729  0.0086 -0.9219
  116MOL   H18825718   0.061   6.468   1.568 -1.5783  0.5068  0.5246
  116MOL   C18925719   0.176   6.840   1.339 -0.3961  0.4359  0.6151
  116MOL   C19025720   0.253   6.878   1.466 -0.1493 -0.1540 -0.0520
  116MOL   C19125721   0.400   6.818   1.461  0.6481 -0.5054 -0.4541
  116MOL   O19225722   0.434   6.727   1.534  0.6267  0.4538 -0.5622
  116MOL   C19325723   0.491   6.882   1.361  0.5005  0.1418 -0.0286
  116MOL   H19425724   0.218   6.879   1.247  1.3174 -2.4666  0.1035
  116MOL   H19525725   0.080   6.892   1.339 -0.5196  0.3073 -2.5820
  116MOL   H19625726   0.199   6.821   1.541  1.5840 -2.1827 -0.2895
  116MOL   H19725727   0.516   6.985   1.385  1.5841 -0.2895  0.7196
  116MOL   H19825728   0.589   6.833   1.369  0.3292 -0.1697  0.1648
  116MOL   H19925729   0.455   6.881   1.258 -0.1035 -2.0625  0.1772
  116MOL   C20025730   0.251   7.029   1.487 -0.2897  0.1621  0.4815
  116MOL   C20125731   0.264   7.060   1.644 -0.0642  1.0348 -0.2647
  116MOL   C20225732   0.130   7.068   1.714 -0.6062  0.0535 -0.5940
  116MOL   O20325733   0.093   7.173   1.765  0.2524 -0.1992 -0.0407
  116MOL   C20425734   0.028   6.959   1.702 -0.2407 -0.2328  0.2164
  116MOL   H20525735   0.324   7.083   1.426 -0.0767 -1.3799 -0.6416
  116MOL   H20625736   0.153   7.064   1.456 -0.7456 -0.9932  0.5997
  116MOL   H20725737   0.323   6.975   1.680  0.1987  1.5941  0.6295
  116MOL   H20825738   0.053   6.890   1.622  2.3380  1.9533 -0.9281
  116MOL   H20925739   0.017   6.905   1.797 -2.8449  0.1806  0.1915
  116MOL   H21025740   7.788   6.998   1.675  0.3944  0.6564 -0.8021
  116MOL   C21125741   0.348   7.182   1.665 -0.0598 -0.1113 -0.0696
  116MOL   C21225742   0.390   7.212   1.811  0.0062 -0.3022 -0.3618
  116MOL   C21325743   0.506   7.128   1.856 -0.4256 -0.1637  0.9793
  116MOL   O21425744   0.497   7.008   1.851 -0.3356  0.2718  0.0018
  116MOL   C21525745   0.633   7.197   1.894 -0.3770 -0.3108  0.2579
  116MOL   H21625746   0.434   7.165   1.601  0.1606  1.4757 -0.2059
  116MOL   H21725747   0.305   7.269   1.616 -0.1245  0.6191  1.2515
  116MOL   H21825748   0.315   7.193   1.888  0.3227  0.4102  0.1282
  116MOL   H21925749   0.623   7.241   1.993  2.5973 -1.1381  0.9923
  116MOL   H22025750   0.724   7.137   1.889  0.1326  0.3888  0.9458
  116MOL   H22125751   0.637   7.281   1.824  1.4464 -0.2454  0.4030
  116MOL   H22225752   0.416   7.318   1.817  0.6686 -0.5677  1.8519
  117MOL     C125753   2.571   7.281   4.782  0.3919 -0.3529  0.0101
  117MOL     C225754   2.692   7.366   4.721 -0.5003  0.3483 -0.3048
  117MOL     C325755   2.780   7.436   4.819 -0.1061  0.3106 -0.7991
  117MOL     O425756   2.782   7.403   4.936 -0.1817 -0.4452 -0.0328
  117MOL     C525757   2.882   7.532   4.766  0.0919  0.0782 -0.6154
  117MOL     H625758   2.504   7.337   4.848 -0.1882  1.6023 -2.1546
  117MOL     H725759   2.606   7.201   4.847 -2.7203 -1.8875 -0.1023
  117MOL     H825760   2.660   7.447   4.655 -0.8726  0.7190  0.3210
  117MOL     H925761   2.840   7.618   4.713  2.2485  0.4652 -1.7550
  117MOL    H1025762   2.939   7.570   4.851 -1.6025 -1.2362  1.1695
  117MOL    H1125763   2.939   7.470   4.697 -2.1404 -2.8289  0.0512
  117MOL    H1225764   2.510   7.238   4.702  0.0263 -1.8191  1.0704
  117MOL    C1325765   2.772   7.272   4.625 -0.2177  0.7478 -0.0586
  117MOL    C1425766   2.797   7.321   4.480  0.5346  1.0861  0.2024
  117MOL    C1525767   2.671   7.320   4.390  0.3535  0.8935 -0.6627
  117MOL    O1625768   2.659   7.413   4.311  0.1846  0.3130 -0.2263
  117MOL    C1725769   2.555   7.215   4.405  0.3876 -0.3188 -0.0392
  117MOL    H1825770   2.868   7.243   4.670 -0.4787  0.4401  0.3042
  117MOL    H1925771   2.732   7.171   4.637 -0.7686  0.8146 -1.2556
  117MOL    H2025772   2.829   7.424   4.497 -2.6137  1.8878  1.4179
  117MOL    H2125773   2.486   7.237   4.324 -0.4202 -1.4293  0.3305
  117MOL    H2225774   2.600   7.115   4.406  2.2169  0.4523 -2.1345
  117MOL    H2325775   2.498   7.212   4.498  0.6039 -0.4733  0.0884
  117MOL    C2425776   2.908   7.233   4.418  0.3866 -0.1309 -0.3829
  117MOL    C2525777   2.986   7.299   4.302 -0.2858  0.7717  0.3725
  117MOL    C2625778   3.060   7.422   4.350  0.6405  0.0248  0.3682
  117MOL    O2725779   3.109   7.426   4.461  0.8561 -0.5915  0.2835
  117MOL    C2825780   3.078   7.536   4.258  0.3846 -0.0004  0.0264
  117MOL    H2925781   2.982   7.191   4.486  1.9434  1.0863 -1.2981
  117MOL    H3025782   2.864   7.146   4.370  1.4776 -2.1881  2.1872
  117MOL    H3125783   2.917   7.335   4.225  0.8806 -0.1295 -1.1121
  117MOL    H3225784   3.146   7.512   4.176 -3.2862 -0.4521 -2.9679
  117MOL    H3325785   2.985   7.578   4.221 -0.7020 -0.3346  2.2844
  117MOL    H3425786   3.126   7.617   4.314  0.4193 -0.4382  0.6365
  117MOL    C3525787   3.086   7.201   4.238  0.5499 -0.0268 -0.1184
  117MOL    C3625788   3.021   7.087   4.170 -0.0437  0.5869  0.3191
  117MOL    C3725789   2.904   7.129   4.074  0.1179  0.2021  0.8010
  117MOL    O3825790   2.938   7.208   3.983 -0.1291 -0.1205 -0.2888
  117MOL    C3925791   2.760   7.076   4.093 -0.6111  0.1098 -0.5844
  117MOL    H4025792   3.154   7.175   4.318 -1.2186 -0.9207  1.1274
  117MOL    H4125793   3.155   7.242   4.164  2.5244 -0.5561  1.4027
  117MOL    H4225794   2.992   7.022   4.252 -0.3523 -0.9539 -0.9795
  117MOL    H4325795   2.753   6.974   4.130  0.7802 -0.6637 -2.3319
  117MOL    H4425796   2.713   7.084   3.994  0.1808 -0.5144 -1.0203
  117MOL    H4525797   2.702   7.141   4.158  3.3930  1.6124  1.6398
  117MOL    C4625798   3.131   7.010   4.090 -0.4703 -0.6182 -0.8687
  117MOL    C4725799   3.109   6.859   4.074 -0.0205 -0.1421 -0.8847
  117MOL    C4825800   3.005   6.823   3.962 -0.2522  0.5562 -0.0515
  117MOL    O4925801   2.884   6.812   3.981 -0.9325  0.0436 -0.3868
  117MOL    C5025802   3.063   6.812   3.822 -0.5557  0.2444 -0.4116
  117MOL    H5125803   3.231   7.022   4.132 -0.5784  1.0278 -1.0337
  117MOL    H5225804   3.162   7.052   3.994 -0.2090  0.7920 -0.1766
  117MOL    H5325805   3.061   6.821   4.164  0.8441 -1.0581 -0.8010
  117MOL    H5425806   2.986   6.805   3.745 -2.1695  1.1380  1.1116
  117MOL    H5525807   3.128   6.897   3.801  1.5199 -0.5258  2.5861
  117MOL    H5625808   3.110   6.713   3.818 -0.7132  0.1580 -0.0794
  117MOL    C5725809   3.242   6.773   4.055  0.0158  0.5121  0.1350
  117MOL    C5825810   3.329   6.755   4.177 -0.0977 -0.2735 -0.1883
  117MOL    C5925811   3.252   6.720   4.299  0.0190 -0.9129 -0.0691
  117MOL    O6025812   3.211   6.605   4.320  0.7266  0.6511  0.2936
  117MOL    C6125813   3.228   6.831   4.402  0.6860  0.0476  0.0809
  117MOL    H6225814   3.309   6.830   3.990  3.8072 -0.5177  2.9765
  117MOL    H6325815   3.220   6.677   4.009  1.0840  1.3011 -2.1429
  117MOL    H6425816   3.368   6.852   4.207  0.4392 -0.6701  0.4175
  117MOL    H6525817   3.120   6.841   4.391  0.8897  0.1658 -1.9330
  117MOL    H6625818   3.261   6.808   4.504 -1.0932 -1.2430  0.3773
  117MOL    H6725819   3.267   6.932   4.392 -1.6172  0.8320 -1.2388
  117MOL    C6825820   3.429   6.644   4.142  0.1890  0.7752 -0.7392
  117MOL    C6925821   3.531   6.589   4.249  0.1183 -0.0678  0.1896
  117MOL    C7025822   3.614   6.698   4.315 -0.1094 -0.1803 -0.7338
  117MOL    O7125823   3.630   6.810   4.266  0.7963 -0.3303  0.6707
  117MOL    C7225824   3.690   6.659   4.438  0.0925 -0.3032 -0.2616
  117MOL    H7325825   3.372   6.557   4.108 -1.4030  0.7765  1.7546
  117MOL    H7425826   3.492   6.685   4.063 -0.9603 -0.0970 -2.1346
  117MOL    H7525827   3.479   6.551   4.337 -0.9320  0.2871 -0.2695
  117MOL    H7625828   3.623   6.600   4.501  0.5703 -0.0964  0.4532
  117MOL    H7725829   3.762   6.586   4.399 -0.1962 -0.8587  0.2276
  117MOL    H7825830   3.732   6.746   4.488  0.3888 -1.6267  1.8744
  117MOL    C7925831   3.615   6.476   4.180 -0.1928 -0.1515 -0.4972
  117MOL    C8025832   3.558   6.337   4.198 -0.6541  0.2395  0.0802
  117MOL    C8125833   3.569   6.286   4.338 -0.7072  0.0188 -0.4627
  117MOL    O8225834   3.660   6.323   4.418 -0.5134  0.2685  0.0627
  117MOL    C8325835   3.462   6.189   4.392  0.4968 -0.2646 -0.7088
  117MOL    H8425836   3.719   6.477   4.214 -0.4533  2.7780  0.3752
  117MOL    H8525837   3.638   6.496   4.076 -2.7966  0.2283 -1.0291
  117MOL    H8625838   3.453   6.335   4.169  0.2066 -1.8132 -3.1174
  117MOL    H8725839   3.484   6.127   4.478 -3.1985 -2.4493 -1.2466
  117MOL    H8825840   3.431   6.117   4.317  0.3253  0.1912 -1.0809
  117MOL    H8925841   3.374   6.252   4.407  1.2010  0.8878 -1.3471
  117MOL    C9025842   3.621   6.246   4.095  0.3342  0.2286  0.4460
  117MOL    C9125843   3.532   6.125   4.053  0.1732 -0.7407 -0.0475
  117MOL    C9225844   3.395   6.154   3.994  0.2091  0.5269 -0.5156
  117MOL    O9325845   3.381   6.204   3.882 -0.1704  0.6879 -0.2314
  117MOL    C9425846   3.275   6.141   4.083 -0.0335 -0.5434  0.0756
  117MOL    H9525847   3.659   6.294   4.005  2.9969 -2.1094  0.2420
  117MOL    H9625848   3.716   6.205   4.130  0.2532 -1.4616 -1.2395
  117MOL    H9725849   3.525   6.064   4.143  1.5493 -0.2558  0.3935
  117MOL    H9825850   3.236   6.227   4.137  0.9601 -0.1973  0.2472
  117MOL    H9925851   3.186   6.116   4.025 -1.2265 -1.4133  2.1821
  117MOL   H10025852   3.291   6.064   4.159 -0.8617  0.5386  1.3847
  117MOL   C10125853   3.619   6.041   3.952  0.0448  0.3282 -0.2514
  117MOL   C10225854   3.579   5.901   3.907  0.0392 -0.2613 -0.0978
  117MOL   C10325855   3.584   5.798   4.027 -0.3577  1.0688 -0.3419
  117MOL   O10425856   3.691   5.777   4.093 -0.3466 -0.0056 -0.1420
  117MOL   C10525857   3.462   5.723   4.071  0.0390  0.0666 -0.0240
  117MOL   H10625858   3.626   6.097   3.859  0.7616  0.3850 -0.1640
  117MOL   H10725859   3.722   6.040   3.988  0.1062 -0.3956 -0.4418
  117MOL   H10825860   3.473   5.906   3.884  0.4317  0.3745 -1.8565
  117MOL   H10925861   3.377   5.744   4.006  0.9375  2.3149 -0.5342
  117MOL   H11025862   3.474   5.616   4.056  0.1476 -0.3773  2.9608
  117MOL   H11125863   3.438   5.742   4.175  3.3964 -0.1032  0.8504
  117MOL   C11225864   3.666   5.846   3.781 -0.0714 -0.4026  0.3046
  117MOL   C11325865   3.563   5.777   3.694 -0.0791 -0.3210 -0.4386
  117MOL   C11425866   3.621   5.641   3.638 -0.5132 -0.0905  0.6635
  117MOL   O11525867   3.696   5.636   3.546  0.7356 -0.2112 -0.3998
  117MOL   C11625868   3.587   5.518   3.711 -0.1820 -1.0191  0.3381
  117MOL   H11725869   3.743   5.771   3.801 -1.2869 -1.7394  0.0078
  117MOL   H11825870   3.707   5.936   3.733  1.5242 -2.1254 -1.6685
  117MOL   H11925871   3.477   5.742   3.751 -2.2764  2.3932 -1.9666
  117MOL   H12025872   3.645   5.518   3.803 -2.0460 -0.5627  1.5433
  117MOL   H12125873   3.482   5.505   3.736 -1.2131 -1.3889 -3.7082
  117MOL   H12225874   3.616   5.432   3.650  0.1568  0.4091 -1.5555
  117MOL   C12325875   3.497   5.868   3.589  0.1023 -0.0581  1.2019
  117MOL   C12425876   3.345   5.843   3.558  0.1447 -0.0502 -0.6176
  117MOL   C12525877   3.307   5.882   3.411  0.3295 -0.5678 -0.1708
  117MOL   O12625878   3.255   5.985   3.385  0.5539  0.2557 -0.0307
  117MOL   C12725879   3.337   5.783   3.304  0.7104  0.3749  0.2543
  117MOL   H12825880   3.547   5.850   3.494 -1.5395  0.1609  0.2777
  117MOL   H12925881   3.509   5.972   3.621  0.1199 -0.1405  1.4725
  117MOL   H13025882   3.346   5.734   3.557 -0.4145 -0.0584  0.0464
  117MOL   H13125883   3.251   5.754   3.245  1.0052  2.4378 -1.2371
  117MOL   H13225884   3.383   5.691   3.340  2.1524  0.9903  0.0404
  117MOL   H13325885   3.404   5.832   3.233  0.0855 -1.0266 -1.3283
  117MOL   C13425886   3.250   5.904   3.678  0.4578 -0.1707  0.2459
  117MOL   C13525887   3.130   5.810   3.723  0.0410 -0.2430  0.4000
  117MOL   C13625888   3.173   5.665   3.744  0.0466  0.0705 -0.9597
  117MOL   O13725889   3.237   5.624   3.840  0.0658 -0.8059  0.1658
  117MOL   C13825890   3.136   5.568   3.636 -0.3166  0.3503  0.6122
  117MOL   H13925891   3.207   6.000   3.650 -0.3256 -0.5568  0.1059
  117MOL   H14025892   3.305   5.935   3.766 -2.0689 -0.2094  1.8990
  117MOL   H14125893   3.059   5.815   3.640 -0.2620 -0.1479  0.6631
  117MOL   H14225894   3.045   5.599   3.586  1.1813  1.2688 -1.5928
  117MOL   H14325895   3.108   5.475   3.686 -0.5816  1.2613  2.2091
  117MOL   H14425896   3.221   5.555   3.570  0.9230 -0.3011  2.2890
  117MOL   C14525897   3.049   5.876   3.841  0.1346  1.0365  0.3230
  117MOL   C14625898   2.903   5.824   3.884 -0.1264 -0.5985  0.2280
  117MOL   C14725899   2.873   5.864   4.026 -0.2318  0.3228 -0.8661
  117MOL   O14825900   2.809   5.966   4.057  0.5644 -0.1794  0.0559
  117MOL   C14925901   2.939   5.769   4.131 -0.4816 -0.3880  0.0529
  117MOL   H15025902   3.050   5.985   3.837  0.3562  0.9653 -2.2651
  117MOL   H15125903   3.113   5.860   3.928  2.1924  1.2122 -1.1192
  117MOL   H15225904   2.898   5.716   3.880 -2.4434 -0.5101 -0.1414
  117MOL   H15325905   3.009   5.711   4.071  1.3639  1.5058  0.2892
  117MOL   H15425906   3.001   5.812   4.210 -1.6300 -0.6236  1.0756
  117MOL   H15525907   2.866   5.706   4.181 -1.6058 -0.4051 -1.5686
  117MOL   C15625908   2.795   5.869   3.782  0.6767 -0.2188  0.2960
  117MOL   C15725909   2.648   5.809   3.794 -0.0169  0.5234  0.6502
  117MOL   C15825910   2.653   5.654   3.773  0.0950  0.1284  0.4013
  117MOL   O15925911   2.596   5.581   3.849 -0.1651 -0.3720  0.5480
  117MOL   C16025912   2.712   5.600   3.646  0.3242 -0.4794  0.7171
  117MOL   H16125913   2.784   5.977   3.777  0.6536 -0.2730 -1.3199
  117MOL   H16225914   2.832   5.851   3.681 -0.6734 -0.5891 -0.1434
  117MOL   H16325915   2.618   5.829   3.897  1.1490 -2.4709  1.6161
  117MOL   H16425916   2.809   5.562   3.678  0.4828 -1.8255 -1.2922
  117MOL   H16525917   2.731   5.676   3.570  0.4218 -1.4803 -0.2746
  117MOL   H16625918   2.664   5.516   3.596  2.3023 -1.9312  1.1740
  117MOL   C16725919   2.554   5.878   3.689 -0.5187  0.4756  0.7615
  117MOL   C16825920   2.408   5.891   3.731  0.4780 -0.4451 -0.6269
  117MOL   C16925921   2.336   5.756   3.758  0.8146 -0.1571  0.6528
  117MOL   O17025922   2.299   5.681   3.669 -0.2384 -0.1911 -0.1801
  117MOL   C17125923   2.312   5.728   3.899  0.1196 -0.1421  0.1899
  117MOL   H17225924   2.588   5.976   3.655 -0.6765  0.5178  0.7229
  117MOL   H17325925   2.562   5.822   3.596  0.3408  1.2031  0.3912
  117MOL   H17425926   2.422   5.947   3.823  0.6386  0.6308 -1.2940
  117MOL   H17525927   2.408   5.731   3.951  1.3951 -1.2636 -2.0156
  117MOL   H17625928   2.268   5.628   3.906  1.3349 -0.7509 -0.6483
  117MOL   H17725929   2.249   5.800   3.950  0.3337 -0.9642  1.6449
  117MOL   C17825930   2.316   5.977   3.643  0.1319  0.4001  0.2407
  117MOL   C17925931   2.171   5.992   3.686  0.9653 -0.2356  0.3991
  117MOL   C18025932   2.090   6.053   3.578  0.7871  0.0415 -0.1193
  117MOL   O18125933   2.043   6.168   3.578  0.0737 -0.9795  0.1333
  117MOL   C18225934   2.056   5.968   3.453  0.5827 -0.0547  0.4038
  117MOL   H18325935   2.361   6.075   3.624 -0.1888  0.8122  1.5110
  117MOL   H18425936   2.312   5.932   3.544  1.4687  0.0796  0.3262
  117MOL   H18525937   2.137   5.893   3.716  1.2258 -0.9121 -1.4760
  117MOL   H18625938   1.991   5.885   3.481 -0.6158  0.9451  0.6202
  117MOL   H18725939   2.143   5.929   3.400  0.8600  0.8018  0.2229
  117MOL   H18825940   1.996   6.026   3.383  0.2484 -0.8096  0.0589
  117MOL   C18925941   2.160   6.071   3.822 -0.0324 -0.3656  0.3246
  117MOL   C19025942   2.015   6.085   3.881  0.3245  0.0109  0.3814
  117MOL   C19125943   1.977   5.950   3.932 -0.0498 -0.1578  0.1895
  117MOL   O19225944   2.040   5.904   4.031  0.4638  0.0299 -0.4228
  117MOL   C19325945   1.864   5.876   3.861 -0.3600  0.1690 -0.3175
  117MOL   H19425946   2.225   6.045   3.905 -0.0004 -0.6540  0.2061
  117MOL   H19525947   2.204   6.168   3.797  0.9963 -1.0040 -0.3536
  117MOL   H19625948   1.944   6.120   3.806  1.3815 -2.7109 -1.9492
  117MOL   H19725949   1.879   5.859   3.754  2.1055 -2.0696  0.3480
  117MOL   H19825950   1.836   5.785   3.913 -0.0415  0.7775  0.9300
  117MOL   H19925951   1.787   5.953   3.869 -0.9912 -0.1884 -2.4639
  117MOL   C20025952   2.027   6.187   3.997 -0.0926 -0.0151 -0.6849
  117MOL   C20125953   1.889   6.240   4.044  0.3626  0.3638  0.4593
  117MOL   C20225954   1.804   6.301   3.937 -0.7175  0.5077  0.9088
  117MOL   O20325955   1.699   6.241   3.911 -0.3081 -0.6022  0.1036
  117MOL   C20425956   1.859   6.416   3.847 -0.3164 -0.3040  0.1733
  117MOL   H20525957   2.089   6.147   4.077 -0.8398 -2.0260 -1.0754
  117MOL   H20625958   2.091   6.269   3.965  5.2480 -2.8472  1.9392
  117MOL   H20725959   1.836   6.152   4.081 -1.9535  0.2652 -2.8732
  117MOL   H20825960   1.775   6.461   3.794 -0.5112 -1.5810 -0.6278
  117MOL   H20925961   1.899   6.501   3.903 -0.1293  0.3445 -0.9403
  117MOL   H21025962   1.935   6.383   3.776  0.0616 -2.3560  1.4696
  117MOL   C21125963   1.917   6.328   4.160 -0.5016  0.1834 -0.3338
  117MOL   C21225964   1.799   6.389   4.240  0.7557 -0.2187  0.1437
  117MOL   C21325965   1.850   6.494   4.329  0.8101 -0.7982  0.6039
  117MOL   O21425966   1.937   6.469   4.404 -0.4622 -0.0844  0.0706
  117MOL   C21525967   1.801   6.639   4.312  0.3532  0.2877  1.1652
  117MOL   H21625968   1.971   6.259   4.225 -0.2435 -1.8358 -2.6253
  117MOL   H21725969   1.987   6.403   4.125  2.1055 -1.3923  1.3319
  117MOL   H21825970   1.737   6.320   4.297 -2.9107  0.4404 -2.8367
  117MOL   H21925971   1.755   6.657   4.409 -0.4784  0.0358  0.8249
  117MOL   H22025972   1.888   6.702   4.291 -2.1164  3.0088 -1.2796
  117MOL   H22125973   1.731   6.657   4.230  1.0682 -0.4392  0.3793
  117MOL   H22225974   1.726   6.429   4.169 -0.4211 -2.6019 -0.0335
  118MOL     C125975   2.272   6.913   3.055  0.0950  0.5680  0.3841
  118MOL     C225976   2.245   7.009   3.169 -0.6091 -0.4428 -0.2973
  118MOL     C325977   2.340   7.135   3.147 -0.3972  0.8556 -0.1552
  118MOL     O425978   2.301   7.246   3.127  0.1329 -0.3231  0.8002
  118MOL     C525979   2.486   7.108   3.139 -0.7871  0.0831  0.7666
  118MOL     H625980   2.215   6.821   3.065 -0.7788  1.2215  1.5043
  118MOL     H725981   2.378   6.886   3.047 -0.2335 -0.7285  0.3465
  118MOL     H825982   2.279   6.960   3.260 -1.1990 -0.8383 -0.2850
  118MOL     H925983   2.506   7.009   3.179  0.5034  0.5245  1.2481
  118MOL    H1025984   2.511   7.110   3.033 -0.4313 -1.0446  0.8217
  118MOL    H1125985   2.546   7.190   3.179 -1.0864  0.6459  0.0894
  118MOL    H1225986   2.232   6.957   2.963  0.7426  1.6062  0.5858
  118MOL    C1325987   2.100   7.033   3.179 -0.0268 -0.3853  0.1686
  118MOL    C1425988   2.069   7.119   3.302  1.3074 -0.4746  0.3074
  118MOL    C1525989   2.103   7.032   3.423 -0.6032 -0.3400 -0.3632
  118MOL    O1625990   2.068   6.912   3.420  0.4203  0.4283 -0.8078
  118MOL    C1725991   2.190   7.092   3.537  0.3409  0.5181 -0.5605
  118MOL    H1825992   2.080   7.093   3.091  0.9617  0.8528  0.7630
  118MOL    H1925993   2.036   6.945   3.176 -0.0112 -0.3577 -1.1055
  118MOL    H2025994   2.128   7.210   3.311 -0.9296  0.9107  1.6329
  118MOL    H2125995   2.296   7.083   3.516  0.2007 -0.8448 -0.7430
  118MOL    H2225996   2.171   7.199   3.543  1.2693  0.7280 -1.3356
  118MOL    H2325997   2.156   7.045   3.630  0.7302 -0.3923 -0.8742
  118MOL    C2425998   1.921   7.160   3.296 -0.3093 -0.2675  0.0352
  118MOL    C2525999   1.864   7.256   3.404  0.2844  0.5728  0.4046
  118MOL    C2626000   1.921   7.394   3.379 -0.4637  0.0587  0.7198
  118MOL    O2726001   1.976   7.427   3.275 -0.5355 -0.7475  0.7758
  118MOL    C2826002   1.896   7.489   3.492  0.7536 -1.7190 -0.4591
  118MOL    H2926003   1.903   7.203   3.198 -1.8794  1.1952  0.9547
  118MOL    H3026004   1.867   7.065   3.293 -0.8745 -0.1149  3.2291
  118MOL    H3126005   1.893   7.220   3.502  0.2503 -2.4452 -0.6416
  118MOL    H3226006   1.965   7.574   3.497 -1.2801  0.0102 -0.9395
  118MOL    H3326007   1.797   7.535   3.495  1.7182  0.5306 -1.5595
  118MOL    H3426008   1.912   7.441   3.588  1.6993  1.1979  0.8969
  118MOL    C3526009   1.706   7.243   3.413  0.0442 -0.3915  0.2661
  118MOL    C3626010   1.621   7.315   3.297 -0.2531 -0.5356 -0.0347
  118MOL    C3726011   1.638   7.270   3.153 -0.3704  0.3147 -0.4194
  118MOL    O3826012   1.584   7.163   3.110 -0.2844  0.6205  0.3428
  118MOL    C3926013   1.724   7.358   3.064 -0.6641 -0.0710  0.3291
  118MOL    H4026014   1.685   7.289   3.510  1.1872 -2.2868  1.4547
  118MOL    H4126015   1.678   7.137   3.411 -0.9906 -0.0999 -2.0301
  118MOL    H4226016   1.643   7.421   3.306 -1.8432 -0.2180  0.2774
  118MOL    H4326017   1.655   7.407   2.997 -2.3037 -1.4350  0.9860
  118MOL    H4426018   1.801   7.299   3.015  1.0639  1.2722  1.3528
  118MOL    H4526019   1.776   7.429   3.129  0.4269 -1.7570  1.3508
  118MOL    C4626020   1.468   7.319   3.338 -0.1010 -0.2866 -0.2886
  118MOL    C4726021   1.392   7.182   3.361  0.0211  0.2305  0.0340
  118MOL    C4826022   1.355   7.169   3.507 -0.2466 -0.6609 -0.6645
  118MOL    O4926023   1.257   7.236   3.550  0.3866 -0.1410  0.3097
  118MOL    C5026024   1.440   7.081   3.592 -0.2253 -0.5980  0.5978
  118MOL    H5126025   1.414   7.371   3.258  0.2546  0.1069 -0.2753
  118MOL    H5226026   1.460   7.392   3.418  1.2416 -0.0062 -0.4039
  118MOL    H5326027   1.459   7.098   3.341 -1.1575 -1.1088  1.5707
  118MOL    H5426028   1.515   7.023   3.538 -0.2970 -0.6144  0.5168
  118MOL    H5526029   1.479   7.134   3.679 -0.9072  0.8999  0.0174
  118MOL    H5626030   1.372   7.010   3.638 -1.1326 -0.3022 -0.2736
  118MOL    C5726031   1.266   7.160   3.272  0.2996  0.3461  0.1488
  118MOL    C5826032   1.174   7.037   3.289 -0.7901 -0.5891 -1.4005
  118MOL    C5926033   1.037   7.067   3.237 -0.8218  0.4544  0.4706
  118MOL    O6026034   0.973   6.992   3.160 -0.4596 -0.2648 -0.0579
  118MOL    C6126035   0.953   7.186   3.292  0.4455  0.3234  0.1184
  118MOL    H6226036   1.305   7.162   3.170 -2.9695  0.4154 -1.1640
  118MOL    H6326037   1.212   7.255   3.272 -2.7327 -1.2675 -2.4223
  118MOL    H6426038   1.174   7.024   3.398  1.7178  0.5987 -1.2250
  118MOL    H6526039   0.859   7.154   3.336  0.1264 -1.3240 -1.6986
  118MOL    H6626040   1.014   7.258   3.347 -2.2029  1.1428  2.0860
  118MOL    H6726041   0.908   7.237   3.207 -0.0926 -0.5496 -0.1289
  118MOL    C6826042   1.251   6.906   3.234 -1.4256 -1.0983 -0.9181
  118MOL    C6926043   1.184   6.777   3.272 -0.4092 -0.1348 -0.8908
  118MOL    C7026044   1.199   6.745   3.417  0.4255  0.8367 -0.2367
  118MOL    O7126045   1.268   6.806   3.496  0.0861 -0.7016 -0.0973
  118MOL    C7226046   1.133   6.620   3.462  0.2688 -0.5168 -0.1663
  118MOL    H7326047   1.259   6.911   3.125  1.3495 -0.7977 -0.7349
  118MOL    H7426048   1.354   6.904   3.271 -1.6526  2.4076  0.1089
  118MOL    H7526049   1.077   6.788   3.254 -0.4263  0.8967 -0.2116
  118MOL    H7626050   1.122   6.617   3.570  1.7971 -0.6112 -0.0015
  118MOL    H7726051   1.042   6.602   3.406  0.3398 -2.2319  0.2250
  118MOL    H7826052   1.192   6.533   3.432  3.3991  1.9017 -1.3586
  118MOL    C7926053   1.245   6.658   3.187  0.0484  1.2022  0.0441
  118MOL    C8026054   1.163   6.627   3.051  0.4296 -0.1591 -0.1186
  118MOL    C8126055   1.017   6.582   3.069 -0.5701 -0.2536  0.0194
  118MOL    O8226056   0.983   6.464   3.071  0.2245  0.4351  0.0255
  118MOL    C8326057   0.915   6.687   3.079  0.1275  0.1796 -0.2093
  118MOL    H8426058   1.255   6.565   3.242  1.1391  1.0600 -0.3885
  118MOL    H8526059   1.346   6.685   3.158 -0.2557  1.5946 -0.6903
  118MOL    H8626060   1.164   6.723   2.999 -1.5830  0.6621  1.3105
  118MOL    H8726061   0.963   6.780   3.048  0.0098  0.5572  0.7120
  118MOL    H8826062   0.887   6.690   3.184 -1.2859 -2.8040 -0.4577
  118MOL    H8926063   0.831   6.668   3.013  0.7096 -1.8699 -0.4102
  118MOL    C9026064   1.248   6.521   2.961  0.7938  0.2048 -0.4374
  118MOL    C9126065   1.240   6.529   2.804  0.2980 -0.3382  0.3483
  118MOL    C9226066   1.094   6.507   2.756  0.3616  0.3760  0.6307
  118MOL    O9326067   1.024   6.593   2.698 -0.6730 -0.0379  0.3122
  118MOL    C9426068   1.041   6.365   2.767  0.0071 -0.7068 -0.0117
  118MOL    H9526069   1.355   6.528   2.979  1.0304  2.0891 -2.4536
  118MOL    H9626070   1.219   6.421   2.993  1.7880 -0.1498 -0.6240
  118MOL    H9726071   1.303   6.444   2.778  1.2480  1.1424 -2.4425
  118MOL    H9826072   0.949   6.353   2.710  0.3864 -1.8812 -0.3784
  118MOL    H9926073   1.118   6.311   2.711  0.7185 -0.2463  0.5108
  118MOL   H10026074   1.045   6.317   2.864 -1.4479  1.4076  1.1297
  118MOL   C10126075   1.302   6.663   2.753 -0.4415  0.6792 -0.1537
  118MOL   C10226076   1.314   6.688   2.604  0.0964 -0.2088  0.1695
  118MOL   C10326077   1.399   6.588   2.515  0.1164  0.0440 -0.9319
  118MOL   O10426078   1.353   6.565   2.402 -0.1384 -0.0468  0.0008
  118MOL   C10526079   1.527   6.521   2.560 -0.0534  0.2361  0.2454
  118MOL   H10626080   1.236   6.739   2.794 -3.2618 -1.8914  0.2845
  118MOL   H10726081   1.402   6.662   2.796 -0.4446  0.4072 -0.1503
  118MOL   H10826082   1.210   6.679   2.572 -0.0817 -0.7105  0.8866
  118MOL   H10926083   1.516   6.415   2.586  1.1972 -0.0715 -0.4505
  118MOL   H11026084   1.608   6.529   2.488  0.7840  3.2725  1.4446
  118MOL   H11126085   1.553   6.566   2.656  0.6108 -0.9837  0.6542
  118MOL   C11226086   1.350   6.841   2.576 -0.3085 -0.5053 -0.2379
  118MOL   C11326087   1.298   6.889   2.436  0.2069  0.0167  0.8039
  118MOL   C11426088   1.401   6.885   2.326 -0.2897 -0.1421  0.6965
  118MOL   O11526089   1.505   6.949   2.341 -0.0872  0.3216 -0.1560
  118MOL   C11626090   1.372   6.810   2.193 -0.2678 -0.1909 -0.7053
  118MOL   H11726091   1.457   6.850   2.597 -0.8267 -0.0358  2.4245
  118MOL   H11826092   1.308   6.908   2.651 -0.0887 -0.2554 -0.3414
  118MOL   H11926093   1.236   6.806   2.403  0.1639 -0.1421  1.2873
  118MOL   H12026094   1.440   6.729   2.167 -0.1501 -0.0115 -0.9532
  118MOL   H12126095   1.287   6.743   2.207  0.2651 -0.8248 -0.4671
  118MOL   H12226096   1.361   6.883   2.113  0.4335 -0.6684 -1.2386
  118MOL   C12326097   1.218   7.024   2.438  0.6254 -0.6530 -0.0930
  118MOL   C12426098   1.082   7.026   2.510 -0.0989 -0.3576 -0.6502
  118MOL   C12526099   0.971   6.972   2.420  0.5453  0.7118  0.3241
  118MOL   O12626100   0.895   7.055   2.367 -0.5491  0.5522  0.5784
  118MOL   C12726101   0.964   6.820   2.381 -0.1636 -0.1485  0.0118
  118MOL   H12826102   1.204   7.054   2.334  1.0468  3.2879  0.9158
  118MOL   H12926103   1.284   7.096   2.486 -1.0348 -0.1143  1.4401
  118MOL   H13026104   1.086   6.958   2.595 -0.4403  0.7893  0.3032
  118MOL   H13126105   0.860   6.790   2.368 -0.1103 -0.5169  0.4332
  118MOL   H13226106   1.006   6.756   2.458 -0.5722  0.9170  1.1272
  118MOL   H13326107   1.018   6.800   2.288  0.7667 -0.2741  0.5779
  118MOL   C13426108   1.051   7.168   2.563 -0.1237  0.3797 -0.0891
  118MOL   C13526109   0.978   7.152   2.698 -0.1876 -0.4800  0.3707
  118MOL   C13626110   1.043   7.067   2.805  0.1581  0.2319  0.8825
  118MOL   O13726111   1.002   6.955   2.838  0.4244 -0.1702 -0.1663
  118MOL   C13826112   1.181   7.111   2.849 -0.4704 -0.0089 -0.5781
  118MOL   H13926113   0.996   7.234   2.495 -2.1666 -1.2653 -0.0694
  118MOL   H14026114   1.149   7.206   2.592 -0.1869 -0.3872  1.1487
  118MOL   H14126115   0.881   7.112   2.669 -0.1423  0.4285 -1.1206
  118MOL   H14226116   1.209   7.099   2.954 -1.6062 -0.1786 -0.2843
  118MOL   H14326117   1.191   7.214   2.817  0.5240 -0.4702 -1.7974
  118MOL   H14426118   1.246   7.045   2.791  0.3874 -1.7138  2.2108
  118MOL   C14526119   0.947   7.303   2.747 -0.2724  0.0613  0.0737
  118MOL   C14626120   0.871   7.312   2.886 -0.4771  0.0635  0.4122
  118MOL   C14726121   0.904   7.441   2.961 -0.8902 -0.1194  0.0138
  118MOL   O14826122   0.972   7.438   3.063  0.3538  0.2773 -0.6510
  118MOL   C14926123   0.853   7.570   2.895 -0.2290 -0.6147  0.2142
  118MOL   H15026124   0.894   7.357   2.668  0.6820  2.5550  1.0679
  118MOL   H15126125   1.037   7.365   2.751 -0.2199 -0.0066 -0.0567
  118MOL   H15226126   0.908   7.229   2.947 -1.0704 -1.1455 -0.8381
  118MOL   H15326127   0.758   7.582   2.842 -1.4365  0.1969  2.4990
  118MOL   H15426128   0.843   7.657   2.959 -0.2909 -1.8167  1.8847
  118MOL   H15526129   0.932   7.589   2.822  0.0297  0.6720  0.8249
  118MOL   C15626130   0.727   7.285   2.862  0.7120 -0.2384  0.2839
  118MOL   C15726131   0.653   7.243   2.985 -0.3852  0.1157  0.7699
  118MOL   C15826132   0.591   7.098   2.973 -0.1345 -0.1009  0.4161
  118MOL   O15926133   0.488   7.078   2.907 -0.0642  0.8134 -0.9216
  118MOL   C16026134   0.646   6.992   3.062  0.5300  0.8750  0.1357
  118MOL   H16126135   0.689   7.374   2.813 -2.0388 -2.2816 -1.4950
  118MOL   H16226136   0.730   7.210   2.782  1.6717 -3.0476  2.8585
  118MOL   H16326137   0.707   7.238   3.080 -1.7941  1.3764  1.6556
  118MOL   H16426138   0.754   6.991   3.051  0.5774 -1.9460  0.5224
  118MOL   H16526139   0.609   6.894   3.031  0.8265  0.5443  0.8050
  118MOL   H16626140   0.625   7.017   3.166 -1.6473  1.1424 -0.3447
  118MOL   C16726141   0.539   7.343   3.017 -0.6559  0.6245  0.4071
  118MOL   C16826142   0.484   7.363   3.162  0.4478 -0.0003  0.0640
  118MOL   C16926143   0.587   7.382   3.273 -0.0583 -0.4610  0.5613
  118MOL   O17026144   0.598   7.297   3.357 -0.0816  0.0532 -0.4329
  118MOL   C17126145   0.683   7.501   3.275 -0.0769  0.2900  0.5757
  118MOL   H17226146   0.571   7.441   2.982 -0.2579  0.3506 -0.0019
  118MOL   H17326147   0.461   7.317   2.945  0.4573 -1.7261  0.0375
  118MOL   H17426148   0.437   7.461   3.153  2.1263  0.7591 -0.6267
  118MOL   H17526149   0.641   7.592   3.319  0.5749  0.9621 -0.1488
  118MOL   H17626150   0.713   7.533   3.174 -0.2619 -0.6466  0.2237
  118MOL   H17726151   0.777   7.489   3.328 -0.9119 -4.6503  1.0996
  118MOL   C17826152   0.385   7.246   3.196 -0.1036 -0.3620  0.3502
  118MOL   C17926153   0.255   7.229   3.113  0.2208  0.0485 -0.1248
  118MOL   C18026154   0.153   7.343   3.143  0.0320 -0.0640  0.4530
  118MOL   O18126155   0.128   7.382   3.260  0.0604  0.1419 -0.0341
  118MOL   C18226156   0.090   7.409   3.029 -0.2311  1.0652 -0.9624
  118MOL   H18326157   0.443   7.155   3.205  0.0777 -0.3596 -0.7379
  118MOL   H18426158   0.346   7.266   3.296  0.6011 -0.2215  0.5982
  118MOL   H18526159   0.281   7.250   3.009 -0.1825  0.8137 -0.0791
  118MOL   H18626160   0.155   7.412   2.942  0.6291  0.1306 -0.3647
  118MOL   H18726161   0.059   7.509   3.057 -1.3776  1.1667 -2.5756
  118MOL   H18826162   0.002   7.361   2.987 -0.2527 -0.0511  0.3105
  118MOL   C18926163   0.201   7.088   3.106  0.0117 -0.5015 -0.4183
  118MOL   C19026164   0.100   7.063   2.995  0.0464 -0.1846  0.1311
  118MOL   C19126165   0.177   7.028   2.865 -0.2440 -0.9198 -0.0235
  118MOL   O19226166   0.225   6.912   2.852  0.3822 -0.7484  0.0870
  118MOL   C19326167   0.196   7.130   2.754 -0.0521  0.2908  0.5507
  118MOL   H19426168   0.269   7.002   3.104  1.4665  0.6064  0.4239
  118MOL   H19526169   0.156   7.075   3.204 -0.3384  1.8664 -0.2411
  118MOL   H19626170   0.041   7.152   2.970  1.5759  1.0607  0.8663
  118MOL   H19726171   0.177   7.089   2.655  1.4545  2.1619 -0.5628
  118MOL   H19826172   0.114   7.200   2.768  0.0016  0.2866  0.9084
  118MOL   H19926173   0.293   7.181   2.752 -0.3929  0.9453  0.5795
  118MOL   C20026174   7.842   6.971   3.034  0.1292  0.6086 -0.6734
  118MOL   C20126175   7.696   7.015   2.992  0.1488 -0.1015  0.8517
  118MOL   C20226176   7.687   7.066   2.850 -0.5017 -0.2782 -0.5195
  118MOL   O20326177   7.706   7.183   2.817  0.0220  0.0107 -0.0743
  118MOL   C20426178   7.643   6.959   2.750  0.0250 -0.2207  0.4196
  118MOL   H20526179   7.848   6.873   2.988  0.3498  0.2665  0.0825
  118MOL   H20626180   7.839   6.951   3.141 -1.9792  2.4992 -0.3370
  118MOL   H20726181   7.639   6.922   2.997 -0.6753  0.5061  3.1013
  118MOL   H20826182   7.668   6.997   2.651 -0.3674  0.5813  0.6286
  118MOL   H20926183   7.703   6.869   2.765  1.0818  0.2168 -1.0402
  118MOL   H21026184   7.537   6.937   2.758  0.0969 -0.6686  0.1926
  118MOL   C21126185   7.635   7.109   3.096 -0.5591  0.3037  0.5234
  118MOL   C21226186   7.491   7.150   3.067  0.7143 -0.5810 -0.1737
  118MOL   C21326187   7.421   7.219   3.180  0.0452  0.2972 -0.5756
  118MOL   O21426188   7.474   7.246   3.291 -0.3539  0.1653  0.0940
  118MOL   C21526189   7.273   7.251   3.167 -0.6198 -0.5247  0.6208
  118MOL   H21626190   7.633   7.063   3.195 -0.6805  0.4127  0.5721
  118MOL   H21726191   7.698   7.197   3.097 -2.1965  1.5357 -1.4199
  118MOL   H21826192   7.429   7.062   3.051  0.8488 -0.9598  1.3108
  118MOL   H21926193   7.248   7.260   3.062  1.3892  0.4665  0.1964
  118MOL   H22026194   7.204   7.182   3.216 -0.7377  0.5476  2.0061
  118MOL   H22126195   7.263   7.342   3.226 -0.6878 -0.4676  0.5197
  118MOL   H22226196   7.478   7.214   2.979  0.5110  0.1977  0.4150
  119MOL     C126197   1.365   7.712   5.908 -0.2095 -0.3733 -0.4204
  119MOL     C226198   1.252   7.798   5.857  0.7279 -0.0223 -0.5285
  119MOL     C326199   1.285   0.090   5.869  0.4866  0.4061  0.8509
  119MOL     O426200   1.326   0.157   5.775 -0.5123 -0.0079 -0.5824
  119MOL     C526201   1.254   0.161   6.003  0.6591 -0.0598  0.0109
  119MOL     H626202   1.379   7.733   6.014 -0.3455  1.8927 -0.8163
  119MOL     H726203   1.461   7.722   5.856  1.3704 -3.0235  1.8392
  119MOL     H826204   1.170   7.762   5.919  0.8314 -1.5738 -1.2679
  119MOL     H926205   1.342   0.222   6.020 -0.0671  1.3686 -1.3063
  119MOL    H1026206   1.168   0.223   5.979 -0.1501 -1.4384 -0.7542
  119MOL    H1126207   1.235   0.088   6.082  1.4374 -1.0152 -0.6739
  119MOL    H1226208   1.338   7.606   5.909 -2.4671  0.1769  0.7603
  119MOL    C1326209   1.232   7.753   5.711  0.7101  0.8704 -0.2650
  119MOL    C1426210   1.130   7.829   5.620  0.0258 -0.2989  0.5752
  119MOL    C1526211   0.989   7.836   5.681  0.0760  0.4249  0.0073
  119MOL    O1626212   0.926   7.728   5.687 -0.8547 -0.3556  0.2854
  119MOL    C1726213   0.926   0.115   5.718  0.0354 -0.3854  0.2420
  119MOL    H1826214   1.322   7.754   5.649 -1.1769 -1.7440 -3.2320
  119MOL    H1926215   1.209   7.646   5.710  1.3182  0.7389 -2.0098
  119MOL    H2026216   1.159   0.076   5.615 -2.4593  0.5450  2.6186
  119MOL    H2126217   1.009   0.183   5.741 -1.7744  1.8546  0.4144
  119MOL    H2226218   0.878   0.171   5.638 -0.9735 -0.5173  0.7454
  119MOL    H2326219   0.867   0.109   5.809 -1.1112 -2.9892 -0.6516
  119MOL    C2426220   1.122   7.772   5.482  0.2367 -0.1568  0.8434
  119MOL    C2526221   1.043   0.006   5.384 -0.2978  0.3227 -0.7339
  119MOL    C2626222   1.117   0.138   5.363 -0.3181  0.1438 -0.7459
  119MOL    O2726223   1.229   0.138   5.314  0.1980  0.1547  0.0071
  119MOL    C2826224   1.039   0.266   5.378  0.4922  0.1369  0.2656
  119MOL    H2926225   1.220   7.775   5.433 -1.1317 -1.7041 -2.1449
  119MOL    H3026226   1.087   7.669   5.471 -1.0341  0.3465  0.0938
  119MOL    H3126227   0.945   0.034   5.422  0.1587  0.3600  0.4395
  119MOL    H3226228   1.037   0.301   5.481 -3.3861 -1.8798  0.9875
  119MOL    H3326229   1.070   0.343   5.308 -1.9334  0.0128 -1.0037
  119MOL    H3426230   0.933   0.258   5.354  1.1973 -1.1110 -2.6775
  119MOL    C3526231   1.018   7.804   5.246  0.0124  0.3966  0.0501
  119MOL    C3626232   0.937   0.021   5.134  0.4182 -0.0362  0.3051
  119MOL    C3726233   0.958   7.815   4.996  0.0531 -0.2403  0.1768
  119MOL    O3826234   0.871   7.742   4.947 -0.1714  0.2908 -0.0787
  119MOL    C3926235   1.088   7.847   4.922 -0.1694  0.4361  0.7624
  119MOL    H4026236   0.965   7.713   5.272  0.9047  0.3996  1.9779
  119MOL    H4126237   1.112   7.772   5.201  1.6401  1.3598  2.5960
  119MOL    H4226238   0.991   0.115   5.121  1.4936 -0.3745  2.1980
  119MOL    H4326239   1.129   0.078   4.972  0.9900  0.0578  0.4964
  119MOL    H4426240   1.058   0.014   4.820 -1.3576 -1.5169  0.6144
  119MOL    H4526241   1.158   7.765   4.909  1.9067  2.4259 -0.9420
  119MOL    C4626242   0.788   0.047   5.169  0.6152 -0.4057 -0.3091
  119MOL    C4726243   0.725   0.142   5.058  0.0119  0.0229  0.5781
  119MOL    C4826244   0.581   0.103   5.045  0.7265 -0.9176  0.3100
  119MOL    O4926245   0.484   0.153   5.112  0.0499  0.5166 -0.8110
  119MOL    C5026246   0.544   7.842   4.955 -0.6277 -0.3203 -0.4959
  119MOL    H5126247   0.776   0.086   5.270  1.7638 -0.8399  0.0092
  119MOL    H5226248   0.735   7.810   5.162 -3.3096  1.5373  1.6853
  119MOL    H5326249   0.776   0.140   4.962  0.8602  1.9154  0.9699
  119MOL    H5426250   0.439   7.847   4.927 -0.4499 -0.2049 -1.1461
  119MOL    H5526251   0.592   0.016   4.862  2.6913 -0.7911  0.9757
  119MOL    H5626252   0.592   7.748   4.984  1.0988  0.9078  0.7427
  119MOL    C5726253   0.742   0.289   5.100 -0.4397 -0.8578  0.5706
  119MOL    C5826254   0.721   0.394   4.984  0.2418 -0.8475  0.6238
  119MOL    C5926255   0.583   0.387   4.912 -0.0936  0.5726 -0.0013
  119MOL    O6026256   0.574   0.328   4.807 -0.3038  0.1277 -0.2389
  119MOL    C6126257   0.467   0.466   4.986 -0.4217 -0.5875 -0.8189
  119MOL    H6226258   0.845   0.297   5.136  0.3956  0.8978 -2.0355
  119MOL    H6326259   0.666   0.323   5.171  0.0926  0.1081  0.6930
  119MOL    H6426260   0.792   0.373   4.904 -0.3606  1.1378 -0.4801
  119MOL    H6526261   0.512   0.520   5.069  1.3725 -0.4047 -1.8819
  119MOL    H6626262   0.411   0.520   4.909 -0.9507  2.7012  1.7704
  119MOL    H6726263   0.403   0.386   5.023 -1.2016 -0.4089 -1.7354
  119MOL    C6826264   0.759   0.537   5.033 -0.2606  0.1439  0.1379
  119MOL    C6926265   0.915   0.567   5.023  0.4733 -0.8415  0.1424
  119MOL    C7026266   0.943   0.686   5.112 -1.4595  0.4080  0.6681
  119MOL    O7126267   0.936   0.801   5.070  0.1865 -0.3821  0.5873
  119MOL    C7226268   0.971   0.659   5.259  0.0471  0.7755  0.3095
  119MOL    H7326269   0.715   0.617   4.974 -1.1511  0.5110  1.2955
  119MOL    H7426270   0.720   0.556   5.133  1.1037 -1.1464  0.9320
  119MOL    H7526271   0.970   0.480   5.058 -2.2009 -2.7919 -0.4353
  119MOL    H7626272   0.875   0.637   5.307  1.6536 -1.0458  2.8472
  119MOL    H7726273   1.033   0.569   5.265 -1.1116 -0.2824 -2.6033
  119MOL    H7826274   1.020   0.742   5.310 -0.7504  1.4728 -0.0488
  119MOL    C7926275   0.950   0.587   4.873 -0.1092  0.2201 -0.0015
  119MOL    C8026276   1.095   0.542   4.837 -0.0992 -0.1420 -0.4931
  119MOL    C8126277   1.128   0.392   4.849 -0.3042  0.2359  0.1035
  119MOL    O8226278   1.079   0.318   4.931  0.3387 -0.5151 -0.3086
  119MOL    C8326279   1.218   0.329   4.743  0.0035  0.3654 -0.3101
  119MOL    H8426280   0.946   0.692   4.845 -3.4106 -0.2084 -1.4716
  119MOL    H8526281   0.883   0.531   4.807  1.6310 -2.2702  0.2449
  119MOL    H8626282   1.097   0.561   4.730  1.5383 -2.0611 -0.8403
  119MOL    H8726283   1.177   0.353   4.645 -0.3744 -3.9914 -1.3199
  119MOL    H8826284   1.222   0.220   4.746  0.6882  0.4097  0.5207
  119MOL    H8926285   1.324   0.356   4.745  0.3257 -0.9327  1.1816
  119MOL    C9026286   1.212   0.624   4.908 -0.1663  0.0134 -0.3438
  119MOL    C9126287   1.333   0.647   4.819  0.3616 -0.1273  0.6364
  119MOL    C9226288   1.299   0.777   4.739 -0.3516 -0.1883 -0.2124
  119MOL    O9326289   1.301   0.887   4.793  0.1775 -0.5128 -0.6411
  119MOL    C9426290   1.276   0.770   4.585 -0.1221 -0.3967 -0.3493
  119MOL    H9526291   1.172   0.723   4.930  0.1227  0.2666 -0.9477
  119MOL    H9626292   1.242   0.581   5.003  2.0575  2.2884  0.0431
  119MOL    H9726293   1.365   0.575   4.744  1.1685  0.4814  0.3910
  119MOL    H9826294   1.237   0.864   4.546 -0.7099  0.6369  2.5602
  119MOL    H9926295   1.366   0.736   4.535  1.1774  1.9717  0.3108
  119MOL   H10026296   1.186   0.711   4.565  0.8792 -0.7341 -4.1870
  119MOL   C10126297   1.454   0.678   4.908  0.0236  0.4160  0.6540
  119MOL   C10226298   1.585   0.701   4.835 -0.8317 -0.0910 -0.0478
  119MOL   C10326299   1.637   0.580   4.754 -0.1580  0.1021 -0.4650
  119MOL   O10426300   1.600   0.562   4.638  0.1830  0.2923 -0.8855
  119MOL   C10526301   1.718   0.479   4.824 -0.2108 -0.7617 -0.8350
  119MOL   H10626302   1.432   0.761   4.975  0.2575  2.7450 -2.0587
  119MOL   H10726303   1.469   0.593   4.975 -0.0341 -0.2146 -0.1329
  119MOL   H10826304   1.577   0.778   4.758  1.5089 -0.3376 -0.5846
  119MOL   H10926305   1.680   0.471   4.926  0.9244 -0.1321 -0.3542
  119MOL   H11026306   1.707   0.382   4.775 -1.4724 -0.7574 -0.5700
  119MOL   H11126307   1.825   0.501   4.827 -0.7178  1.9456 -1.9598
  119MOL   C11226308   1.696   0.759   4.930 -0.3315  0.4192 -0.0870
  119MOL   C11326309   1.656   0.895   4.992  0.1381 -0.1744 -0.5032
  119MOL   C11426310   1.646   1.000   4.887  0.0068  0.3542 -0.1125
  119MOL   O11526311   1.735   1.012   4.799 -0.6093  0.4616  0.4190
  119MOL   C11626312   1.528   1.097   4.897  0.1165 -0.0357 -0.8550
  119MOL   H11726313   1.798   0.754   4.892 -0.6525 -0.6670 -0.8524
  119MOL   H11826314   1.714   0.688   5.011 -1.5263  0.7571  0.4962
  119MOL   H11926315   1.560   0.884   5.043 -0.1563  2.4368 -0.4104
  119MOL   H12026316   1.442   1.046   4.939 -0.3157  0.2828 -1.3446
  119MOL   H12126317   1.544   1.183   4.962  1.0748 -0.4017 -0.6063
  119MOL   H12226318   1.503   1.139   4.799 -1.6001  1.3509  0.1443
  119MOL   C12326319   1.757   0.931   5.104 -0.0909 -0.4997 -0.6006
  119MOL   C12426320   1.719   1.056   5.184 -0.3623  0.3079  0.1503
  119MOL   C12526321   1.838   1.091   5.279  0.6326 -0.1066  0.1987
  119MOL   O12626322   1.835   1.060   5.400  0.5361  0.0868 -0.2674
  119MOL   C12726323   1.963   1.151   5.214 -0.5495  0.3528 -0.6438
  119MOL   H12826324   1.856   0.951   5.062  1.1856 -1.3929  1.8668
  119MOL   H12926325   1.752   0.853   5.181 -1.4285  0.5627  0.4093
  119MOL   H13026326   1.713   1.132   5.106 -0.5388  1.2208  1.0409
  119MOL   H13126327   2.033   1.071   5.190  1.2962  0.9902  2.3392
  119MOL   H13226328   2.009   1.215   5.290  2.2014 -0.1498 -1.8163
  119MOL   H13326329   1.933   1.206   5.125 -0.3155 -0.4795 -1.2409
  119MOL   C13426330   1.580   1.034   5.265 -0.4187 -0.1284  1.0232
  119MOL   C13526331   1.519   1.153   5.343 -0.5165  0.9181  0.1122
  119MOL   C13626332   1.492   1.266   5.241 -0.7726 -0.5431  0.9162
  119MOL   O13726333   1.413   1.241   5.152 -0.0237  0.0576 -0.0027
  119MOL   C13826334   1.570   1.394   5.246 -0.0261  0.2454  0.3499
  119MOL   H13926335   1.602   0.963   5.344 -0.2919  0.2188  1.3026
  119MOL   H14026336   1.507   0.982   5.202 -2.0282  0.3692  2.4398
  119MOL   H14126337   1.600   1.191   5.406 -2.5885  2.7240  1.7649
  119MOL   H14226338   1.661   1.397   5.185 -1.1324 -0.6877 -1.4014
  119MOL   H14326339   1.599   1.402   5.351  0.4965  1.2143  0.1435
  119MOL   H14426340   1.517   1.485   5.218  0.2188 -0.4608 -2.5529
  119MOL   C14526341   1.398   1.120   5.430  0.3104 -0.9228 -0.7018
  119MOL   C14626342   1.256   1.092   5.373 -0.3280 -0.5610 -0.5766
  119MOL   C14726343   1.239   0.959   5.299 -0.1584 -0.0435 -0.3274
  119MOL   O14826344   1.247   0.851   5.357  0.0303 -0.5983  0.1320
  119MOL   C14926345   1.175   0.967   5.158  0.2873  0.2257 -0.3459
  119MOL   H15026346   1.393   1.197   5.506  1.2220 -1.1690 -0.3839
  119MOL   H15126347   1.423   1.034   5.492 -0.5481 -0.1200  0.7750
  119MOL   H15226348   1.236   1.177   5.307  0.0765 -0.6165 -0.7706
  119MOL   H15326349   1.232   1.040   5.100  1.5650  1.3339  2.2034
  119MOL   H15426350   1.181   0.876   5.099 -1.2503  0.8207 -1.4416
  119MOL   H15526351   1.074   1.008   5.155 -0.1461 -0.9084 -1.5385
  119MOL   C15626352   1.154   1.100   5.497  0.7360  0.0906 -0.2757
  119MOL   C15726353   1.003   1.088   5.458 -0.4162 -1.0026  0.8024
  119MOL   C15826354   0.960   1.198   5.356 -0.1398  0.0988 -0.1198
  119MOL   O15926355   0.895   1.180   5.258 -0.2083  0.2386  0.2849
  119MOL   C16026356   1.010   1.341   5.378  0.8716  0.2940 -0.0045
  119MOL   H16126357   1.184   1.023   5.568  2.3675 -0.0164 -1.0551
  119MOL   H16226358   1.179   1.189   5.553 -2.3214  0.5046  0.5244
  119MOL   H16326359   0.988   0.994   5.404 -0.4965 -0.9445  0.7242
  119MOL   H16426360   0.928   1.412   5.384  1.3674  0.8806 -0.1250
  119MOL   H16526361   1.067   1.379   5.293  2.4485 -2.1931 -0.1209
  119MOL   H16626362   1.076   1.358   5.464  1.0277 -2.4893  0.4747
  119MOL   C16726363   0.909   1.086   5.584 -0.2448 -0.4369  0.7485
  119MOL   C16826364   0.762   1.041   5.560  0.1184  0.1529  0.1849
  119MOL   C16926365   0.676   1.087   5.684  0.3857  0.4725  0.1844
  119MOL   O17026366   0.634   1.003   5.770  0.1392 -0.3460  0.2714
  119MOL   C17126367   0.647   1.240   5.686 -0.1212  0.3115  0.0722
  119MOL   H17226368   0.946   1.005   5.646  0.1219 -0.8133  0.0416
  119MOL   H17326369   0.916   1.184   5.632 -0.2022 -1.5907  3.1561
  119MOL   H17426370   0.724   1.108   5.483 -0.4698 -0.5580 -0.1396
  119MOL   H17526371   0.660   1.290   5.590  1.3121  0.6871  0.4469
  119MOL   H17626372   0.719   1.274   5.761 -0.2059 -0.2101  0.3923
  119MOL   H17726373   0.546   1.247   5.726 -0.3556 -0.9006 -0.3069
  119MOL   C17826374   0.753   0.893   5.530 -0.4679  0.5718  0.3768
  119MOL   C17926375   0.612   0.842   5.485  0.2720 -0.5000 -0.1229
  119MOL   C18026376   0.596   0.694   5.510  0.3360  0.4199 -0.2794
  119MOL   O18126377   0.620   0.610   5.421  0.1660 -0.2404 -0.0401
  119MOL   C18226378   0.554   0.652   5.651  0.0530 -0.0317 -0.3784
  119MOL   H18326379   0.817   0.871   5.444  1.7600  1.8061  1.6680
  119MOL   H18426380   0.789   0.831   5.612 -1.5690  0.8920  1.1157
  119MOL   H18526381   0.541   0.890   5.553  0.4365  0.1147 -0.3806
  119MOL   H18626382   0.463   0.705   5.679  0.3374  0.5153 -0.4693
  119MOL   H18726383   0.643   0.691   5.701 -0.0432  2.5200 -2.0648
  119MOL   H18826384   0.533   0.547   5.672  0.3046 -0.6780 -3.2102
  119MOL   C18926385   0.568   0.889   5.343 -0.0059  0.7602 -0.2142
  119MOL   C19026386   0.417   0.890   5.323  0.0748 -0.1539  0.2617
  119MOL   C19126387   0.345   0.983   5.422 -0.6425 -0.0929 -0.1101
  119MOL   O19226388   0.387   1.099   5.438 -0.1407  0.0256  0.4156
  119MOL   C19326389   0.217   0.931   5.486  0.5427 -0.2088  0.0897
  119MOL   H19426390   0.599   0.993   5.327 -1.4415  1.3301  0.5777
  119MOL   H19526391   0.606   0.830   5.260  0.3335  0.6773  0.0019
  119MOL   H19626392   0.362   0.796   5.331 -0.8322  0.5188  2.0028
  119MOL   H19726393   0.163   0.854   5.431 -0.7905 -0.8418  2.2329
  119MOL   H19826394   0.247   0.876   5.575 -0.5012  0.3558  0.8045
  119MOL   H19926395   0.145   1.009   5.511  0.7836 -0.5687  1.9514
  119MOL   C20026396   0.392   0.939   5.175  0.0658 -0.1065 -0.5186
  119MOL   C20126397   0.239   0.950   5.128 -0.3503 -0.4660  0.3298
  119MOL   C20226398   0.170   0.818   5.106  0.1870 -0.7865  0.7099
  119MOL   O20326399   0.235   0.729   5.051 -0.1589  0.3291 -0.1615
  119MOL   C20426400   0.028   0.794   5.152 -0.1597 -0.5433 -1.0362
  119MOL   H20526401   0.425   1.042   5.166 -1.6985  0.7648  2.3936
  119MOL   H20626402   0.446   0.873   5.107 -0.4410 -0.7640 -0.2933
  119MOL   H20726403   0.188   1.014   5.200  1.1838  0.0010  1.0154
  119MOL   H20826404   0.034   0.721   5.233 -0.0541 -0.7116 -1.1953
  119MOL   H20926405   7.827   0.881   5.181  1.1470  0.2154 -0.6395
  119MOL   H21026406   7.828   0.741   5.076  1.7878 -2.8272 -0.9761
  119MOL   C21126407   0.219   1.038   4.997 -0.2646 -0.4932  0.3808
  119MOL   C21226408   0.276   0.982   4.868  0.0491 -0.7910  0.1153
  119MOL   C21326409   0.291   1.084   4.760  0.0276  0.0863  0.6295
  119MOL   O21426410   0.224   1.183   4.760  0.0052  0.0958  0.0326
  119MOL   C21526411   0.392   1.065   4.644  0.3583  1.0938  0.4071
  119MOL   H21626412   0.113   1.047   4.976 -0.0507  2.6970  0.4355
  119MOL   H21726413   0.244   1.142   5.020  0.1144 -0.8503  1.6234
  119MOL   H21826414   0.219   0.898   4.828 -1.2671 -0.0493  0.3983
  119MOL   H21926415   0.411   0.963   4.611 -1.2864  0.9463 -0.1386
  119MOL   H22026416   0.357   1.125   4.561  1.4714  1.5341  0.2557
  119MOL   H22126417   0.489   1.091   4.685  1.0580 -0.8746  0.0748
  119MOL   H22226418   0.380   0.951   4.882  0.1882  0.7701  2.9775
  120MOL     C126419   1.662   0.283   2.508  0.2001  0.4363 -0.5587
  120MOL     C226420   1.711   0.321   2.654 -0.0263  0.5390 -0.1808
  120MOL     C326421   1.667   0.201   2.747 -0.2727  0.2965  0.1550
  120MOL     O426422   1.747   0.109   2.766 -0.0354 -0.6196  0.4934
  120MOL     C526423   1.540   0.219   2.828 -1.2128 -0.4022  0.3655
  120MOL     H626424   1.745   0.263   2.441  0.7542  0.1312  0.2113
  120MOL     H726425   1.607   0.364   2.461 -1.0187 -1.3846 -2.3947
  120MOL     H826426   1.653   0.406   2.691  3.5363  2.0216  2.2287
  120MOL     H926427   1.552   0.224   2.937 -0.3344 -0.2636  0.2664
  120MOL    H1026428   1.480   0.305   2.800 -0.7933 -0.5132 -0.8796
  120MOL    H1126429   1.481   0.129   2.813 -2.5068  0.2258  1.5336
  120MOL    H1226430   1.586   0.205   2.503 -0.4063  0.8189  1.9846
  120MOL    C1326431   1.863   0.362   2.651 -0.2675 -0.3702  0.0238
  120MOL    C1426432   1.929   0.402   2.787 -0.6829  0.4362  0.4076
  120MOL    C1526433   1.844   0.491   2.876  1.1320 -0.7711 -0.4202
  120MOL    O1626434   1.805   0.606   2.836  0.4284 -0.2032 -0.1430
  120MOL    C1726435   1.772   0.435   2.998 -0.0930 -0.5567  1.0473
  120MOL    H1826436   1.928   0.283   2.614  0.1247 -0.8349  1.6608
  120MOL    H1926437   1.864   0.446   2.581 -1.6678 -0.4121 -0.0745
  120MOL    H2026438   1.927   0.312   2.848 -1.5660  0.2256  0.0662
  120MOL    H2126439   1.835   0.444   3.086  0.4418  0.1207  0.5906
  120MOL    H2226440   1.677   0.488   3.011  0.3280  0.5730 -0.2951
  120MOL    H2326441   1.747   0.330   2.979 -1.4677 -0.0332 -0.1293
  120MOL    C2426442   2.074   0.446   2.770 -1.0558 -0.3035 -0.0163
  120MOL    C2526443   2.092   0.579   2.693  0.1076 -0.6614  0.1160
  120MOL    C2626444   2.106   0.700   2.777  0.0224  0.5877 -0.6064
  120MOL    O2726445   2.172   0.701   2.881 -0.5795 -0.0981  0.7903
  120MOL    C2826446   2.053   0.830   2.722 -0.1365  0.0940 -0.7477
  120MOL    H2926447   2.114   0.453   2.871  0.3176  1.0440 -0.6463
  120MOL    H3026448   2.133   0.365   2.725 -2.4858 -0.6665 -1.2964
  120MOL    H3126449   1.997   0.584   2.639 -0.1512 -0.1349  0.6194
  120MOL    H3226450   1.944   0.836   2.723 -0.3152 -2.4571  0.0867
  120MOL    H3326451   2.098   0.911   2.780 -1.3710  1.6211 -1.8982
  120MOL    H3426452   2.092   0.842   2.621  0.6156  0.9256 -0.3634
  120MOL    C3526453   2.209   0.566   2.593 -0.5348 -0.6443  0.4138
  120MOL    C3626454   2.167   0.489   2.465  0.5044  0.1451 -0.3600
  120MOL    C3726455   2.088   0.579   2.372  0.1140  0.2675 -0.0982
  120MOL    O3826456   1.972   0.545   2.351 -0.0901 -0.8988  0.4376
  120MOL    C3926457   2.163   0.670   2.274 -0.0995  0.1438 -0.5258
  120MOL    H4026458   2.295   0.521   2.641  0.9177  0.0649 -1.4651
  120MOL    H4126459   2.234   0.668   2.566 -0.5004 -0.4903  1.0159
  120MOL    H4226460   2.095   0.411   2.491 -0.6806  0.7027 -1.8975
  120MOL    H4326461   2.212   0.609   2.198  0.4514 -0.7305  0.5297
  120MOL    H4426462   2.237   0.722   2.333  2.2180 -0.7217 -2.5764
  120MOL    H4526463   2.080   0.728   2.231 -1.8651 -2.3767 -0.6262
  120MOL    C4626464   2.302   0.431   2.399  0.1359 -0.9783  0.6945
  120MOL    C4726465   2.290   0.297   2.322 -0.6978 -0.4088 -0.1683
  120MOL    C4826466   2.266   0.327   2.175  0.0475 -0.5941  0.1781
  120MOL    O4926467   2.362   0.347   2.102 -0.2708  0.2606  0.0824
  120MOL    C5026468   2.127   0.310   2.122 -0.1957  0.2635 -0.4908
  120MOL    H5126469   2.370   0.409   2.481  1.5431 -1.1066 -0.5071
  120MOL    H5226470   2.354   0.509   2.343 -2.3143  0.3571  0.1918
  120MOL    H5326471   2.204   0.248   2.367 -0.5450 -0.4240  0.1083
  120MOL    H5426472   2.128   0.312   2.013 -0.5478  0.3505 -0.4951
  120MOL    H5526473   2.085   0.212   2.146  0.7298 -0.3384 -1.2899
  120MOL    H5626474   2.061   0.389   2.158  0.7355 -0.2173  2.3556
  120MOL    C5726475   2.413   0.207   2.338 -1.1911 -0.1286 -0.4060
  120MOL    C5826476   2.416   0.063   2.275 -0.6349 -0.6376  0.4284
  120MOL    C5926477   2.557   0.001   2.289 -0.2505  0.1959  0.0324
  120MOL    O6026478   2.618   7.832   2.188  0.2608  0.2123  0.3234
  120MOL    C6126479   2.619   7.852   2.429  0.6758 -0.4770  0.2542
  120MOL    H6226480   2.438   0.193   2.443  0.3268  0.0719 -0.7275
  120MOL    H6326481   2.490   0.277   2.307 -1.3668  0.7171  1.0151
  120MOL    H6426482   2.404   0.079   2.168 -0.5487  3.0759  0.9075
  120MOL    H6526483   2.677   0.082   2.461 -1.4828  2.2602 -2.9936
  120MOL    H6626484   2.541   7.844   2.504 -0.1549 -0.1730 -0.5722
  120MOL    H6726485   2.677   7.760   2.438 -1.6957 -2.0802 -0.3679
  120MOL    C6826486   2.305   7.825   2.326  0.0783 -0.1984  0.9403
  120MOL    C6926487   2.275   7.698   2.249  0.0294 -0.0247 -0.1502
  120MOL    C7026488   2.221   7.734   2.111 -0.6763  0.2600  0.6336
  120MOL    O7126489   2.108   7.766   2.097  0.5027 -0.0958  0.1823
  120MOL    C7226490   2.319   7.736   1.988  0.0205 -0.3426 -0.1064
  120MOL    H7326491   2.328   7.797   2.429  0.4720 -1.3521  0.5563
  120MOL    H7426492   2.209   0.019   2.326 -0.9117 -1.9501 -0.2808
  120MOL    H7526493   2.363   7.639   2.223 -0.5056 -0.4621 -0.9607
  120MOL    H7626494   2.270   7.792   1.908 -0.6196 -2.2169 -1.0724
  120MOL    H7726495   2.411   7.781   2.026  1.7586 -2.2874 -1.8320
  120MOL    H7826496   2.341   7.633   1.959 -2.0086 -0.6751 -0.5503
  120MOL    C7926497   2.178   7.618   2.336  0.3331  1.0485 -0.3320
  120MOL    C8026498   2.154   7.470   2.301  0.8324 -0.0060 -0.4595
  120MOL    C8126499   2.290   7.393   2.294 -0.0269  0.1547 -0.0542
  120MOL    O8226500   2.331   7.334   2.195  0.3209 -0.0335  0.6985
  120MOL    C8326501   2.367   7.379   2.427  0.1079 -0.1552 -0.5644
  120MOL    H8426502   2.093   7.682   2.358 -0.3971  0.1884 -0.6320
  120MOL    H8526503   2.209   7.628   2.440  0.7877 -0.5065 -0.2967
  120MOL    H8626504   2.105   7.428   2.388  0.5350 -0.3926 -0.8114
  120MOL    H8726505   2.336   7.297   2.492  3.3629 -0.8160  0.2747
  120MOL    H8826506   2.369   7.474   2.481  0.3489 -0.3451 -0.2365
  120MOL    H8926507   2.472   7.362   2.402  1.5462  2.4520  3.2359
  120MOL    C9026508   2.070   7.436   2.181 -0.1112 -0.0404 -0.2599
  120MOL    C9126509   2.024   7.295   2.186 -1.0982 -0.3072 -0.5694
  120MOL    C9226510   1.873   7.292   2.225  0.2165  0.0417 -0.0493
  120MOL    O9326511   1.782   7.340   2.151 -0.1621  0.2717  0.5381
  120MOL    C9426512   1.832   7.222   2.353 -0.2998  0.2615  0.0284
  120MOL    H9526513   1.987   7.504   2.163 -0.9421 -0.7567  0.7851
  120MOL    H9626514   2.120   7.457   2.087  0.1690  1.3022  0.1809
  120MOL    H9726515   2.079   7.234   2.257 -0.9381  1.7869  1.1952
  120MOL    H9826516   1.841   7.115   2.333 -0.3995  0.6219 -2.0362
  120MOL    H9926517   1.885   7.265   2.437 -0.5909 -1.9106  1.3605
  120MOL   H10026518   1.725   7.239   2.368 -0.6466 -1.6291 -0.0694
  120MOL   C10126519   2.037   7.233   2.048 -0.1200 -0.0286 -0.9250
  120MOL   C10226520   2.021   7.083   2.041  0.2182 -0.1282 -0.9069
  120MOL   C10326521   2.129   7.008   2.123  0.6543 -0.2937 -0.9103
  120MOL   O10426522   2.098   6.955   2.233 -0.0393 -0.1620  0.2850
  120MOL   C10526523   2.269   6.990   2.067 -0.2387  0.0217  0.2879
  120MOL   H10626524   1.975   7.289   1.979 -1.8921 -0.4723  0.2814
  120MOL   H10726525   2.137   7.259   2.012  0.3177 -1.6131 -0.9107
  120MOL   H10826526   1.938   7.043   2.099 -1.2294  3.1635 -0.5775
  120MOL   H10926527   2.288   7.050   1.978 -1.4852  1.0279  0.6808
  120MOL   H11026528   2.343   7.037   2.132 -0.4230 -2.5931  2.5284
  120MOL   H11126529   2.290   6.883   2.060 -2.3912 -0.4898  1.1559
  120MOL   C11226530   2.003   7.024   1.899  0.9692 -0.6123 -1.0299
  120MOL   C11326531   1.866   7.050   1.834  0.4743 -0.4941 -0.3044
  120MOL   C11426532   1.758   6.962   1.901  0.3832 -0.1261  0.1184
  120MOL   O11526533   1.757   6.848   1.872 -0.7085 -0.8438  0.5455
  120MOL   C11626534   1.669   7.015   2.010  0.1734 -0.1015 -0.1879
  120MOL   H11726535   2.033   6.919   1.907 -0.3198 -0.9398 -0.2481
  120MOL   H11826536   2.083   7.063   1.836 -0.0212  0.4567 -1.6381
  120MOL   H11926537   1.838   7.154   1.851 -0.6112 -0.9120  0.5586
  120MOL   H12026538   1.663   6.927   2.074 -0.9066 -0.2706 -0.4905
  120MOL   H12126539   1.705   7.102   2.065 -0.2392 -0.1624  0.1803
  120MOL   H12226540   1.567   7.039   1.978 -0.0679 -1.0515 -0.1469
  120MOL   C12326541   1.878   7.038   1.683 -0.3830  0.1561 -0.5476
  120MOL   C12426542   1.741   7.054   1.606  0.2304  0.2036  0.5153
  120MOL   C12526543   1.757   6.995   1.467  0.3968  0.3217 -0.3618
  120MOL   O12626544   1.848   7.034   1.393 -0.7177 -0.2305  0.5011
  120MOL   C12726545   1.703   6.861   1.436 -0.1941 -0.8476 -0.1968
  120MOL   H12826546   1.909   6.939   1.652  2.0169 -0.0096  2.2199
  120MOL   H12926547   1.944   7.118   1.648  2.0010 -1.4190  0.2404
  120MOL   H13026548   1.669   6.993   1.660  0.8946 -1.7078 -0.7191
  120MOL   H13126549   1.598   6.873   1.409  0.6577  1.5624 -2.7009
  120MOL   H13226550   1.697   6.798   1.525 -0.4568 -1.1453 -0.4290
  120MOL   H13326551   1.760   6.817   1.354  1.1591 -0.7323  0.6476
  120MOL   C13426552   1.703   7.206   1.599 -0.3609 -0.9571  0.1411
  120MOL   C13526553   1.563   7.226   1.538 -0.1802  0.0022  0.5770
  120MOL   C13626554   1.460   7.139   1.617 -0.0046 -0.1469  0.3475
  120MOL   O13726555   1.460   7.135   1.740  0.3674  0.3285  0.1839
  120MOL   C13826556   1.362   7.055   1.538 -0.2011  0.4925 -0.2082
  120MOL   H13926557   1.764   7.271   1.537 -1.3390 -0.3516 -0.2082
  120MOL   H14026558   1.688   7.238   1.702 -2.4768  0.6050 -0.6281
  120MOL   H14126559   1.563   7.178   1.440 -2.8742 -0.1069  0.5884
  120MOL   H14226560   1.370   6.952   1.572  1.2142  0.7964  0.4197
  120MOL   H14326561   1.393   7.048   1.434  1.1194  0.1814  0.1983
  120MOL   H14426562   1.257   7.085   1.535  0.1517  1.6942 -0.8225
  120MOL   C14526563   1.499   7.364   1.517 -0.0035 -0.2282 -0.3567
  120MOL   C14626564   1.581   7.460   1.421 -0.2623 -0.0489 -0.5909
  120MOL   C14726565   1.554   7.432   1.269 -0.0670 -0.3725 -0.2510
  120MOL   O14826566   1.494   7.505   1.195  0.4073  0.4912  0.2483
  120MOL   C14926567   1.591   7.290   1.217  0.6039 -0.6706 -0.3735
  120MOL   H15026568   1.493   7.403   1.618  0.7523  1.6459 -1.0159
  120MOL   H15126569   1.392   7.360   1.492 -0.4508 -2.8945  1.8009
  120MOL   H15226570   1.687   7.438   1.432  0.1158  2.2993  0.8507
  120MOL   H15326571   1.667   7.243   1.279  0.0137  0.5635  1.3037
  120MOL   H15426572   1.510   7.218   1.216  0.0842 -0.1108  0.5216
  120MOL   H15526573   1.625   7.284   1.113 -0.4214  0.2972 -0.7783
  120MOL   C15626574   1.563   7.613   1.455  0.7366 -0.3184 -0.7217
  120MOL   C15726575   1.595   7.653   1.611 -0.5606  0.4303  0.0274
  120MOL   C15826576   1.557   7.805   1.635  0.0453 -0.4345 -0.2650
  120MOL   O15926577   1.643   0.027   1.671 -0.2084 -0.1829 -0.0749
  120MOL   C16026578   1.408   7.848   1.625 -0.8568  0.0627 -0.2909
  120MOL   H16126579   1.635   7.677   1.403  1.5974 -0.3888  0.3607
  120MOL   H16226580   1.461   7.643   1.433  0.5916  1.8384  2.6148
  120MOL   H16326581   1.530   7.600   1.681  0.4983 -0.4324  0.3725
  120MOL   H16426582   1.343   7.774   1.672 -0.0106  0.1958  1.1160
  120MOL   H16526583   1.386   0.016   1.522  1.2389  1.3909 -0.4459
  120MOL   H16626584   1.382   0.078   1.684 -1.5067  0.4241 -1.1137
  120MOL   C16726585   1.743   7.622   1.653  0.2624 -0.0401 -0.1192
  120MOL   C16826586   1.777   7.638   1.802  0.0947 -0.3050 -0.4223
  120MOL   C16926587   1.930   7.654   1.822  0.2108  0.4133 -0.3415
  120MOL   O17026588   1.998   7.555   1.824 -0.1830 -1.0390 -0.0522
  120MOL   C17126589   1.989   7.792   1.829 -0.7557 -0.2924 -0.1744
  120MOL   H17226590   1.788   7.529   1.620 -1.2626 -0.9047  0.2064
  120MOL   H17326591   1.795   7.697   1.592  0.9930  0.0412  0.6037
  120MOL   H17426592   1.748   7.733   1.845  1.2800 -0.3104  0.4128
  120MOL   H17526593   2.096   7.785   1.808 -0.3873  1.0340  1.2260
  120MOL   H17626594   1.956   7.836   1.922 -0.0490  0.8694 -0.4654
  120MOL   H17726595   1.940   0.000   1.757  0.1378 -0.1461 -0.6491
  120MOL   C17826596   1.722   7.530   1.906 -0.0875  0.4778  0.4011
  120MOL   C17926597   1.572   7.553   1.954 -0.1289  0.1567 -0.2064
  120MOL   C18026598   1.571   7.622   2.094 -0.2207 -0.2470 -0.3724
  120MOL   O18126599   1.476   7.598   2.175 -0.3969 -0.1833  0.6136
  120MOL   C18226600   1.681   7.720   2.131 -0.5135  0.0897  0.4297
  120MOL   H18326601   1.705   7.435   1.855 -1.7377 -0.0296  1.8335
  120MOL   H18426602   1.793   7.509   1.986 -1.2774 -2.3858  0.7597
  120MOL   H18526603   1.529   7.618   1.878  0.7874  1.8053  0.6625
  120MOL   H18626604   1.667   7.759   2.232 -0.8801  1.0857  0.0000
  120MOL   H18726605   1.668   7.798   2.057  0.1509 -1.2028 -1.0855
  120MOL   H18826606   1.780   7.674   2.125 -0.2233  0.7928 -0.1844
  120MOL   C18926607   1.490   7.428   1.938  0.5816 -0.1726 -0.3609
  120MOL   C19026608   1.340   7.444   1.956 -0.1147  0.2948  0.1850
  120MOL   C19126609   1.284   7.531   1.848 -0.1415  0.7769  0.1072
  120MOL   O19226610   1.285   7.503   1.732 -0.4102 -0.0139  0.1948
  120MOL   C19326611   1.229   7.658   1.902 -0.5269 -0.4776  0.3043
  120MOL   H19426612   1.506   7.391   1.838  1.8294 -1.1859  0.2046
  120MOL   H19526613   1.526   7.347   2.002  1.0555  0.0104 -0.3956
  120MOL   H19626614   1.311   7.497   2.047  1.0954 -0.5927  1.1031
  120MOL   H19726615   1.319   7.706   1.942 -1.6494 -0.2584  2.6438
  120MOL   H19826616   1.198   7.715   1.814  1.2049 -2.7242 -1.8484
  120MOL   H19926617   1.156   7.667   1.982 -0.3914 -0.6554  0.4476
  120MOL   C20026618   1.270   7.303   1.971  0.7874  0.4474  0.0301
  120MOL   C20126619   1.115   7.285   1.980  0.4171 -0.1286  0.1656
  120MOL   C20226620   1.060   7.368   2.101 -0.3482 -0.6239 -0.2818
  120MOL   O20326621   1.005   7.477   2.085 -0.3876  0.1757  0.9178
  120MOL   C20426622   1.082   7.312   2.242 -0.0808  0.2700  0.1701
  120MOL   H20526623   1.298   7.230   1.895  2.1960  0.0569  0.9019
  120MOL   H20626624   1.312   7.259   2.061  2.0230 -1.4925 -1.4614
  120MOL   H20726625   1.077   7.339   1.892  1.7314  0.4061 -0.0800
  120MOL   H20826626   1.184   7.277   2.251  0.1130  0.8260  0.1362
  120MOL   H20926627   1.063   7.391   2.315 -0.1402  0.4039  0.0080
  120MOL   H21026628   1.009   7.235   2.269  0.6413 -1.3582 -2.3403
  120MOL   C21126629   1.065   7.143   1.991 -0.1550  0.2174  0.9741
  120MOL   C21226630   1.119   7.043   1.885 -0.4410  0.0124  0.7480
  120MOL   C21326631   1.070   7.061   1.741  0.1692 -0.5646 -0.5569
  120MOL   O21426632   1.052   7.174   1.697  0.8665 -0.1222 -0.4888
  120MOL   C21526633   1.054   6.931   1.666 -0.2406 -0.3536 -0.4342
  120MOL   H21626634   1.090   7.100   2.088  0.0018  2.3879  1.9305
  120MOL   H21726635   0.957   7.132   1.993 -0.1382  0.2345  3.5898
  120MOL   H21826636   1.102   6.944   1.927  1.0270  0.0241  1.3974
  120MOL   H21926637   1.071   6.944   1.559 -1.6117  0.3941 -0.5739
  120MOL   H22026638   1.124   6.849   1.684 -0.5711 -0.7727 -1.0564
  120MOL   H22126639   0.954   6.888   1.674  0.2820 -1.5820 -0.2742
  120MOL   H22226640   1.227   7.042   1.872 -0.3501 -2.5666  1.4290
  121MOL     C126641   1.947   2.216   5.286 -0.6285  0.9117  1.1302
  121MOL     C226642   2.080   2.235   5.368  0.2034 -0.0362 -0.2777
  121MOL     C326643   2.075   2.155   5.499  0.0971  0.6280 -0.7096
  121MOL     O426644   2.020   2.044   5.505 -0.2096  0.2688 -0.2749
  121MOL     C526645   2.128   2.220   5.620 -0.8737  0.0149 -0.3064
  121MOL     H626646   1.957   2.244   5.181  0.4983 -1.1593  0.6607
  121MOL     H726647   1.866   2.273   5.332  0.3238  1.2552  2.4213
  121MOL     H826648   2.072   2.340   5.394 -1.3359  0.2391 -1.8165
  121MOL     H926649   2.147   2.324   5.593 -0.1026 -0.2232 -0.7181
  121MOL    H1026650   2.049   2.207   5.693  0.9918 -1.8013  1.4529
  121MOL    H1126651   2.223   2.180   5.655 -1.0574  1.2932  1.6964
  121MOL    H1226652   1.924   2.110   5.275  4.3111 -0.1883  0.0922
  121MOL    C1326653   2.219   2.213   5.301  0.0933  1.4023  0.3340
  121MOL    C1426654   2.330   2.312   5.336 -0.5290  0.8380 -0.0495
  121MOL    C1526655   2.320   2.441   5.250  0.3861 -0.1506 -0.3617
  121MOL    O1626656   2.372   2.434   5.137 -0.0528 -0.6864 -0.1016
  121MOL    C1726657   2.227   2.554   5.296 -0.1370  0.4692  0.0514
  121MOL    H1826658   2.250   2.109   5.316  2.9610  1.9484 -1.5008
  121MOL    H1926659   2.205   2.208   5.193 -0.5280 -0.7112  0.4797
  121MOL    H2026660   2.337   2.342   5.441  0.4104 -1.3849  0.5476
  121MOL    H2126661   2.291   2.639   5.323  0.5558  0.3480 -1.1502
  121MOL    H2226662   2.155   2.562   5.215  0.4942 -1.6735 -0.7559
  121MOL    H2326663   2.181   2.534   5.392  0.7600  1.9173  0.8003
  121MOL    C2426664   2.478   2.255   5.322 -0.2095 -0.1933  0.6171
  121MOL    C2526665   2.598   2.334   5.377 -0.2071 -0.5743 -0.8689
  121MOL    C2626666   2.575   2.357   5.529 -0.0617 -0.2803  0.2979
  121MOL    O2726667   2.563   2.268   5.606 -0.6082  0.4535  0.0529
  121MOL    C2826668   2.575   2.499   5.589 -0.1342  0.2981 -0.4051
  121MOL    H2926669   2.484   2.154   5.363 -0.7849 -0.4513  0.0709
  121MOL    H3026670   2.504   2.234   5.218  1.3399  0.6975  0.8131
  121MOL    H3126671   2.593   2.433   5.332 -1.7352  0.0617  0.6572
  121MOL    H3226672   2.495   2.518   5.661 -0.1794  2.7243 -1.0463
  121MOL    H3326673   2.669   2.509   5.643  2.0024 -0.8741 -3.7114
  121MOL    H3426674   2.581   2.575   5.511 -1.3770 -0.4310 -1.2302
  121MOL    C3526675   2.732   2.265   5.355 -0.6208  0.4319 -0.1528
  121MOL    C3626676   2.863   2.332   5.391  1.2145  0.2393  0.1977
  121MOL    C3726677   2.987   2.239   5.382 -0.7100  0.6305 -0.5966
  121MOL    O3826678   3.061   2.237   5.282 -0.4501 -0.5030 -0.1922
  121MOL    C3926679   3.009   2.148   5.503  0.3431 -0.3377  0.3335
  121MOL    H4026680   2.743   2.245   5.248  1.3809 -1.4214  0.3781
  121MOL    H4126681   2.733   2.161   5.389  0.9995 -0.2560 -2.2208
  121MOL    H4226682   2.862   2.367   5.495  0.3497  0.1187  0.2361
  121MOL    H4326683   3.095   2.190   5.556 -0.2712  1.1903  0.1379
  121MOL    H4426684   3.028   2.044   5.478  0.4779  0.0406 -1.1485
  121MOL    H4526685   2.928   2.155   5.576  0.8662  1.3716  0.7762
  121MOL    C4626686   2.884   2.465   5.312  0.4535 -0.3913  0.5187
  121MOL    C4726687   2.991   2.555   5.377  0.2055 -0.4568 -0.1946
  121MOL    C4826688   3.065   2.638   5.268  0.3698  0.3026  0.0525
  121MOL    O4926689   3.026   2.747   5.229 -0.3116  0.3309  0.4290
  121MOL    C5026690   3.187   2.563   5.200  0.4926 -0.4161  0.2388
  121MOL    H5126691   2.784   2.509   5.315 -0.1938 -1.8289  0.5175
  121MOL    H5226692   2.913   2.449   5.208  0.7182 -3.5161  1.0112
  121MOL    H5326693   3.073   2.493   5.413 -1.2509 -2.9814 -1.1009
  121MOL    H5426694   3.268   2.631   5.175 -0.5526  0.6935 -0.1628
  121MOL    H5526695   3.227   2.488   5.269  1.2050  0.2873  0.5994
  121MOL    H5626696   3.159   2.502   5.114  1.7766 -1.8562  0.7917
  121MOL    C5726697   2.941   2.644   5.490  0.7464 -0.0854 -0.5227
  121MOL    C5826698   3.040   2.676   5.596 -0.9181 -0.0682 -0.0481
  121MOL    C5926699   3.023   2.822   5.645 -0.0961 -0.1684  0.5599
  121MOL    O6026700   2.923   2.849   5.711 -0.0918 -0.0637  0.3787
  121MOL    C6126701   3.118   2.930   5.592 -0.3737  0.7914  0.2638
  121MOL    H6226702   2.851   2.617   5.544  0.4314  1.9422  0.0030
  121MOL    H6326703   2.907   2.733   5.438  1.3627  1.4857  1.7275
  121MOL    H6426704   3.140   2.681   5.554 -1.3738  1.8550 -0.9982
  121MOL    H6526705   3.087   2.967   5.494 -0.5293  0.8329  0.3302
  121MOL    H6626706   3.095   3.011   5.660 -0.6910 -2.3273  4.0478
  121MOL    H6726707   3.225   2.907   5.590 -0.5092  0.1533  0.0230
  121MOL    C6826708   3.042   2.567   5.701 -0.3760 -0.3134  0.2999
  121MOL    C6926709   3.176   2.539   5.775 -0.5563 -0.6664 -0.0800
  121MOL    C7026710   3.249   2.656   5.834  0.5562 -0.8255  0.0448
  121MOL    O7126711   3.331   2.723   5.773  0.6558 -0.1919 -0.2858
  121MOL    C7226712   3.191   2.710   5.967  0.6708 -0.1168 -0.5645
  121MOL    H7326713   2.971   2.592   5.780  0.5908 -0.2120  1.1585
  121MOL    H7426714   3.010   2.473   5.657 -0.2222 -0.4472  0.4743
  121MOL    H7526715   3.150   2.488   5.868  0.6509 -0.9759  0.0928
  121MOL    H7626716   3.258   2.778   6.020  0.2196  1.8986 -2.5003
  121MOL    H7726717   3.105   2.769   5.934  0.4008  1.4913  2.8177
  121MOL    H7826718   3.165   2.640   6.046 -1.4542  1.7258  0.4516
  121MOL    C7926719   3.262   2.448   5.684  0.1711  0.0646  0.0549
  121MOL    C8026720   3.365   2.355   5.758 -0.1313  0.5495 -0.4214
  121MOL    C8126721   3.297   2.265   5.862  0.2389 -0.4137  0.0297
  121MOL    O8226722   3.316   2.272   5.985  0.6942 -0.3614  0.7168
  121MOL    C8326723   3.208   2.155   5.818  0.6645 -0.1420  0.7203
  121MOL    H8426724   3.327   2.500   5.615  1.0877  1.1591  1.7228
  121MOL    H8526725   3.194   2.386   5.624 -1.3535  1.2051  0.5801
  121MOL    H8626726   3.398   2.296   5.672 -1.9657  1.6214 -1.8958
  121MOL    H8726727   3.194   2.084   5.899 -0.4135  0.5789  1.1791
  121MOL    H8826728   3.238   2.100   5.729  1.1271  1.1305  0.0618
  121MOL    H8926729   3.110   2.200   5.801  0.7802 -0.7131 -1.6193
  121MOL    C9026730   3.492   2.425   5.808 -0.0589  0.7146  0.0044
  121MOL    C9126731   3.607   2.324   5.823 -0.8322  0.1226  0.2181
  121MOL    C9226732   3.735   2.373   5.750 -0.3181  0.1502  0.1773
  121MOL    O9326733   3.784   2.303   5.665  0.6990  0.3623  0.3056
  121MOL    C9426734   3.797   2.500   5.797 -0.4609  0.5924 -0.5202
  121MOL    H9526735   3.515   2.500   5.732 -0.2474  1.9313  1.1205
  121MOL    H9626736   3.483   2.494   5.892  2.4387  0.6228  0.3844
  121MOL    H9726737   3.587   2.234   5.765  0.3911  1.8093 -2.9360
  121MOL    H9826738   3.853   2.536   5.711  0.3459 -1.4383 -0.8848
  121MOL    H9926739   3.725   2.573   5.834 -1.1668 -0.5987  0.5562
  121MOL   H10026740   3.863   2.474   5.880 -0.4306 -0.5187 -0.8774
  121MOL   C10126741   3.656   2.291   5.975 -0.3774 -0.2790 -0.0120
  121MOL   C10226742   3.736   2.160   5.993 -0.4731  0.0247  0.3259
  121MOL   C10326743   3.657   2.030   5.971  0.3911  0.4907 -0.1742
  121MOL   O10426744   3.696   1.949   5.882 -0.2716 -0.3626 -0.3228
  121MOL   C10526745   3.545   2.000   6.052  0.7556  0.1131 -0.7696
  121MOL   H10626746   3.701   2.374   6.030 -1.9211 -0.3207  1.3459
  121MOL   H10726747   3.569   2.269   6.037  0.2797 -1.1015  0.6250
  121MOL   H10826748   3.812   2.158   5.915 -1.0989 -1.0251 -0.2819
  121MOL   H10926749   3.511   1.899   6.027 -1.2131 -0.2736  3.1622
  121MOL   H11026750   3.586   2.003   6.153  1.0111  0.7041 -0.8916
  121MOL   H11126751   3.464   2.072   6.047 -0.0261 -0.5155  2.0760
  121MOL   C11226752   3.810   2.159   6.124 -0.3066 -0.4061 -0.3733
  121MOL   C11326753   3.901   2.030   6.147  0.4892  0.5493  0.1569
  121MOL   C11426754   3.959   2.043   6.288 -0.0516 -0.2899  0.0088
  121MOL   O11526755   4.030   2.133   6.329  0.3822  0.1002  0.1540
  121MOL   C11626756   3.903   1.931   6.383 -0.6363  0.8579  0.3158
  121MOL   H11726757   3.742   2.173   6.208 -0.4998 -0.6791 -0.4833
  121MOL   H11826758   3.868   2.251   6.133 -0.5826 -0.3637  1.0034
  121MOL   H11926759   3.835   1.943   6.141  0.4638  0.6835 -2.0514
  121MOL   H12026760   3.920   1.945   6.490  0.6107  0.4461  0.1896
  121MOL   H12126761   3.795   1.922   6.377 -0.7207  1.1037  1.4076
  121MOL   H12226762   3.953   1.836   6.361  0.5326  1.9848 -1.9863
  121MOL   C12326763   4.009   2.005   6.043  0.0962 -0.2085 -0.4938
  121MOL   C12426764   4.095   1.873   6.062 -0.6028  0.2459  0.5649
  121MOL   C12526765   4.243   1.911   6.089 -0.1203  0.0108  0.0177
  121MOL   O12626766   4.318   1.954   6.000 -0.3955  0.0447 -0.5829
  121MOL   C12726767   4.291   1.917   6.231 -0.3221 -0.4407  0.1619
  121MOL   H12826768   4.065   2.098   6.040  3.3489 -2.0586 -0.0378
  121MOL   H12926769   3.966   2.006   5.943 -0.2356  1.1474 -0.3462
  121MOL   H13026770   4.057   1.829   6.154  1.9202 -0.1893  1.4241
  121MOL   H13126771   4.376   1.852   6.252 -0.9052 -1.0477  0.6818
  121MOL   H13226772   4.206   1.888   6.292  0.0924 -2.3961 -0.1406
  121MOL   H13326773   4.313   2.015   6.272 -0.8388  1.0298 -2.9440
  121MOL   C13426774   4.076   1.779   5.938  0.3010 -0.6500  0.3770
  121MOL   C13526775   4.144   1.638   5.932 -0.0075 -0.8726 -0.1472
  121MOL   C13626776   4.109   1.562   6.062  0.2728 -0.6398  0.2609
  121MOL   O13726777   3.996   1.526   6.093  0.4643 -0.2529  0.4556
  121MOL   C13826778   4.227   1.536   6.153 -0.5842 -0.4587  0.0952
  121MOL   H13926779   4.096   1.846   5.855 -0.2749  0.2675  0.9736
  121MOL   H14026780   3.970   1.759   5.928 -0.2420  2.0273  0.4492
  121MOL   H14126781   4.253   1.643   5.926 -0.0068  1.2075  1.0953
  121MOL   H14226782   4.194   1.473   6.235  0.7524 -0.4195  0.6709
  121MOL   H14326783   4.259   1.628   6.200 -2.9199  0.1052  0.6434
  121MOL   H14426784   4.312   1.487   6.105  0.1880  0.9732 -0.0147
  121MOL   C14526785   4.095   1.565   5.806 -0.1044  0.1596  0.5859
  121MOL   C14626786   4.182   1.454   5.746  0.2526  0.1000  0.0709
  121MOL   C14726787   4.334   1.492   5.735  0.3499  0.2489 -0.0812
  121MOL   O14826788   4.426   1.428   5.790  0.4060  0.2077  0.4393
  121MOL   C14926789   4.374   1.608   5.650 -0.4566 -0.0495 -0.5039
  121MOL   H15026790   4.088   1.640   5.727  0.4423  0.0630  0.4434
  121MOL   H15126791   3.991   1.535   5.814 -0.1635 -0.3021 -1.5691
  121MOL   H15226792   4.155   1.451   5.640  2.2577  0.8813 -0.4752
  121MOL   H15326793   4.477   1.632   5.676 -0.4942 -1.9504  1.5397
  121MOL   H15426794   4.367   1.586   5.543  2.1819 -1.0749 -0.5053
  121MOL   H15526795   4.314   1.698   5.666  2.7149  2.2670 -1.2202
  121MOL   C15626796   4.155   1.320   5.817 -0.6866  0.3480  0.1749
  121MOL   C15726797   4.212   1.193   5.743  0.3857  0.6573 -0.5658
  121MOL   C15826798   4.141   1.165   5.606  0.1673 -0.1743  0.2019
  121MOL   O15926799   4.049   1.238   5.566 -0.3361  0.0674  0.4462
  121MOL   C16026800   4.194   1.052   5.524  0.4247 -0.3310 -0.4814
  121MOL   H16126801   4.195   1.332   5.917 -0.8729 -0.8049  0.3932
  121MOL   H16226802   4.047   1.318   5.831 -0.7094  0.0738 -0.0271
  121MOL   H16326803   4.319   1.207   5.727  0.7908 -1.2384  0.3468
  121MOL   H16426804   4.302   1.039   5.532  0.5160  1.1918  1.0498
  121MOL   H16526805   4.156   1.058   5.422 -0.0168  0.2054 -0.2847
  121MOL   H16626806   4.143   0.961   5.557  1.6998 -1.1326 -0.6624
  121MOL   C16726807   4.194   1.066   5.833  0.7127 -0.1396  0.1466
  121MOL   C16826808   4.291   1.071   5.955  0.4771  0.1760  0.4553
  121MOL   C16926809   4.447   1.076   5.923  0.5451  0.1582  0.3360
  121MOL   O17026810   4.500   1.015   5.833 -0.5417  0.3537 -0.0487
  121MOL   C17126811   4.526   1.183   6.005 -0.0794  0.0246  0.3062
  121MOL   H17226812   4.094   1.053   5.874  0.8273 -0.7353  0.2326
  121MOL   H17326813   4.226   0.974   5.785 -4.5727 -1.7555 -0.6146
  121MOL   H17426814   4.270   1.165   6.006  1.1344  0.0330  0.9976
  121MOL   H17526815   4.555   1.135   6.099  2.3310  0.5799 -0.1133
  121MOL   H17626816   4.474   1.274   6.034  1.2944  0.7651  0.4777
  121MOL   H17726817   4.622   1.222   5.972  0.4725 -0.0446  1.7732
  121MOL   C17826818   4.255   0.952   6.054 -0.9313 -0.6550  0.1930
  121MOL   C17926819   4.119   0.957   6.132  0.2527  0.5536  0.2351
  121MOL   C18026820   4.096   1.087   6.217 -0.9047  0.3362 -1.0691
  121MOL   O18126821   4.134   1.099   6.334 -0.4496 -0.5873 -0.1820
  121MOL   C18226822   4.008   1.194   6.153  0.1800  0.0283 -0.0441
  121MOL   H18326823   4.263   0.862   5.994  0.1033  1.0888 -2.3816
  121MOL   H18426824   4.333   0.950   6.130 -0.4291  0.3247 -0.2747
  121MOL   H18526825   4.034   0.942   6.065 -0.8449 -1.4711  2.0217
  121MOL   H18626826   4.043   1.296   6.172 -0.1999  0.0574  0.5134
  121MOL   H18726827   3.909   1.192   6.197 -0.2112  1.0138 -0.8501
  121MOL   H18826828   4.005   1.176   6.046 -0.6395  0.4217 -0.0898
  121MOL   C18926829   4.129   0.833   6.220 -0.5937 -0.4398 -0.2902
  121MOL   C19026830   3.994   0.788   6.267 -0.2637 -0.3633  0.2648
  121MOL   C19126831   3.892   0.754   6.154  0.3662 -0.0083  0.1932
  121MOL   O19226832   3.911   0.653   6.085  0.0945 -0.6383 -0.2621
  121MOL   C19326833   3.792   0.858   6.124  0.0407 -0.2200 -0.3973
  121MOL   H19426834   4.183   0.754   6.167 -0.5505 -0.2425 -0.5446
  121MOL   H19526835   4.197   0.852   6.302  0.1546  0.7654 -1.1716
  121MOL   H19626836   3.942   0.872   6.312 -0.2320  0.2387 -0.8029
  121MOL   H19726837   3.706   0.808   6.080 -1.3881  1.0279  0.8765
  121MOL   H19826838   3.753   0.899   6.218 -2.8082 -0.1533 -1.5533
  121MOL   H19926839   3.825   0.937   6.057 -0.8213  2.6264  2.3729
  121MOL   C20026840   4.024   0.661   6.358  0.9373 -0.0660 -0.7658
  121MOL   C20126841   3.890   0.597   6.412 -0.2657  0.0378 -0.3818
  121MOL   C20226842   3.833   0.683   6.534 -0.4526 -0.1260 -0.1023
  121MOL   O20326843   3.905   0.729   6.620  0.2834  0.0547 -0.1133
  121MOL   C20426844   3.688   0.719   6.536 -0.0696  0.1824 -0.0146
  121MOL   H20526845   4.087   0.593   6.301 -0.1106 -0.9319 -0.9024
  121MOL   H20626846   4.088   0.689   6.442  1.2019  2.0681 -1.6286
  121MOL   H20726847   3.818   0.597   6.330  1.1033 -2.4496 -1.6185
  121MOL   H20826848   3.665   0.744   6.640  1.4715 -1.3769  0.7281
  121MOL   H20926849   3.648   0.801   6.477  2.8413  1.4805 -0.2713
  121MOL   H21026850   3.639   0.625   6.510 -0.4962  0.5852 -0.6731
  121MOL   C21126851   3.917   0.448   6.447 -0.1004 -0.2794  0.2661
  121MOL   C21226852   3.793   0.364   6.491  1.0818 -0.3367 -0.8265
  121MOL   C21326853   3.671   0.356   6.399 -0.0857  0.4936 -0.4007
  121MOL   O21426854   3.667   0.406   6.286  0.4921 -0.4844 -0.6050
  121MOL   C21526855   3.554   0.275   6.449 -0.4919 -0.0705  0.3192
  121MOL   H21626856   3.968   0.404   6.361 -1.0165 -1.5745  0.3731
  121MOL   H21726857   3.991   0.447   6.527  0.3898 -3.8779 -0.1377
  121MOL   H21826858   3.763   0.408   6.586  1.2740  0.5839 -1.1831
  121MOL   H21926859   3.539   0.200   6.371  1.2095  0.1342 -0.2389
  121MOL   H22026860   3.562   0.247   6.554  1.3095 -0.3043  0.1291
  121MOL   H22126861   3.455   0.321   6.453 -0.9618 -1.1687  1.5299
  121MOL   H22226862   3.830   0.266   6.521 -1.2378 -1.0573 -0.2293
  122MOL     C126863   4.281   5.262   2.745 -0.5595  0.2475 -0.0530
  122MOL     C226864   4.242   5.404   2.787 -0.2297 -0.0616 -0.5124
  122MOL     C326865   4.293   5.510   2.685  0.5027  0.4404  0.4127
  122MOL     O426866   4.227   5.554   2.591  0.0125 -0.1949 -0.0049
  122MOL     C526867   4.439   5.564   2.695  0.1287  0.1309 -0.6226
  122MOL     H626868   4.367   5.269   2.678 -2.8663  1.9631 -2.9509
  122MOL     H726869   4.204   5.212   2.686  0.3598  0.8701 -1.8322
  122MOL     H826870   4.299   5.428   2.877  1.2923 -0.4446 -1.3463
  122MOL     H926871   4.433   5.669   2.724 -1.6207 -0.1073 -0.0538
  122MOL    H1026872   4.494   5.504   2.767  0.4317 -1.7853 -2.4052
  122MOL    H1126873   4.496   5.554   2.603  1.5959 -0.4011  0.3325
  122MOL    H1226874   4.321   5.202   2.827  1.9602 -0.1272 -1.4676
  122MOL    C1326875   4.095   5.402   2.826  0.1787 -0.2165 -0.0440
  122MOL    C1426876   4.065   5.453   2.970  0.6450  0.0066  0.0645
  122MOL    C1526877   4.095   5.607   2.980 -0.3776  0.3340  0.5295
  122MOL    O1626878   4.210   5.639   3.011 -0.3726  0.0262 -0.5751
  122MOL    C1726879   3.984   5.703   2.935 -0.7426  0.2017  0.2051
  122MOL    H1826880   4.032   5.451   2.752  0.7476 -0.2708 -0.5708
  122MOL    H1926881   4.070   5.296   2.833 -2.2082  0.2570 -0.9442
  122MOL    H2026882   3.958   5.450   2.995  0.7178  0.2942  0.4219
  122MOL    H2126883   3.992   5.784   3.008  1.5371 -0.2989  0.5481
  122MOL    H2226884   4.002   5.742   2.835 -0.1262  1.0342  0.6332
  122MOL    H2326885   3.885   5.659   2.937 -0.7711 -0.0375 -3.3816
  122MOL    C2426886   4.130   5.358   3.073  0.5375 -0.3695  0.5656
  122MOL    C2526887   4.076   5.377   3.220 -0.3621  0.4095 -0.2753
  122MOL    C2626888   3.921   5.371   3.237  0.3384 -0.4718 -0.0595
  122MOL    O2726889   3.863   5.264   3.234  0.1387 -0.2374  0.3001
  122MOL    C2826890   3.843   5.496   3.253 -0.7298 -0.5700 -0.2645
  122MOL    H2926891   4.121   5.252   3.050 -0.5745 -0.2532  0.4524
  122MOL    H3026892   4.237   5.376   3.070  0.2238  1.4239 -1.9306
  122MOL    H3126893   4.107   5.480   3.237  1.1837  0.3112 -2.2239
  122MOL    H3226894   3.820   5.522   3.149 -0.2101 -1.6474 -0.6572
  122MOL    H3326895   3.756   5.476   3.316  0.1657 -2.2155  0.4686
  122MOL    H3426896   3.909   5.567   3.303 -0.5145 -0.6663 -0.4105
  122MOL    C3526897   4.148   5.276   3.316 -0.3462 -0.3418  0.3061
  122MOL    C3626898   4.158   5.300   3.474  0.1311  0.4303 -0.1074
  122MOL    C3726899   4.193   5.445   3.510  0.2435 -0.7667  0.3788
  122MOL    O3826900   4.138   5.548   3.463 -0.3934 -0.5696  0.1836
  122MOL    C3926901   4.317   5.466   3.595 -0.0494 -0.3588  0.6635
  122MOL    H4026902   4.252   5.285   3.285 -0.9583 -1.0180 -2.0253
  122MOL    H4126903   4.130   5.171   3.292  1.1155 -0.5349  0.0148
  122MOL    H4226904   4.225   5.222   3.511  1.6627  0.8993 -1.7752
  122MOL    H4326905   4.311   5.409   3.687 -0.3077 -1.1066  0.1880
  122MOL    H4426906   4.341   5.571   3.612  1.9081 -0.4408 -1.2941
  122MOL    H4526907   4.407   5.442   3.538 -0.4436  0.6447 -0.3937
  122MOL    C4626908   4.024   5.265   3.544  0.8259  0.4349  0.4251
  122MOL    C4726909   4.034   5.229   3.690  0.0951 -0.3341 -0.0868
  122MOL    C4826910   3.899   5.255   3.764 -0.3502 -0.0659  0.4180
  122MOL    O4926911   3.899   5.297   3.882  0.2806  0.2163 -0.6171
  122MOL    C5026912   3.769   5.215   3.689 -0.4522  0.3364  0.2260
  122MOL    H5126913   3.970   5.184   3.495  2.0959  0.0086 -0.2981
  122MOL    H5226914   3.965   5.356   3.531  3.4759  1.8904 -1.8712
  122MOL    H5326915   4.109   5.300   3.725  0.1495 -0.1519 -0.5736
  122MOL    H5426916   3.765   5.286   3.606  2.0884  1.2251  0.8354
  122MOL    H5526917   3.776   5.115   3.647  3.0946  0.8292 -0.4480
  122MOL    H5626918   3.686   5.228   3.759 -0.8088 -2.2210  0.3245
  122MOL    C5726919   4.091   5.090   3.706  0.5753 -0.5150  0.3235
  122MOL    C5826920   4.116   5.028   3.851  0.0995 -0.3245 -0.3070
  122MOL    C5926921   4.100   4.875   3.846 -1.0188  0.9934 -0.0606
  122MOL    O6026922   4.194   4.812   3.804 -1.2312  0.3606 -0.0101
  122MOL    C6126923   3.970   4.807   3.871  0.7699  0.0539 -0.4206
  122MOL    H6226924   4.189   5.093   3.659  0.2756  0.1894 -0.2610
  122MOL    H6326925   4.029   5.023   3.646 -0.3032 -0.6560  1.3564
  122MOL    H6426926   4.031   5.058   3.911  0.5867 -0.8287  0.6399
  122MOL    H6526927   3.937   4.771   3.774 -2.5541  4.1070 -0.9585
  122MOL    H6626928   3.987   4.726   3.942 -1.4715 -0.9136 -0.9520
  122MOL    H6726929   3.902   4.884   3.907 -0.7450 -0.9213 -1.1350
  122MOL    C6826930   4.253   5.075   3.906 -0.2677  0.1243  0.0858
  122MOL    C6926931   4.294   5.013   4.044 -0.0195  0.6229  1.1249
  122MOL    C7026932   4.201   5.069   4.155 -0.1046  0.2525  0.8199
  122MOL    O7126933   4.223   5.182   4.199 -0.7241  0.5729 -0.4387
  122MOL    C7226934   4.087   4.996   4.208 -0.9660  0.4891  0.1805
  122MOL    H7326935   4.328   5.064   3.828 -0.4351  1.2584 -0.2382
  122MOL    H7426936   4.248   5.182   3.922 -1.1130 -0.0548  1.0685
  122MOL    H7526937   4.277   4.907   4.029  0.2296  1.0925 -3.4469
  122MOL    H7626938   4.111   4.898   4.248 -1.3850  0.4680  0.3843
  122MOL    H7726939   4.038   5.048   4.291 -0.0133 -0.6578  1.4741
  122MOL    H7826940   4.014   4.966   4.132  0.1751 -0.3987 -0.5787
  122MOL    C7926941   4.448   5.050   4.072 -0.1775 -0.0075  0.6433
  122MOL    C8026942   4.508   4.976   4.194 -0.8679 -0.5678 -0.9555
  122MOL    C8126943   4.646   5.038   4.246 -0.0538 -0.7665  0.4091
  122MOL    O8226944   4.753   5.012   4.192 -0.4823  0.2325  0.2787
  122MOL    C8326945   4.632   5.116   4.377 -0.1141  0.2799  0.1165
  122MOL    H8426946   4.454   5.156   4.097 -0.1490  0.1539 -0.0294
  122MOL    H8526947   4.517   5.036   3.988 -0.9633 -1.4049  0.2225
  122MOL    H8626948   4.449   4.997   4.284 -0.3560 -0.1241 -0.7139
  122MOL    H8726949   4.730   5.101   4.424 -1.3819  2.0831  3.5134
  122MOL    H8826950   4.563   5.089   4.457  0.8275 -0.7508  0.6064
  122MOL    H8926951   4.619   5.222   4.358 -0.6176  0.5151  1.7212
  122MOL    C9026952   4.528   4.828   4.162  0.0389  0.3105  0.1933
  122MOL    C9126953   4.536   4.736   4.290 -0.4032  0.2348  0.2233
  122MOL    C9226954   4.409   4.754   4.371  0.0588 -0.5223  0.4097
  122MOL    O9326955   4.299   4.739   4.327  0.2964 -0.4364  0.2171
  122MOL    C9426956   4.435   4.810   4.514  0.5530  0.3313 -1.0003
  122MOL    H9526957   4.439   4.804   4.106 -0.1035 -1.2005  1.0487
  122MOL    H9626958   4.615   4.817   4.097  0.4370  1.6830  0.4752
  122MOL    H9726959   4.629   4.766   4.340 -0.3184 -1.3008  1.0117
  122MOL    H9826960   4.541   4.813   4.540  0.4622  0.8207 -0.6766
  122MOL    H9926961   4.397   4.908   4.542  0.0543 -0.3596  0.8273
  122MOL   H10026962   4.394   4.741   4.588 -1.0550  2.2836 -0.0335
  122MOL   C10126963   4.559   4.588   4.254 -0.4404 -0.6221 -0.2613
  122MOL   C10226964   4.707   4.544   4.225  0.1319 -0.7010 -0.2422
  122MOL   C10326965   4.716   4.406   4.150 -0.1702  0.0142 -0.3201
  122MOL   O10426966   4.664   4.307   4.202 -0.3785  0.2516  0.2090
  122MOL   C10526967   4.807   4.393   4.028 -0.6832 -0.4639 -0.9258
  122MOL   H10626968   4.515   4.516   4.322  2.1075 -0.9832  1.0714
  122MOL   H10726969   4.514   4.584   4.155 -0.8747  0.4434 -0.1181
  122MOL   H10826970   4.757   4.618   4.161 -0.3714  1.2379  1.5456
  122MOL   H10926971   4.819   4.299   3.975  0.9742  0.4763 -2.2653
  122MOL   H11026972   4.758   4.466   3.963 -2.2519  0.1145  0.8784
  122MOL   H11126973   4.897   4.432   4.075 -1.6208  1.5865 -0.7653
  122MOL   C11226974   4.798   4.539   4.351 -0.5855 -0.9703  0.0279
  122MOL   C11326975   4.949   4.580   4.328 -0.2030 -0.3285 -0.4317
  122MOL   C11426976   5.039   4.513   4.426  0.0150  0.2919  0.2137
  122MOL   O11526977   5.154   4.481   4.404  0.6660 -0.7918  0.3508
  122MOL   C11626978   4.995   4.479   4.570 -0.5381  0.0865 -0.4254
  122MOL   H11726979   4.793   4.435   4.382 -1.2170 -1.2981 -1.1443
  122MOL   H11826980   4.758   4.606   4.428  2.5446  1.9837 -0.7957
  122MOL   H11926981   4.991   4.554   4.230 -1.9115 -0.6367 -1.0945
  122MOL   H12026982   5.052   4.535   4.643  0.0169  0.8912 -1.4741
  122MOL   H12126983   4.888   4.495   4.586 -0.5882 -0.9079  0.3036
  122MOL   H12226984   5.020   4.375   4.593 -0.1263  0.5692  1.3833
  122MOL   C12326985   4.952   4.733   4.328  0.2771  0.0526  0.3190
  122MOL   C12426986   5.072   4.797   4.257 -0.3671  0.1449 -0.6018
  122MOL   C12526987   5.123   4.926   4.325  0.8478 -0.1640  0.2447
  122MOL   O12626988   5.240   4.946   4.339  0.5013  0.0124 -0.0293
  122MOL   C12726989   5.020   5.026   4.370  0.0051  0.1255 -0.6648
  122MOL   H12826990   4.955   4.757   4.435  0.0726 -1.6966  0.7319
  122MOL   H12926991   4.862   4.775   4.283  0.0770  0.6804  1.2929
  122MOL   H13026992   5.155   4.725   4.257  0.5912  1.2338 -0.2168
  122MOL   H13126993   4.937   4.978   4.421  0.6908 -1.9261 -1.4369
  122MOL   H13226994   4.977   5.077   4.284 -1.3274  0.0049 -0.0729
  122MOL   H13326995   5.081   5.091   4.434 -1.2046  2.0349 -1.3932
  122MOL   C13426996   5.051   4.809   4.112 -0.1717 -0.0358  0.0620
  122MOL   C13526997   5.173   4.861   4.030  0.9393 -0.0286  0.0013
  122MOL   C13626998   5.266   4.744   3.992  0.8926  0.1571 -0.2304
  122MOL   O13726999   5.261   4.697   3.880  0.1936  0.2059 -0.0290
  122MOL   C13827000   5.358   4.687   4.091  0.2502 -1.1347  0.0475
  122MOL   H13927001   4.979   4.890   4.108  0.9006  1.0738  2.1463
  122MOL   H14027002   4.995   4.729   4.065 -2.1343  0.4287  1.5385
  122MOL   H14127003   5.242   4.922   4.089 -0.5458  0.4927  1.2142
  122MOL   H14227004   5.312   4.595   4.126  0.0522 -1.0530 -0.0022
  122MOL   H14327005   5.368   4.759   4.172  1.0837 -0.0132 -1.0252
  122MOL   H14427006   5.453   4.673   4.039  1.3420  2.8810  0.7915
  122MOL   C14527007   5.134   4.939   3.904  0.4076  0.0161  0.0764
  122MOL   C14627008   5.117   5.092   3.928 -0.0210  1.1297  0.4614
  122MOL   C14727009   5.251   5.178   3.909  0.0495  0.9966 -0.3915
  122MOL   O14827010   5.332   5.156   3.815  0.6335  0.0972 -0.3126
  122MOL   C14927011   5.264   5.303   4.000  0.2588 -0.3551  0.0221
  122MOL   H15027012   5.056   4.879   3.858 -0.1691 -0.6110  1.8069
  122MOL   H15127013   5.209   4.927   3.826  0.2911 -3.6750  0.4216
  122MOL   H15227014   5.072   5.102   4.027 -0.5446  2.8355  0.0665
  122MOL   H15327015   5.183   5.292   4.072 -1.1144 -2.2716 -1.7440
  122MOL   H15427016   5.363   5.304   4.045 -0.4157 -1.1028  1.5504
  122MOL   H15527017   5.257   5.388   3.933 -0.3929 -2.7321 -3.0577
  122MOL   C15627018   5.025   5.136   3.818  0.0105 -0.0201 -0.8189
  122MOL   C15727019   4.940   5.257   3.856  0.0767  0.0798 -0.1762
  122MOL   C15827020   4.810   5.218   3.917  0.7605 -0.0916 -0.7966
  122MOL   O15927021   4.756   5.114   3.884  0.8560  0.4421  0.7558
  122MOL   C16027022   4.728   5.331   3.986 -0.1188 -0.0905  0.4473
  122MOL   H16127023   5.086   5.159   3.730  1.2938  1.1507  0.3668
  122MOL   H16227024   4.963   5.050   3.793  1.1870 -0.2389 -3.1175
  122MOL   H16327025   4.986   5.324   3.928  0.6021  0.2787 -0.6905
  122MOL   H16427026   4.793   5.416   3.965  1.1014  0.6483  6.1420
  122MOL   H16527027   4.713   5.321   4.094  0.7683  0.4264  0.6274
  122MOL   H16627028   4.631   5.345   3.940  0.7217  1.5977 -0.8916
  122MOL   C16727029   4.915   5.335   3.721  0.2585 -0.8833  0.1525
  122MOL   C16827030   5.033   5.431   3.677 -0.5043 -0.0896 -0.3872
  122MOL   C16927031   5.055   5.547   3.778  0.2113 -0.0418  0.0398
  122MOL   O17027032   4.977   5.568   3.869 -0.3477  0.2975 -0.4113
  122MOL   C17127033   5.163   5.654   3.743 -0.5694  0.1710 -0.2307
  122MOL   H17227034   4.881   5.271   3.640  0.2209 -0.5751 -0.0726
  122MOL   H17327035   4.821   5.390   3.727  0.0972 -1.1963  0.5062
  122MOL   H17427036   5.119   5.372   3.707  0.3871  1.7490  0.7629
  122MOL   H17527037   5.181   5.671   3.637 -1.3163 -0.9106 -0.5328
  122MOL   H17627038   5.257   5.624   3.788 -0.5178  0.6821  0.0007
  122MOL   H17727039   5.141   5.749   3.792  0.1536  0.9871 -1.4383
  122MOL   C17827040   5.039   5.462   3.530 -0.4484 -0.0417 -0.0139
  122MOL   C17927041   4.943   5.578   3.481  0.5951  0.3121  0.2113
  122MOL   C18027042   4.798   5.526   3.484  0.3206  0.5135  0.3921
  122MOL   O18127043   4.766   5.411   3.468 -0.4692  0.0148 -0.4084
  122MOL   C18227044   4.690   5.619   3.524  0.7014 -0.3433 -0.0765
  122MOL   H18327045   5.140   5.497   3.506  0.0832 -1.5707 -0.0124
  122MOL   H18427046   5.033   5.373   3.467  1.8981  0.2101 -0.6429
  122MOL   H18527047   4.960   5.661   3.550  1.0807  1.3057 -1.0820
  122MOL   H18627048   4.596   5.564   3.521  1.3663 -1.7369  2.8734
  122MOL   H18727049   4.681   5.699   3.451 -0.3961 -0.3398  0.0642
  122MOL   H18827050   4.698   5.670   3.620  0.0024  2.3161 -1.3858
  122MOL   C18927051   4.977   5.614   3.336 -0.5333 -0.2227  0.5430
  122MOL   C19027052   4.930   5.759   3.297 -0.4596  0.2218  0.1806
  122MOL   C19127053   5.004   5.852   3.386 -0.2716  0.1892  0.4429
  122MOL   O19227054   5.126   5.875   3.378  0.4144  0.0318  0.4235
  122MOL   C19327055   4.920   5.918   3.496 -0.4111 -0.3521 -0.5120
  122MOL   H19427056   5.085   5.612   3.326 -0.7715 -0.9277 -2.2919
  122MOL   H19527057   4.927   5.546   3.267  0.9296  1.4413 -2.2551
  122MOL   H19627058   4.825   5.784   3.305 -1.0358 -1.6514 -1.2510
  122MOL   H19727059   4.982   5.962   3.574 -1.4390  0.0855  0.0541
  122MOL   H19827060   4.846   5.991   3.467 -1.1204 -0.8205  0.1162
  122MOL   H19927061   4.855   5.849   3.549  1.6414 -2.4832 -0.6528
  122MOL   C20027062   4.969   5.782   3.145 -0.1849  0.3353  0.0111
  122MOL   C20127063   4.852   5.770   3.042  0.1802 -0.3710 -0.1882
  122MOL   C20227064   4.747   5.888   3.046  0.3061 -0.1287 -0.4135
  122MOL   O20327065   4.693   5.914   3.151 -0.3808  0.3555  0.5007
  122MOL   C20427066   4.722   5.975   2.923  0.0837  0.0583  0.2141
  122MOL   H20527067   5.007   5.884   3.144  1.1857 -0.1089 -4.3926
  122MOL   H20627068   5.045   5.714   3.106 -1.5393 -1.1702 -0.0981
  122MOL   H20727069   4.892   5.772   2.941 -1.3339  0.3546 -0.7911
  122MOL   H20827070   4.801   5.968   2.848 -1.5440 -1.5231 -1.4190
  122MOL   H20927071   4.626   5.948   2.879  0.1102  0.9207 -0.3952
  122MOL   H21027072   4.721   6.078   2.958 -0.9564 -0.3423  1.4219
  122MOL   C21127073   4.769   5.640   3.037 -0.6941 -0.0734  0.1391
  122MOL   C21227074   4.662   5.607   3.150 -0.2299 -0.7156  0.2396
  122MOL   C21327075   4.575   5.489   3.127  0.3942 -0.1530  0.0011
  122MOL   O21427076   4.581   5.422   3.022  0.1722 -0.0925  1.0111
  122MOL   C21527077   4.476   5.453   3.240  0.1790  0.9458  0.0638
  122MOL   H21627078   4.717   5.643   2.942  1.0571  4.2891 -0.8102
  122MOL   H21727079   4.834   5.552   3.043 -0.1606  0.3729  1.1142
  122MOL   H21827080   4.607   5.698   3.175  5.0544  2.4540  0.9518
  122MOL   H21927081   4.370   5.456   3.216  0.2636 -1.7235 -0.7593
  122MOL   H22027082   4.495   5.350   3.268 -0.6140  0.2793 -1.7595
  122MOL   H22127083   4.482   5.525   3.322  0.0914 -0.7285  1.5790
  122MOL   H22227084   4.717   5.591   3.243  0.4969 -1.1616 -0.2711
  123MOL     C127085   6.442   6.427   6.752  0.1035 -0.0186  0.0913
  123MOL     C227086   6.413   6.368   6.604 -0.5260  0.3371  0.1797
  123MOL     C327087   6.435   6.472   6.495  0.5175  0.3492  0.1787
  123MOL     O427088   6.550   6.517   6.474 -0.6776  0.2839 -0.2783
  123MOL     C527089   6.317   6.526   6.413 -0.0441  1.0337  1.2350
  123MOL     H627090   6.394   6.521   6.778 -2.5023 -0.9142 -1.2748
  123MOL     H727091   6.546   6.454   6.772  0.2284 -1.1718  1.0400
  123MOL     H827092   6.306   6.350   6.593 -0.1739 -1.5977 -0.3795
  123MOL     H927093   6.232   6.567   6.468  0.6451  1.5462  1.9309
  123MOL    H1027094   6.349   6.602   6.341 -0.1179  0.4101  0.5326
  123MOL    H1127095   6.273   6.459   6.338  1.6753  2.4532 -1.1263
  123MOL    H1227096   6.414   6.353   6.827  1.8978 -1.0726 -0.2402
  123MOL    C1327097   6.498   6.238   6.574  0.2124  0.2709  0.0603
  123MOL    C1427098   6.446   6.125   6.474  0.0660  1.8030  1.3170
  123MOL    C1527099   6.342   6.031   6.549 -0.3551  0.4145 -0.1383
  123MOL    O1627100   6.353   6.009   6.671 -0.3284  0.3084  0.4702
  123MOL    C1727101   6.220   5.976   6.468  0.0968  0.1013  0.2280
  123MOL    H1827102   6.596   6.273   6.541 -0.0249  0.7056 -0.1755
  123MOL    H1927103   6.518   6.189   6.670  1.7088  0.5454 -0.0974
  123MOL    H2027104   6.394   6.182   6.397  1.2822  0.5300 -0.4802
  123MOL    H2127105   6.231   5.870   6.444  1.4433  0.1216  0.6857
  123MOL    H2227106   6.121   5.999   6.507  0.2578  0.1993  0.5791
  123MOL    H2327107   6.222   6.036   6.377 -1.0439  1.3562  1.0285
  123MOL    C2427108   6.560   6.037   6.418  0.5604 -0.1513  0.0973
  123MOL    C2527109   6.638   5.963   6.528 -0.5126  0.2402  0.2420
  123MOL    C2627110   6.647   5.812   6.504 -0.0042 -0.6301  0.4982
  123MOL    O2727111   6.717   5.775   6.409  0.2824 -0.3159 -0.4624
  123MOL    C2827112   6.575   5.706   6.590 -0.1737  0.0166 -0.3192
  123MOL    H2927113   6.520   5.964   6.348 -0.7746  0.0952  0.5825
  123MOL    H3027114   6.630   6.107   6.372 -0.6893  0.1771 -1.3516
  123MOL    H3127115   6.586   5.982   6.622 -1.2476  0.9579 -0.2977
  123MOL    H3227116   6.620   5.613   6.554 -1.4901  1.1406 -5.1177
  123MOL    H3327117   6.589   5.708   6.699 -1.5645  0.0907 -0.1369
  123MOL    H3427118   6.470   5.706   6.561 -0.3403 -2.8080  0.1037
  123MOL    C3527119   6.784   6.020   6.550 -0.5451  0.3688 -1.1603
  123MOL    C3627120   6.871   5.992   6.671 -0.2083 -0.1751 -1.3128
  123MOL    C3727121   6.810   6.066   6.793 -0.1223  0.3832  0.1248
  123MOL    O3827122   6.695   6.062   6.829 -0.3880  0.4971  0.5901
  123MOL    C3927123   6.900   6.165   6.872  0.1674 -0.0483 -0.7393
  123MOL    H4027124   6.769   6.127   6.559 -2.2333 -0.0470  1.7401
  123MOL    H4127125   6.834   6.024   6.453  1.6134  0.4341 -0.0635
  123MOL    H4227126   6.958   6.057   6.664 -0.2178 -0.3172 -2.8780
  123MOL    H4327127   7.001   6.184   6.834  0.4202 -1.4183 -0.7874
  123MOL    H4427128   6.902   6.142   6.978 -1.0258  1.0023 -0.4823
  123MOL    H4527129   6.847   6.259   6.861  0.1812 -0.1298 -1.6094
  123MOL    C4627130   6.920   5.849   6.692 -0.4265  0.6916 -0.4905
  123MOL    C4727131   7.013   5.797   6.584 -0.4546  0.5774  0.7034
  123MOL    C4827132   7.154   5.861   6.606  0.2153  0.5037  0.7513
  123MOL    O4927133   7.217   5.836   6.704 -0.2467  0.0550  0.4170
  123MOL    C5027134   7.188   5.962   6.505 -0.2647 -0.0289  0.0228
  123MOL    H5127135   6.827   5.794   6.710  1.0390 -2.1783 -1.3297
  123MOL    H5227136   6.963   5.848   6.793 -2.7573 -2.4300  0.5689
  123MOL    H5327137   6.981   5.819   6.482 -0.5506  0.8324  0.7885
  123MOL    H5427138   7.287   5.996   6.538 -0.0714 -1.8567  1.3730
  123MOL    H5527139   7.194   5.912   6.409 -2.3612 -0.1136 -0.0853
  123MOL    H5627140   7.122   6.049   6.501  0.0987  0.3728  2.0152
  123MOL    C5727141   7.020   5.644   6.603  0.2819  1.1914 -0.8539
  123MOL    C5827142   7.107   5.558   6.505  0.3276  0.1711 -0.1278
  123MOL    C5927143   7.045   5.580   6.362 -0.1567  0.8598 -0.1679
  123MOL    O6027144   7.087   5.663   6.280  0.4396 -0.5826 -0.2775
  123MOL    C6127145   6.928   5.496   6.321 -0.9725 -0.4768  0.3805
  123MOL    H6227146   6.918   5.609   6.586  0.4012 -0.1325  0.9891
  123MOL    H6327147   7.046   5.617   6.705 -0.7386 -1.0889 -1.1679
  123MOL    H6427148   7.096   5.454   6.534 -2.1862  0.0681 -1.3865
  123MOL    H6527149   6.837   5.511   6.379  0.6799 -0.3948  3.0235
  123MOL    H6627150   6.892   5.523   6.222  3.2891  0.1031 -1.1259
  123MOL    H6727151   6.953   5.391   6.336 -1.0911 -0.4883  0.4903
  123MOL    C6827152   7.256   5.581   6.516 -0.1652 -0.6782 -0.3340
  123MOL    C6927153   7.350   5.471   6.468  0.1127  0.2435 -0.6537
  123MOL    C7027154   7.364   5.354   6.566  0.4869 -0.5130  0.5188
  123MOL    O7127155   7.331   5.363   6.683  0.1060  1.0317  0.3270
  123MOL    C7227156   7.415   5.228   6.505 -0.2470  0.2492 -1.1838
  123MOL    H7327157   7.285   5.671   6.463  1.3708 -1.0295 -0.1273
  123MOL    H7427158   7.272   5.611   6.620  0.0062  0.6453 -0.7313
  123MOL    H7527159   7.304   5.432   6.377 -2.4040  0.6971  0.3651
  123MOL    H7627160   7.373   5.213   6.406 -0.3022 -5.7478 -0.4164
  123MOL    H7727161   7.523   5.242   6.494 -0.1556 -0.4167 -1.1374
  123MOL    H7827162   7.406   5.134   6.560  0.3068  0.4214 -0.7951
  123MOL    C7927163   7.488   5.528   6.412 -1.0636  0.3867  0.5420
  123MOL    C8027164   7.592   5.575   6.521 -0.8002  0.0580  0.2452
  123MOL    C8127165   7.547   5.706   6.589 -0.2288  0.1819 -0.8581
  123MOL    O8227166   7.531   5.806   6.520 -0.3444 -0.6117  0.3356
  123MOL    C8327167   7.530   5.705   6.742 -0.1783 -1.1734  0.6172
  123MOL    H8427168   7.466   5.615   6.351  2.5366  1.3824  0.5293
  123MOL    H8527169   7.525   5.460   6.336 -0.0964  1.3264  0.1523
  123MOL    H8627170   7.590   5.494   6.594 -1.4285 -0.4568 -0.3355
  123MOL    H8727171   7.631   5.674   6.769  0.0895  0.5439  1.6223
  123MOL    H8827172   7.453   5.633   6.771 -0.4560 -0.6507  1.1918
  123MOL    H8927173   7.495   5.801   6.779 -0.2372 -1.3999  1.1655
  123MOL    C9027174   7.733   5.582   6.472  0.5104 -0.0732 -0.3569
  123MOL    C9127175   7.770   5.688   6.369 -0.0622 -0.5722 -0.2406
  123MOL    C9227176   0.022   5.785   6.421 -0.3094  0.4506 -0.2477
  123MOL    O9327177   0.121   5.745   6.481 -0.5691  0.1173  0.9897
  123MOL    C9427178   0.007   5.933   6.389 -0.1526 -0.7668  0.6864
  123MOL    H9527179   7.801   5.570   6.557  0.2606 -2.5077 -0.4548
  123MOL    H9627180   7.756   5.487   6.424  2.3431  0.6965 -1.0278
  123MOL    H9727181   7.679   5.746   6.355  0.8966  0.3760 -2.8864
  123MOL    H9827182   7.769   5.955   6.342 -1.2109 -1.1117  2.6223
  123MOL    H9927183   0.020   5.995   6.478 -1.3044 -0.1182  0.3996
  123MOL   H10027184   0.089   5.951   6.319  0.1751  0.9338  1.4858
  123MOL   C10127185   7.806   5.633   6.228 -0.4380 -0.6804 -0.2119
  123MOL   C10227186   0.092   5.571   6.196  0.2835 -0.2802 -0.0125
  123MOL   C10327187   0.124   5.603   6.046 -0.7014 -0.3644  0.0969
  123MOL   O10427188   0.088   5.528   5.955  0.2846 -0.2041 -0.2854
  123MOL   C10527189   0.194   5.731   6.017 -0.1009 -0.6849  0.2134
  123MOL   H10627190   7.727   5.566   6.195  1.6952 -2.4894 -1.8377
  123MOL   H10727191   7.799   5.709   6.150  2.5490  2.0008  2.0219
  123MOL   H10827192   0.169   5.631   6.245 -1.1546  1.6358 -0.0194
  123MOL   H10927193   0.120   5.811   6.006 -0.5327 -1.2165 -0.7336
  123MOL   H11027194   0.246   5.767   6.106 -2.8108  2.2822  0.7017
  123MOL   H11127195   0.261   5.727   5.932  0.1798  1.0428  0.3385
  123MOL   C11227196   0.117   5.425   6.231  0.2818 -0.2096 -0.6945
  123MOL   C11327197   0.197   5.417   6.359  0.8989  0.2087  0.3593
  123MOL   C11427198   0.329   5.488   6.352 -0.6028  0.9147 -0.3408
  123MOL   O11527199   0.386   5.514   6.243 -0.1633  0.0234 -0.3600
  123MOL   C11627200   0.392   5.532   6.488  0.2180  0.1322 -0.2678
  123MOL   H11727201   0.160   5.365   6.151  0.3481 -0.3573 -0.5490
  123MOL   H11827202   0.021   5.373   6.241  0.8594 -0.7576  2.9704
  123MOL   H11927203   0.138   5.477   6.429  1.5726  1.8952 -0.5042
  123MOL   H12027204   0.500   5.517   6.486  0.0018 -1.3524 -0.7962
  123MOL   H12127205   0.385   5.640   6.503  0.1548  0.0275  0.4844
  123MOL   H12227206   0.345   5.489   6.576  1.9592 -1.5588 -0.1251
  123MOL   C12327207   0.223   5.274   6.417 -0.1805 -0.8925  0.1512
  123MOL   C12427208   0.101   5.209   6.490  0.0694 -0.1206 -0.2745
  123MOL   C12527209   0.047   5.274   6.608  0.1102 -1.3749  0.1646
  123MOL   O12627210   7.787   5.302   6.620  0.1988  0.0042  0.2253
  123MOL   C12727211   0.138   5.291   6.726  0.2262 -0.4310 -0.3979
  123MOL   H12827212   0.312   5.267   6.481 -0.6589  0.3393  0.9606
  123MOL   H12927213   0.260   5.216   6.332  2.6374  0.0491  0.6651
  123MOL   H13027214   0.025   5.213   6.411  0.9645 -0.1298 -1.1500
  123MOL   H13127215   0.224   5.228   6.706 -0.6179 -2.1909  1.3517
  123MOL   H13227216   0.095   5.266   6.823 -1.6500  0.4344 -0.9686
  123MOL   H13327217   0.169   5.396   6.731  1.4244 -0.8400  1.1350
  123MOL   C13427218   0.126   5.058   6.514  0.0658  0.7494 -0.5584
  123MOL   C13527219   0.002   4.963   6.555  0.2432 -0.2854 -0.7089
  123MOL   C13627220   7.758   4.961   6.442  0.2188  0.0308 -0.3473
  123MOL   O13727221   7.790   4.987   6.328 -0.0991  0.2710 -0.7498
  123MOL   C13827222   7.612   4.921   6.476  0.8017  0.5892  0.1894
  123MOL   H13927223   0.189   5.045   6.601 -4.1274  0.1080  2.5709
  123MOL   H14027224   0.186   5.007   6.439 -1.3765 -1.5788 -0.2013
  123MOL   H14127225   7.813   5.010   6.641 -3.0794 -0.8375 -2.1327
  123MOL   H14227226   7.545   4.888   6.396  1.0894  1.4100 -0.4022
  123MOL   H14327227   7.568   5.000   6.538  0.8519  1.5895 -1.0189
  123MOL   H14427228   7.622   4.830   6.534  2.1525  0.5831 -0.0513
  123MOL   C14527229   0.037   4.817   6.598  0.1157 -0.0634  0.0247
  123MOL   C14627230   0.131   4.790   6.718  0.0911  0.0098  0.2059
  123MOL   C14727231   0.057   4.820   6.848 -0.6466  0.3665 -0.1268
  123MOL   O14827232   0.058   4.935   6.891 -0.4516 -0.0808  0.1518
  123MOL   C14927233   7.849   4.712   6.938 -0.1655  0.0914 -0.3932
  123MOL   H15027234   0.087   4.778   6.509 -0.1123  1.8726 -0.9820
  123MOL   H15127235   7.803   4.760   6.613  0.5720 -2.0830 -4.0197
  123MOL   H15227236   0.209   4.864   6.701  3.0886 -3.7450 -3.5752
  123MOL   H15327237   7.839   4.614   6.891  2.7662 -0.9071  0.9500
  123MOL   H15427238   0.046   4.697   7.031 -0.6881  0.8398  0.0368
  123MOL   H15527239   7.746   4.742   6.955 -0.6643 -0.6537 -1.9975
  123MOL   C15627240   0.209   4.658   6.717  0.4983  0.5020  0.8092
  123MOL   C15727241   0.312   4.644   6.832  0.3223  0.4356  0.3823
  123MOL   C15827242   0.409   4.762   6.846  0.6254  0.1613 -0.2174
  123MOL   O15927243   0.485   4.782   6.751  0.0507  0.4406 -0.8835
  123MOL   C16027244   0.451   4.814   6.985  0.8452 -0.2008 -0.4102
  123MOL   H16127245   0.144   4.570   6.725 -0.6718  1.4083  1.3264
  123MOL   H16227246   0.248   4.647   6.616  1.3139 -1.5686  1.3176
  123MOL   H16327247   0.257   4.645   6.926 -0.0507  0.5318  0.1626
  123MOL   H16427248   0.516   4.901   6.982  0.8268 -0.1863 -0.3713
  123MOL   H16527249   0.509   4.733   7.030  2.1794  1.0159  0.0744
  123MOL   H16627250   0.381   4.836   7.066  2.3192  1.3700  0.4660
  123MOL   C16727251   0.385   4.509   6.822 -0.1070  0.2404  0.0520
  123MOL   C16827252   0.320   4.394   6.902  0.4273 -0.6288  0.1236
  123MOL   C16927253   0.357   4.398   7.051 -0.1460 -0.9223 -0.0396
  123MOL   O17027254   0.464   4.446   7.095  0.3185  0.4292 -0.0307
  123MOL   C17127255   0.270   4.318   7.146 -0.0981 -0.4275  0.0352
  123MOL   H17227256   0.397   4.497   6.714 -0.8438 -0.1734  0.0085
  123MOL   H17327257   0.492   4.516   6.841 -0.1805 -0.4158  0.7376
  123MOL   H17427258   0.211   4.397   6.902  0.4544  0.4344  0.5767
  123MOL   H17527259   0.284   4.215   7.112 -0.0477 -0.4625  0.1600
  123MOL   H17627260   0.167   4.351   7.151  0.0246 -0.1085  0.4896
  123MOL   H17727261   0.300   4.327   7.250  1.7523  2.7919 -0.6916
  123MOL   C17827262   0.350   4.253   6.844 -0.4085 -0.3932 -0.3392
  123MOL   C17927263   0.245   4.225   6.731  0.5399 -0.2632 -0.2865
  123MOL   C18027264   0.102   4.202   6.784 -0.1478 -0.4743  0.2126
  123MOL   O18127265   0.081   4.106   6.852 -0.4436 -0.1264  0.2155
  123MOL   C18227266   7.853   4.289   6.735  0.3962 -0.5715  0.0917
  123MOL   H18327267   0.445   4.262   6.792 -0.3987 -1.0900 -0.4458
  123MOL   H18427268   0.354   4.168   6.911  0.6660 -0.2541 -0.2190
  123MOL   H18527269   0.248   4.311   6.663 -0.6032  2.6869  3.1950
  123MOL   H18627270   7.780   4.241   6.668  0.4538  0.2614 -0.5763
  123MOL   H18727271   0.038   4.368   6.674  0.6364 -0.0055  0.9948
  123MOL   H18827272   7.797   4.333   6.817  0.5669 -1.1237  0.5067
  123MOL   C18927273   0.286   4.110   6.639 -0.1303  0.0475 -0.6779
  123MOL   C19027274   0.212   4.082   6.504 -0.0221  0.4023 -0.9429
  123MOL   C19127275   0.303   4.077   6.380  1.0266 -0.5152 -0.0159
  123MOL   O19227276   0.291   3.987   6.301  0.3943  0.4162 -0.0847
  123MOL   C19327277   0.404   4.181   6.357 -0.1799  0.3478  0.4722
  123MOL   H19427278   0.391   4.120   6.613 -0.5048 -0.4659 -2.5262
  123MOL   H19527279   0.293   4.021   6.702  1.1542  0.8826  0.3705
  123MOL   H19627280   0.147   4.169   6.491  0.6160  0.7640 -1.7902
  123MOL   H19727281   0.498   4.167   6.409 -0.0990 -1.9116 -0.2228
  123MOL   H19827282   0.426   4.190   6.250 -0.0178 -1.5901  0.3386
  123MOL   H19927283   0.360   4.276   6.388  1.1730  1.0645  0.2363
  123MOL   C20027284   0.123   3.963   6.526 -0.3333 -0.5502 -0.4383
  123MOL   C20127285   0.009   3.925   6.425 -0.1747 -0.1139 -0.2757
  123MOL   C20227286   7.733   3.986   6.466  0.0576  0.2730 -0.7694
  123MOL   O20327287   7.718   4.048   6.569 -1.0887 -0.3238  0.0134
  123MOL   C20427288   7.618   3.958   6.365 -0.2371 -0.3260  0.2433
  123MOL   H20527289   0.198   3.885   6.541 -1.7624 -2.1665 -1.5254
  123MOL   H20627290   0.079   3.950   6.626  0.5129 -2.5996 -0.3004
  123MOL   H20727291   0.031   3.970   6.328 -0.6264  0.1695 -0.2508
  123MOL   H20827292   7.528   4.019   6.380  0.6037  0.5973  1.7007
  123MOL   H20927293   7.647   3.980   6.263  1.1064  0.1108  0.7112
  123MOL   H21027294   7.590   3.852   6.364  0.1041 -0.4104 -0.7774
  123MOL   C21127295   0.007   3.766   6.390 -0.4278 -0.2917  0.1319
  123MOL   C21227296   7.843   3.668   6.506  0.5150 -0.4244  0.2065
  123MOL   C21327297   7.840   3.525   6.455 -0.3257  0.0139  0.0415
  123MOL   O21427298   0.039   3.496   6.351 -0.6410 -0.4626  0.1346
  123MOL   C21527299   7.766   3.424   6.536  0.3625 -0.0784 -0.3572
  123MOL   H21627300   7.791   3.745   6.312 -1.6356  2.7708  0.3648
  123MOL   H21727301   0.108   3.747   6.353 -0.5097  0.3298 -0.4241
  123MOL   H21827302   7.748   3.688   6.556  0.3501 -2.0185  0.5461
  123MOL   H21927303   7.675   3.467   6.578 -2.0246 -0.6803 -4.6908
  123MOL   H22027304   7.731   3.338   6.479  0.9925  0.1146 -1.0390
  123MOL   H22127305   7.827   3.386   6.618 -0.0589  1.2393  0.5941
  123MOL   H22227306   0.068   3.684   6.574  1.1884  0.7316 -0.8530
  124MOL     C127307   4.939   3.885   0.586  0.0801  0.1827  0.6516
  124MOL     C227308   5.039   4.001   0.584 -0.1626 -0.1245 -0.0347
  124MOL     C327309   4.990   4.120   0.665 -0.3760 -0.0814 -0.2951
  124MOL     O427310   4.994   4.235   0.626  0.0315 -0.1581 -0.3394
  124MOL     C527311   4.950   4.090   0.818  0.3668 -0.0754 -0.1100
  124MOL     H627312   4.987   3.798   0.543  1.8917  1.2096  0.5537
  124MOL     H727313   4.857   3.908   0.518 -1.9725  0.9737  3.2933
  124MOL     H827314   5.035   4.036   0.481 -1.3715 -3.7208 -1.3107
  124MOL     H927315   5.010   4.141   0.893 -0.1409 -0.9817  0.9299
  124MOL    H1027316   4.848   4.126   0.831  0.0196 -0.6145 -1.2851
  124MOL    H1127317   4.972   3.987   0.846  0.8309  0.3638  1.2066
  124MOL    H1227318   4.897   3.864   0.685 -0.4504 -1.9092  0.0013
  124MOL    C1327319   5.185   3.958   0.613 -1.2684 -0.0367  0.0004
  124MOL    C1427320   5.285   4.057   0.545  0.3852  0.0872  0.1247
  124MOL    C1527321   5.294   4.065   0.391 -0.6177 -0.0663 -0.2455
  124MOL    O1627322   5.332   3.962   0.337 -0.5694 -0.2985 -0.0273
  124MOL    C1727323   5.298   4.205   0.321  0.4709 -0.5994 -0.2918
  124MOL    H1827324   5.192   3.948   0.721 -0.6598 -0.9828 -0.1135
  124MOL    H1927325   5.217   3.859   0.578 -1.8785 -0.5919  0.9862
  124MOL    H2027326   5.256   4.156   0.579  0.5732  0.0690  0.3426
  124MOL    H2127327   5.272   4.283   0.393 -0.2739  0.3885 -1.6033
  124MOL    H2227328   5.397   4.227   0.283 -0.3558 -0.1766 -2.2315
  124MOL    H2327329   5.220   4.208   0.244 -0.9387  3.0188  1.1900
  124MOL    C2427330   5.429   4.040   0.600  0.1039  0.1436 -0.7111
  124MOL    C2527331   5.456   4.116   0.732 -0.0430  0.6926 -0.8061
  124MOL    C2627332   5.405   4.040   0.855 -0.8403 -0.2296  0.2088
  124MOL    O2727333   5.429   3.918   0.871 -0.0314 -0.3087 -0.4244
  124MOL    C2827334   5.320   4.117   0.961  0.1795  0.2628 -0.6878
  124MOL    H2927335   5.446   3.935   0.621 -0.3470 -0.3345 -2.6707
  124MOL    H3027336   5.508   4.077   0.535  0.8371 -0.8878 -0.4199
  124MOL    H3127337   5.412   4.212   0.708  0.5146  0.8269 -1.3113
  124MOL    H3227338   5.257   4.050   1.020  2.3621  0.2385  1.7532
  124MOL    H3327339   5.393   4.169   1.023  0.9824  1.3420 -2.5023
  124MOL    H3427340   5.254   4.194   0.923 -0.0910 -0.7589 -2.3488
  124MOL    C3527341   5.612   4.159   0.754  0.4253  0.5195 -0.0940
  124MOL    C3627342   5.625   4.300   0.824 -0.4820  0.0616  0.0330
  124MOL    C3727343   5.744   4.313   0.924 -0.4131  0.3909 -0.3940
  124MOL    O3827344   5.861   4.340   0.882  0.2438 -0.3532 -0.1638
  124MOL    C3927345   5.731   4.261   1.069  0.3013 -0.6485 -0.4330
  124MOL    H4027346   5.665   4.168   0.659  1.2385  1.7486  0.4586
  124MOL    H4127347   5.659   4.082   0.816  1.9469 -0.1944 -2.0880
  124MOL    H4227348   5.542   4.305   0.895 -1.7992  0.5379 -1.5167
  124MOL    H4327349   5.826   4.267   1.122  0.2915 -0.9591 -0.3744
  124MOL    H4427350   5.698   4.157   1.059 -0.7139 -0.3914  0.1989
  124MOL    H4527351   5.666   4.328   1.125  4.2135  1.8728  1.2472
  124MOL    C4627352   5.620   4.421   0.726  0.1278  0.2420  1.0276
  124MOL    C4727353   5.583   4.547   0.803 -0.6683 -0.2423  1.1064
  124MOL    C4827354   5.649   4.673   0.736  0.5090  0.8280 -0.1151
  124MOL    O4927355   5.574   4.745   0.667  0.0947 -0.0002 -0.1002
  124MOL    C5027356   5.799   4.700   0.744  0.1684  0.9279 -0.6247
  124MOL    H5127357   5.548   4.410   0.645  1.2936  2.8535 -0.4230
  124MOL    H5227358   5.719   4.415   0.680 -1.2825 -0.4194 -2.0289
  124MOL    H5327359   5.630   4.534   0.901  2.5443 -0.6637 -0.4289
  124MOL    H5427360   5.813   4.792   0.688 -0.5110  2.0814  1.0900
  124MOL    H5527361   5.824   4.710   0.849  0.6854 -0.5266 -0.5875
  124MOL    H5627362   5.857   4.613   0.712 -0.1719 -0.1071  1.5280
  124MOL    C5727363   5.430   4.565   0.828  0.3730  0.3909  0.4080
  124MOL    C5827364   5.389   4.644   0.958 -0.1565 -0.8585 -0.3224
  124MOL    C5927365   5.422   4.556   1.080 -1.0041 -0.4032 -0.1663
  124MOL    O6027366   5.535   4.544   1.117 -0.0313 -0.0775 -0.2243
  124MOL    C6127367   5.317   4.463   1.141  0.0140 -0.6910 -0.5462
  124MOL    H6227368   5.379   4.468   0.828 -1.4192  1.3085 -0.9018
  124MOL    H6327369   5.386   4.615   0.742 -0.3023 -3.6755 -1.7554
  124MOL    H6427370   5.281   4.653   0.951  0.0860  1.9175 -0.9439
  124MOL    H6527371   5.287   4.498   1.240  0.6946 -1.4256 -0.0783
  124MOL    H6627372   5.224   4.462   1.086 -0.4897 -0.1694  0.2740
  124MOL    H6727373   5.347   4.361   1.164  1.2537 -0.1777  0.2190
  124MOL    C6827374   5.446   4.790   0.956  0.0412  0.1404  0.0559
  124MOL    C6927375   5.396   4.887   1.065 -0.8585 -0.4069  0.2043
  124MOL    C7027376   5.296   4.990   1.018  0.0057 -0.8417 -0.0777
  124MOL    O7127377   5.333   5.100   0.984  0.5658  0.1958  0.2182
  124MOL    C7227378   5.150   4.948   1.004 -0.9239 -0.0173  0.4368
  124MOL    H7327379   5.555   4.800   0.955 -0.0841  1.8849  1.4038
  124MOL    H7427380   5.414   4.840   0.865  0.8846 -1.1299 -0.9624
  124MOL    H7527381   5.333   4.828   1.132 -0.7190 -0.3158  0.4157
  124MOL    H7627382   5.143   4.839   1.000 -0.8830 -0.1003  2.4524
  124MOL    H7727383   5.086   4.991   1.081 -0.3387  0.8364  0.4499
  124MOL    H7827384   5.114   4.992   0.911  3.1564 -2.2809 -2.3426
  124MOL    C7927385   5.510   4.959   1.143  0.0982  0.0570  0.6188
  124MOL    C8027386   5.484   5.049   1.267 -0.4151  0.1377  0.9525
  124MOL    C8127387   5.628   5.078   1.321 -0.4754 -0.6296 -0.2437
  124MOL    O8227388   5.676   5.021   1.421  0.5616 -0.3580  0.6060
  124MOL    C8327389   5.709   5.176   1.234 -0.2831 -0.3612 -0.2086
  124MOL    H8427390   5.575   5.002   1.066  1.3448 -0.0751  1.5861
  124MOL    H8527391   5.581   4.885   1.178 -0.6928 -0.0673  1.9840
  124MOL    H8627392   5.443   5.142   1.229  1.3691 -0.0568 -1.5983
  124MOL    H8727393   5.778   5.230   1.299 -0.3362 -0.8555  0.2622
  124MOL    H8827394   5.654   5.261   1.193  0.8439  0.0794 -0.8430
  124MOL    H8927395   5.771   5.129   1.159 -0.0559 -1.9147  0.9302
  124MOL    C9027396   5.397   4.983   1.374  0.3586 -0.2076 -0.1042
  124MOL    C9127397   5.325   5.092   1.459  0.0055  0.3203  0.1570
  124MOL    C9227398   5.197   5.152   1.394 -0.5068  0.3741  0.9210
  124MOL    O9327399   5.115   5.073   1.353 -0.3202  0.2014  0.0697
  124MOL    C9427400   5.189   5.307   1.389 -0.9136  1.4331 -0.1645
  124MOL    H9527401   5.321   4.925   1.322  1.6643 -2.4621  0.4292
  124MOL    H9627402   5.446   4.915   1.444 -0.8164 -1.1438 -0.1637
  124MOL    H9727403   5.391   5.175   1.486  0.7878 -0.2320 -0.0484
  124MOL    H9827404   5.088   5.348   1.386 -0.6448  2.2641  1.3117
  124MOL    H9927405   5.238   5.354   1.475 -0.6621 -0.2897  0.6605
  124MOL   H10027406   5.238   5.331   1.295  1.1844 -1.3810  0.1221
  124MOL   C10127407   5.282   5.025   1.593 -0.5967  0.3040  0.7435
  124MOL   C10227408   5.395   5.025   1.700 -0.0947  0.5659 -0.9706
  124MOL   C10327409   5.434   4.881   1.741  0.4927 -0.0191  0.3409
  124MOL   O10427410   5.344   4.795   1.766 -0.7324 -0.5119 -0.2457
  124MOL   C10527411   5.583   4.855   1.750  0.8962 -0.3079 -0.2657
  124MOL   H10627412   5.194   5.075   1.633  0.2503  1.4860  1.1637
  124MOL   H10727413   5.252   4.920   1.582  1.2501 -0.6059  3.6323
  124MOL   H10827414   5.483   5.074   1.657 -0.2268 -0.2743 -2.2542
  124MOL   H10927415   5.642   4.911   1.677  2.4796  0.2590  1.4161
  124MOL   H11027416   5.627   4.874   1.848 -0.2542 -1.8036  0.5544
  124MOL   H11127417   5.598   4.749   1.730  0.5430 -0.7507  1.8016
  124MOL   C11227418   5.352   5.105   1.826 -0.0879  0.4276  0.0570
  124MOL   C11327419   5.318   5.253   1.801  0.0805  0.4649  0.3758
  124MOL   C11427420   5.436   5.343   1.769  0.8616  0.4359  0.0626
  124MOL   O11527421   5.469   5.354   1.650  0.2062  0.9002 -0.0018
  124MOL   C11627422   5.515   5.401   1.888  0.1201  0.9493  0.3656
  124MOL   H11727423   5.441   5.103   1.888 -0.0240 -0.3059 -0.0599
  124MOL   H11827424   5.274   5.046   1.874  0.6592  0.4546  1.2996
  124MOL   H11927425   5.258   5.256   1.709  2.6135  0.6961 -1.3178
  124MOL   H12027426   5.465   5.488   1.929 -2.1589  0.4434 -1.2486
  124MOL   H12127427   5.536   5.328   1.966 -0.2044 -0.2018 -0.5957
  124MOL   H12227428   5.620   5.428   1.872  0.0248  1.5761  0.7811
  124MOL   C12327429   5.224   5.303   1.914 -0.9334 -0.5273 -0.6352
  124MOL   C12427430   5.073   5.279   1.891  0.3872 -0.4973 -0.0751
  124MOL   C12527431   5.014   5.365   1.779  0.3811 -0.0295 -0.1365
  124MOL   O12627432   5.023   5.481   1.784  0.2385  0.1324 -0.2765
  124MOL   C12727433   4.939   5.299   1.664 -0.1095 -0.4063  0.5036
  124MOL   H12827434   5.240   5.410   1.926  0.1849 -0.7048 -0.5003
  124MOL   H12927435   5.252   5.258   2.009 -0.7777  1.5155  0.2985
  124MOL   H13027436   5.067   5.175   1.861  0.2779 -0.5683  0.1928
  124MOL   H13127437   4.834   5.323   1.679  0.0304 -0.5628  1.8229
  124MOL   H13227438   4.955   5.191   1.660 -0.8335 -0.5687  1.7481
  124MOL   H13327439   4.975   5.345   1.572  0.9120 -0.4620  0.8695
  124MOL   C13427440   4.999   5.301   2.030 -0.3835  0.9333 -0.1787
  124MOL   C13527441   4.844   5.269   2.030 -0.2082 -0.3160  0.1568
  124MOL   C13627442   4.792   5.144   1.947 -0.5918 -0.1704  0.0574
  124MOL   O13727443   4.863   5.038   1.931  0.1256  0.4124 -0.0743
  124MOL   C13827444   4.659   5.154   1.875  0.1162 -0.3913 -0.3772
  124MOL   H13927445   5.007   5.409   2.048 -0.3388  0.9837 -0.4914
  124MOL   H14027446   5.050   5.238   2.102 -1.3935 -0.0641 -0.3243
  124MOL   H14127447   4.812   5.364   1.988  0.7210  0.3590  0.9468
  124MOL   H14227448   4.592   5.184   1.956 -0.4979  0.6004 -1.2408
  124MOL   H14327449   4.627   5.055   1.843  0.4176 -0.3666 -0.7596
  124MOL   H14427450   4.668   5.232   1.799  0.5592 -1.8177 -1.8134
  124MOL   C14527451   4.778   5.276   2.167 -0.2130  0.5559  0.0272
  124MOL   C14627452   4.756   5.143   2.244  0.5595  0.1902 -0.2807
  124MOL   C14727453   4.887   5.071   2.276  0.0260  0.3061 -0.7147
  124MOL   O14827454   4.975   5.130   2.336 -0.2717  0.0085  0.1260
  124MOL   C14927455   4.901   4.930   2.240 -0.1545  0.1148  0.0432
  124MOL   H15027456   4.680   5.320   2.152 -1.3430 -1.7572  0.3891
  124MOL   H15127457   4.837   5.345   2.227  0.6897 -0.3271  0.1800
  124MOL   H15227458   4.702   5.077   2.176 -0.3414  1.5287 -0.8819
  124MOL   H15327459   5.000   4.913   2.197 -1.1764  1.1128 -2.7627
  124MOL   H15427460   4.889   4.870   2.330 -0.4077  0.5183  0.2806
  124MOL   H15527461   4.828   4.912   2.162 -0.9026  1.0992  0.5025
  124MOL   C15627462   4.665   5.181   2.368 -0.1285 -0.2654 -0.4049
  124MOL   C15727463   4.618   5.071   2.455  0.4172 -0.0593  0.0022
  124MOL   C15827464   4.480   5.025   2.408  0.5273  0.4653 -0.3216
  124MOL   O15927465   4.385   5.102   2.395  0.0343  0.6897 -0.0347
  124MOL   C16027466   4.469   4.877   2.365 -0.7382  0.1857  0.1568
  124MOL   H16127467   4.728   5.251   2.423 -0.0980 -0.4641 -0.1875
  124MOL   H16227468   4.585   5.245   2.332  0.3445  0.3304 -0.4049
  124MOL   H16327469   4.686   4.986   2.444 -1.7305 -1.8165  0.0541
  124MOL   H16427470   4.545   4.854   2.291 -0.4668 -2.3389  1.1651
  124MOL   H16527471   4.368   4.841   2.342 -0.4224 -0.6524  0.0715
  124MOL   H16627472   4.495   4.817   2.452 -3.6129 -1.9230 -0.3481
  124MOL   C16727473   4.608   5.118   2.604  0.0328  0.0634 -0.2228
  124MOL   C16827474   4.738   5.137   2.682 -1.1728 -0.5648 -0.2425
  124MOL   C16927475   4.850   5.032   2.664 -0.3572 -0.0416 -0.1691
  124MOL   O17027476   4.826   4.916   2.636  0.3402 -0.4542  0.6581
  124MOL   C17127477   4.991   5.088   2.671 -1.2039  0.1012 -0.1034
  124MOL   H17227478   4.559   5.215   2.616 -1.7317 -1.0126  1.7216
  124MOL   H17327479   4.544   5.049   2.660 -0.6005  1.1696  0.4246
  124MOL   H17427480   4.777   5.227   2.633 -0.1439 -0.1591  1.2997
  124MOL   H17527481   5.009   5.145   2.579 -1.8675 -2.0672 -1.5968
  124MOL   H17627482   5.081   5.029   2.687  0.1488  2.3266  0.7224
  124MOL   H17727483   4.989   5.153   2.759  0.6830  1.2551 -0.8637
  124MOL   C17827484   4.701   5.176   2.834  0.5858  0.1626 -0.3319
  124MOL   C17927485   4.720   5.061   2.937 -0.2542 -0.1872 -0.1582
  124MOL   C18027486   4.610   4.950   2.922 -0.5999 -0.1537 -0.3045
  124MOL   O18127487   4.494   4.986   2.939 -0.5410 -0.2990  0.3479
  124MOL   C18227488   4.654   4.811   2.884  0.0341 -0.9044 -0.3060
  124MOL   H18327489   4.774   5.248   2.873  0.2924  0.9979 -1.3059
  124MOL   H18427490   4.607   5.229   2.850  0.5700  0.1225 -0.2942
  124MOL   H18527491   4.821   5.022   2.930 -0.3333 -0.2911 -0.7531
  124MOL   H18627492   4.659   4.810   2.775  0.8029  3.2275 -0.3586
  124MOL   H18727493   4.577   4.744   2.922  1.4608 -1.1875  2.2174
  124MOL   H18827494   4.751   4.781   2.925  0.0967  0.8515  0.8625
  124MOL   C18927495   4.705   5.125   3.087 -0.5876  0.1127  0.3368
  124MOL   C19027496   4.722   5.026   3.206 -0.2683  0.5892 -0.1632
  124MOL   C19127497   4.862   4.976   3.221  0.3227 -0.0715  0.2877
  124MOL   O19227498   4.954   5.040   3.179 -0.7641  0.2406 -0.1059
  124MOL   C19327499   4.886   4.853   3.306  0.5220  0.0679  0.2723
  124MOL   H19427500   4.782   5.202   3.095 -0.7648  0.5489 -1.8675
  124MOL   H19527501   4.612   5.182   3.085 -1.6408 -1.4391  3.1047
  124MOL   H19627502   4.659   4.938   3.190 -1.8582  1.6078  0.3721
  124MOL   H19727503   4.872   4.875   3.412 -1.3681 -3.3825  0.8158
  124MOL   H19827504   4.828   4.765   3.279  1.6334 -0.6310  0.1001
  124MOL   H19927505   4.990   4.820   3.300  0.0704 -1.4427  0.5296
  124MOL   C20027506   4.663   5.094   3.329 -0.4084  0.1196 -0.1104
  124MOL   C20127507   4.608   4.993   3.424 -0.4223 -0.0759 -0.5795
  124MOL   C20227508   4.459   4.963   3.388 -0.5309 -0.6869  0.4838
  124MOL   O20327509   4.380   5.057   3.407 -0.0070 -0.5986 -0.0793
  124MOL   C20427510   4.410   4.829   3.345 -0.5000 -0.2404 -0.1604
  124MOL   H20527511   4.745   5.148   3.378 -0.3766 -0.8356  0.9013
  124MOL   H20627512   4.590   5.166   3.293 -1.4561 -1.2073 -0.6710
  124MOL   H20727513   4.662   4.899   3.425  0.3191  0.3559 -0.2779
  124MOL   H20827514   4.330   4.794   3.410 -0.6362  1.7637  0.7845
  124MOL   H20927515   4.376   4.845   3.242 -0.2293 -0.9444 -0.3603
  124MOL   H21027516   4.489   4.754   3.336  1.7950  2.0838  0.1662
  124MOL   C21127517   4.620   5.049   3.566 -0.7033  0.4903 -0.4560
  124MOL   C21227518   4.565   4.957   3.674  0.1974  0.3605  0.7113
  124MOL   C21327519   4.652   4.839   3.706 -0.2144 -0.7559  0.2085
  124MOL   O21427520   4.739   4.793   3.629 -0.4741  0.5748 -0.0870
  124MOL   C21527521   4.634   4.780   3.845  0.5909 -0.2663  0.3604
  124MOL   H21627522   4.726   5.053   3.591 -0.7052  0.2707 -0.4111
  124MOL   H21727523   4.570   5.145   3.564 -0.8119  0.5783  3.0213
  124MOL   H21827524   4.468   4.915   3.649 -0.4850  0.9911  2.2117
  124MOL   H21927525   4.607   4.675   3.844 -1.6177  0.2530  1.8120
  124MOL   H22027526   4.721   4.808   3.903  0.1794  0.4635  0.6425
  124MOL   H22127527   4.552   4.842   3.883 -0.0706 -2.3197  2.3762
  124MOL   H22227528   4.557   5.015   3.767 -0.9557  0.4785  0.5405
  125MOL     C127529   0.172   2.309   0.148  0.1268 -0.2227  0.0106
  125MOL     C227530   0.212   2.403   0.030  0.1115  0.0750 -0.0633
  125MOL     C327531   0.094   2.400   7.783  0.0396  0.1452  0.2425
  125MOL     O427532   0.022   2.497   7.761  0.2586 -0.5370 -0.4016
  125MOL     C527533   0.087   2.271   7.703  0.8429  0.9950 -0.1398
  125MOL     H627534   0.123   2.223   0.102 -0.6634 -1.0530  2.3278
  125MOL     H727535   0.099   2.357   0.213 -0.0281  2.6411 -2.2063
  125MOL     H827536   0.296   2.356   7.836  0.8210 -0.2132  1.3412
  125MOL     H927537   0.150   2.269   7.614  1.9594  0.0176  0.6501
  125MOL    H1027538   0.115   2.190   7.771 -1.1015  1.1905  0.9217
  125MOL    H1127539   7.848   2.249   7.658  0.7962  0.2446  0.3102
  125MOL    H1227540   0.261   2.275   0.202 -0.1152 -1.9236 -0.6629
  125MOL    C1327541   0.259   2.547   0.079  0.2622 -0.6950 -0.6554
  125MOL    C1427542   0.323   2.633   7.821 -0.5107  0.8225  1.3639
  125MOL    C1527543   0.426   2.557   7.736 -0.1202  0.9446  0.4648
  125MOL    O1627544   0.507   2.483   7.795 -0.4712 -0.2720  0.3516
  125MOL    C1727545   0.452   2.595   7.593  0.7332 -0.0621 -0.0891
  125MOL    H1827546   0.177   2.608   0.118 -0.8131 -0.9737 -2.4225
  125MOL    H1927547   0.325   2.538   0.165  0.1369 -0.8246 -0.5711
  125MOL    H2027548   0.251   2.644   7.739 -0.3819  1.3168  1.3172
  125MOL    H2127549   0.554   2.628   7.572  0.4554  1.2930  0.7055
  125MOL    H2227550   0.439   2.504   7.534  1.2221 -1.1106  1.3816
  125MOL    H2327551   0.384   2.674   7.562  1.1065 -0.5577 -2.3002
  125MOL    C2427552   0.375   2.773   7.847 -0.0267 -0.4245  0.0219
  125MOL    C2527553   0.498   2.772   0.086 -0.7113 -0.2468 -0.6379
  125MOL    C2627554   0.612   2.860   0.039 -0.1863 -0.2211  0.3397
  125MOL    O2727555   0.612   2.980   0.067 -0.4569 -1.0987  0.3991
  125MOL    C2827556   0.725   2.793   7.820  0.6381  0.2464  0.5608
  125MOL    H2927557   0.390   2.823   7.751  1.0339  1.1732  1.0036
  125MOL    H3027558   0.286   2.825   0.023  0.7908  0.9272  0.1482
  125MOL    H3127559   0.539   2.671   0.081 -2.1343 -1.1289  3.4150
  125MOL    H3227560   0.710   2.826   7.718 -1.9960  2.2486  1.5463
  125MOL    H3327561   0.828   2.811   7.853  0.7526  0.5425  0.0393
  125MOL    H3427562   0.697   2.688   7.819  3.6528 -0.6113 -0.9670
  125MOL    C3527563   0.457   2.790   0.238  0.5053 -0.0555 -0.2679
  125MOL    C3627564   0.564   2.745   0.344 -0.2325  0.2294 -0.5475
  125MOL    C3727565   0.650   2.862   0.395 -0.1928  0.0477  0.0464
  125MOL    O3827566   0.592   2.958   0.447  0.3104 -0.4612 -0.4182
  125MOL    C3927567   0.795   2.870   0.356 -0.0163 -0.4307  0.1352
  125MOL    H4027568   0.361   2.740   0.250  0.5583 -0.7223 -2.4867
  125MOL    H4127569   0.433   2.896   0.246 -1.7879 -0.6574  1.3678
  125MOL    H4227570   0.631   2.672   0.298  1.0243  0.1361  1.3661
  125MOL    H4327571   0.803   2.969   0.310 -0.8844 -0.0827  0.7228
  125MOL    H4427572   0.820   2.795   0.282 -0.6056 -0.2382 -0.2668
  125MOL    H4527573   0.847   2.865   0.451 -1.2135 -2.5868  0.7009
  125MOL    C4627574   0.505   2.682   0.477 -0.0489  0.2031 -0.4136
  125MOL    C4727575   0.460   2.537   0.445  0.6772 -0.5349 -0.6358
  125MOL    C4827576   0.569   2.432   0.418  0.2254 -0.0244  0.4124
  125MOL    O4927577   0.684   2.441   0.458 -0.0972 -0.6541 -0.0959
  125MOL    C5027578   0.531   2.313   0.335 -0.0200 -0.9701  0.0344
  125MOL    H5127579   0.430   2.752   0.514  0.1950  0.5492 -0.5743
  125MOL    H5227580   0.581   2.675   0.554 -0.6608 -0.8716  0.1095
  125MOL    H5327581   0.418   2.550   0.345 -0.1010 -0.6249 -0.3164
  125MOL    H5427582   0.485   2.329   0.238 -1.6216  0.5427  1.0035
  125MOL    H5527583   0.625   2.267   0.305 -1.3782 -1.0047 -4.5799
  125MOL    H5627584   0.471   2.240   0.390  0.5633 -0.5848  1.1972
  125MOL    C5727585   0.342   2.483   0.532 -0.3264  0.3137 -0.4281
  125MOL    C5827586   0.379   2.432   0.675  0.2216 -0.9215  0.2791
  125MOL    C5927587   0.469   2.530   0.758  0.5947 -0.5125  1.0032
  125MOL    O6027588   0.419   2.637   0.796  0.4113 -0.0788 -0.3473
  125MOL    C6127589   0.602   2.496   0.819 -0.1833 -0.0209 -0.4154
  125MOL    H6227590   0.288   2.407   0.475 -0.4973  1.7593 -2.2302
  125MOL    H6327591   0.272   2.565   0.544  1.5067  1.4973  2.8801
  125MOL    H6427592   0.434   2.338   0.669 -1.5104 -1.8918 -1.0010
  125MOL    H6527593   0.643   2.579   0.877 -0.1513 -1.1113  1.1500
  125MOL    H6627594   0.593   2.410   0.885 -1.4647 -1.0136 -1.8535
  125MOL    H6727595   0.669   2.476   0.735 -2.2297  0.4376 -2.2042
  125MOL    C6827596   0.256   2.394   0.760 -0.2386  0.5198 -0.1857
  125MOL    C6927597   0.199   2.251   0.726 -0.8058 -0.4132  0.0889
  125MOL    C7027598   0.044   2.252   0.718  0.1265 -1.1587 -0.3103
  125MOL    O7127599   7.831   2.230   0.812 -0.0568 -0.2187  0.7105
  125MOL    C7227600   7.838   2.269   0.580  0.6457  0.3337  0.0514
  125MOL    H7327601   0.281   2.405   0.865  1.9474 -0.7783 -0.5281
  125MOL    H7427602   0.173   2.464   0.747 -0.5696  0.7514  2.8935
  125MOL    H7527603   0.229   2.229   0.624 -0.0059 -0.8660  0.4211
  125MOL    H7627604   7.786   2.364   0.570 -0.0395  0.1084  1.4573
  125MOL    H7727605   0.061   2.276   0.507  0.5045  2.6919  0.1084
  125MOL    H7827606   7.765   2.191   0.555 -0.1512  1.4876 -1.2931
  125MOL    C7927607   0.245   2.133   0.811  0.2722  1.0776  0.1840
  125MOL    C8027608   0.190   2.004   0.758  0.1709 -0.1226  0.3462
  125MOL    C8127609   0.180   1.900   0.866  0.2260 -0.0285  0.3053
  125MOL    O8227610   0.283   1.866   0.921 -0.1920  0.0267 -0.2158
  125MOL    C8327611   0.047   1.848   0.911  0.1853  0.4060 -0.0511
  125MOL    H8427612   0.196   2.156   0.906 -0.7324 -0.5886  0.0879
  125MOL    H8527613   0.352   2.119   0.799  0.5076 -0.0367  3.4074
  125MOL    H8627614   0.084   2.011   0.733  0.4763  0.3437 -0.9025
  125MOL    H8727615   0.046   1.743   0.881 -0.4920 -0.0168  1.4020
  125MOL    H8827616   7.821   1.900   0.864  0.5380  0.6335 -0.4221
  125MOL    H8927617   0.025   1.845   1.018 -1.3676 -1.1919 -0.3833
  125MOL    C9027618   0.268   1.961   0.634 -0.4812  0.1775  0.0726
  125MOL    C9127619   0.193   1.858   0.541  0.4180  0.2530 -0.1894
  125MOL    C9227620   0.068   1.923   0.489  0.3326 -0.2172  0.2995
  125MOL    O9327621   0.070   2.017   0.412  0.2393  0.1722 -0.2039
  125MOL    C9427622   7.796   1.874   0.553 -0.0266  0.2042 -0.3679
  125MOL    H9527623   0.311   2.033   0.564  0.2159  0.2347  0.5500
  125MOL    H9627624   0.354   1.907   0.674 -0.0877  0.7898  0.0570
  125MOL    H9727625   0.174   1.779   0.614  0.6549  1.4773  1.2134
  125MOL    H9827626   7.807   1.900   0.658 -1.4447 -1.1464  0.1335
  125MOL    H9927627   7.706   1.927   0.519  0.6520 -0.4270 -3.2796
  125MOL   H10027628   7.782   1.767   0.545  2.3935 -0.0592 -1.5552
  125MOL   C10127629   0.282   1.814   0.414 -0.2058 -0.0625  0.5954
  125MOL   C10227630   0.218   1.720   0.298  0.4567 -0.7928 -0.6601
  125MOL   C10327631   0.154   1.595   0.373  0.0018  0.8074 -0.9238
  125MOL   O10427632   0.221   1.527   0.453  0.0621 -0.0922 -0.3066
  125MOL   C10527633   0.004   1.562   0.350 -0.7170 -0.1808 -0.7145
  125MOL   H10627634   0.327   1.905   0.375 -0.0122  0.2635  1.5553
  125MOL   H10727635   0.371   1.762   0.451 -0.5459  0.7358  2.5739
  125MOL   H10827636   0.143   1.783   0.250  0.5138  0.6209  1.0767
  125MOL   H10927637   7.807   1.652   0.382 -1.3254 -0.8888  0.2515
  125MOL   H11027638   7.838   1.555   0.244 -1.8261  1.1075 -0.5805
  125MOL   H11127639   7.835   1.464   0.387  1.2857 -1.2844 -2.1100
  125MOL   C11227640   0.330   1.673   0.203  0.2278 -0.0232  0.0286
  125MOL   C11327641   0.370   1.773   0.093 -0.3599 -0.0537  0.9348
  125MOL   C11427642   0.261   1.799   7.852  0.1122 -0.2857  0.1817
  125MOL   O11527643   0.233   1.720   7.761 -0.2074 -0.6355  0.4350
  125MOL   C11627644   0.199   1.939   7.855  0.0844 -0.1684  0.3147
  125MOL   H11727645   0.290   1.586   0.150 -0.4830 -0.2183  0.8595
  125MOL   H11827646   0.419   1.643   0.258  1.2309 -0.2934 -1.7139
  125MOL   H11927647   0.383   1.875   0.131  0.4842  0.4268 -0.5989
  125MOL   H12027648   0.233   2.002   7.773  0.4467  0.8345  1.2325
  125MOL   H12127649   0.091   1.926   7.848  0.3421 -1.9189 -0.9444
  125MOL   H12227650   0.232   1.983   0.091  1.3632  1.4440 -0.8671
  125MOL   C12327651   0.503   1.732   0.034 -0.4923 -0.0572 -0.3548
  125MOL   C12427652   0.574   1.844   7.805  0.0556  0.1983 -0.5042
  125MOL   C12527653   0.667   1.783   7.701 -0.4863  0.6991 -0.5491
  125MOL   O12627654   0.619   1.773   7.590  0.2339 -0.0239 -0.0545
  125MOL   C12727655   0.794   1.705   7.728  0.6197 -0.3741 -0.6840
  125MOL   H12827656   0.482   1.637   7.843 -1.4710 -0.3528  0.6181
  125MOL   H12927657   0.573   1.712   0.115 -2.5661 -2.4586  0.9492
  125MOL   H13027658   0.493   1.882   7.742 -2.1072 -0.2115  1.9530
  125MOL   H13127659   0.859   1.718   7.641  1.2046  0.8378 -0.0857
  125MOL   H13227660   0.786   1.597   7.739 -0.1959 -0.1096  1.6689
  125MOL   H13327661   0.847   1.746   7.815  0.4051 -0.6368 -0.4294
  125MOL   C13427662   0.652   1.956   0.022 -0.4495  0.1173  0.2813
  125MOL   C13527663   0.669   2.085   7.790  0.1097 -0.7073 -0.0493
  125MOL   C13627664   0.540   2.149   7.756 -0.0227  0.1285 -0.5308
  125MOL   O13727665   0.459   2.160   7.852  0.5719  0.0130  0.1959
  125MOL   C13827666   0.516   2.207   7.619 -0.6321 -0.0789  0.3220
  125MOL   H13927667   0.752   1.924   0.050 -0.2474 -0.6031 -1.2207
  125MOL   H14027668   0.592   1.971   0.113  1.6307  0.5156  1.6141
  125MOL   H14127669   0.709   2.054   7.693  0.5389  0.7327 -0.3510
  125MOL   H14227670   0.558   2.141   7.543  1.2937 -1.4286  2.4872
  125MOL   H14327671   0.566   2.303   7.612  0.1382 -0.2908  2.5548
  125MOL   H14427672   0.412   2.229   7.596 -0.3860  1.8420  0.9792
  125MOL   C14527673   0.760   2.178   0.019 -0.4795 -0.4521 -0.5817
  125MOL   C14627674   0.820   2.298   7.793  0.3306  0.1917  0.2650
  125MOL   C14727675   0.879   2.396   0.039  0.5591 -0.2990 -0.3587
  125MOL   O14827676   0.889   2.523   0.011 -0.5846  0.1160 -0.1299
  125MOL   C14927677   0.936   2.345   0.167  0.1051 -0.3231  0.0923
  125MOL   H15027678   0.841   2.127   0.071  1.1825  3.3250  0.7659
  125MOL   H15127679   0.690   2.210   0.097 -0.4928  1.6634 -1.4363
  125MOL   H15227680   0.742   2.355   7.742  2.7532  2.6425 -0.8158
  125MOL   H15327681   1.000   2.257   0.154  1.2011  0.2024  1.8270
  125MOL   H15427682   0.990   2.436   0.192  0.0736 -0.5438  0.9683
  125MOL   H15527683   0.850   2.336   0.233 -0.2035 -0.2659 -0.2976
  125MOL   C15627684   0.916   2.248   7.675  0.2004 -0.2097 -0.2059
  125MOL   C15727685   1.007   2.344   7.611  0.5200  0.3298 -0.4998
  125MOL   C15827686   0.944   2.381   7.473  0.8326 -0.4282  0.2370
  125MOL   O15927687   1.001   2.347   7.368 -0.3204  0.3988 -0.9553
  125MOL   C16027688   0.822   2.475   7.473 -0.0135 -0.5340  0.4058
  125MOL   H16127689   0.979   2.176   7.728 -0.3966 -0.7463 -0.2178
  125MOL   H16227690   0.854   2.190   7.606 -0.6490 -2.0748  2.0453
  125MOL   H16327691   1.022   2.438   7.663 -3.1781  1.8018 -1.9267
  125MOL   H16427692   0.848   2.549   7.398  0.0031 -0.2568  0.6852
  125MOL   H16527693   0.815   2.524   7.571  1.6598  0.0204  0.2652
  125MOL   H16627694   0.731   2.416   7.459 -2.4063  2.6178  1.8074
  125MOL   C16727695   1.150   2.283   7.586 -0.2518  1.1405 -0.3854
  125MOL   C16827696   1.264   2.377   7.568  0.2099  0.1300 -0.2046
  125MOL   C16927697   1.372   2.324   7.475  0.8098 -0.0199  0.1187
  125MOL   O17027698   1.483   2.292   7.523 -0.5740  0.1027 -0.2226
  125MOL   C17127699   1.339   2.279   7.331 -0.7217 -0.8458  0.3591
  125MOL   H17227700   1.179   2.222   7.671  1.3645  0.2525 -1.5597
  125MOL   H17327701   1.134   2.213   7.503  1.4376  0.5778 -0.2447
  125MOL   H17427702   1.216   2.463   7.521 -0.9419  0.3032  1.2369
  125MOL   H17527703   1.252   2.333   7.295 -0.9834 -0.7109  1.1946
  125MOL   H17627704   1.335   2.171   7.318  0.8050 -1.2638  2.8890
  125MOL   H17727705   1.410   2.319   7.258 -0.7932  0.9912  1.2684
  125MOL   C17827706   1.314   2.430   7.709  0.5753  0.4968 -0.0341
  125MOL   C17927707   1.352   2.584   7.690  0.3266 -0.0089  0.3144
  125MOL   C18027708   1.483   2.632   7.762  1.0950 -0.2486 -0.0731
  125MOL   O18127709   1.480   2.722   7.842  0.0378  0.2835 -0.2446
  125MOL   C18227710   1.619   2.572   7.724 -0.4944 -0.5901  0.0110
  125MOL   H18327711   1.242   2.420   7.790 -1.5267  1.0991 -1.7929
  125MOL   H18427712   1.407   2.380   7.736 -0.7223 -1.2638  1.2710
  125MOL   H18527713   1.378   2.590   7.584  0.2916 -0.4331  0.2818
  125MOL   H18627714   1.692   2.650   7.705  0.2758 -0.7944  1.9663
  125MOL   H18727715   1.588   2.519   7.634  1.6685 -0.2191 -0.9767
  125MOL   H18827716   1.657   2.508   7.804  0.0787  0.4883  0.6145
  125MOL   C18927717   1.222   2.667   7.712  0.1870 -0.2433  0.4188
  125MOL   C19027718   1.216   2.800   7.633  0.3687 -0.9154  0.5059
  125MOL   C19127719   1.172   2.790   7.487  0.1360  0.0697  0.1883
  125MOL   O19227720   1.121   2.686   7.440  0.1878 -0.4950  0.2384
  125MOL   C19327721   1.209   2.902   7.392 -0.3316 -0.3023  0.4579
  125MOL   H19427722   1.132   2.608   7.693  0.5180 -0.7551  0.4319
  125MOL   H19527723   1.215   2.698   7.816  1.2077 -0.8479  0.6720
  125MOL   H19627724   1.316   2.843   7.634 -1.1182  2.8021 -0.6281
  125MOL   H19727725   1.203   2.875   7.287  1.6809 -0.3057  0.3232
  125MOL   H19827726   1.149   2.991   7.406  0.0492 -0.2271  1.6483
  125MOL   H19927727   1.314   2.933   7.391 -0.5255  0.3424 -1.4874
  125MOL   C20027728   1.123   2.912   7.706 -0.1702  0.1197 -0.4395
  125MOL   C20127729   1.143   3.064   7.681  0.0288 -0.3500  0.3833
  125MOL   C20227730   1.286   3.104   7.672 -0.0961  0.4811  0.2509
  125MOL   O20327731   1.323   3.149   7.564 -0.2303 -0.3244  0.0806
  125MOL   C20427732   1.384   3.078   7.783 -0.0580  0.1647 -0.0356
  125MOL   H20527733   1.020   2.876   7.702 -0.5875  1.4741 -2.3445
  125MOL   H20627734   1.168   2.910   7.806  1.6154 -0.6961 -1.2461
  125MOL   H20727735   1.105   3.083   7.581 -0.4059  1.4055  0.8703
  125MOL   H20827736   1.370   2.982   7.834  2.9886  1.3368  3.2639
  125MOL   H20927737   1.484   3.072   7.740 -0.5097  0.9221 -1.2131
  125MOL   H21027738   1.384   3.158   7.857  0.3817 -0.2927  0.4644
  125MOL   C21127739   1.058   3.160   7.767 -0.5441 -0.2492 -0.0954
  125MOL   C21227740   0.901   3.171   7.725  0.2942  0.2177 -0.1225
  125MOL   C21327741   0.824   3.275   7.793 -0.2437  0.1909 -0.4682
  125MOL   O21427742   0.880   3.362   0.006  0.3925  0.7419  0.0803
  125MOL   C21527743   0.673   3.272   7.785 -0.3964 -0.0142  0.2313
  125MOL   H21627744   1.078   3.126   0.010  2.0688 -2.9975 -1.4576
  125MOL   H21727745   1.093   3.261   7.747 -0.1311 -0.2369  0.7108
  125MOL   H21827746   0.860   3.070   7.720  0.1671  0.3159 -1.3131
  125MOL   H21927747   0.647   3.375   7.809  1.0258  0.4600 -0.2145
  125MOL   H22027748   0.637   3.248   7.685 -0.0166 -1.2108  0.3834
  125MOL   H22127749   0.631   3.198   7.853  0.9540 -1.2805 -0.2879
  125MOL   H22227750   0.911   3.211   7.624  1.2548  1.8350  0.5830
  126MOL     C127751   5.018   2.467   2.962 -0.3595  1.0399  0.6824
  126MOL     C227752   5.148   2.527   2.912  0.5442  0.3777 -0.3660
  126MOL     C327753   5.123   2.627   2.806 -0.0826  0.5091 -0.0512
  126MOL     O427754   5.173   2.738   2.801 -0.0182  0.2815 -0.4124
  126MOL     C527755   5.031   2.580   2.690  0.1777  0.3787  0.4807
  126MOL     H627756   5.039   2.410   3.053 -1.1544  0.5936  0.5935
  126MOL     H727757   4.990   2.388   2.892 -0.3235  1.0023  0.7107
  126MOL     H827758   5.213   2.445   2.881  1.2100  0.0449  1.8479
  126MOL     H927759   4.995   2.656   2.622  2.0006  0.4362 -0.4448
  126MOL    H1027760   5.088   2.506   2.633 -1.0264 -0.8236  0.7918
  126MOL    H1127761   4.943   2.526   2.726 -0.3499  0.4359 -0.6935
  126MOL    H1227762   4.934   2.535   2.976 -0.9962  0.1365  1.3311
  126MOL    C1327763   5.224   2.597   3.032 -0.7183 -0.4033  0.3111
  126MOL    C1427764   5.376   2.638   3.006 -0.6639  1.0628 -0.0451
  126MOL    C1527765   5.449   2.518   2.947 -0.7139 -0.5713  0.4860
  126MOL    O1627766   5.457   2.415   3.004  0.2604 -0.1021 -0.0208
  126MOL    C1727767   5.528   2.535   2.816  0.5253  0.0158 -0.3630
  126MOL    H1827768   5.172   2.684   3.070 -1.8371 -0.4846 -1.0061
  126MOL    H1927769   5.231   2.536   3.122  0.9865 -1.0469 -0.2354
  126MOL    H2027770   5.379   2.724   2.939 -1.9157  0.6731 -0.6324
  126MOL    H2127771   5.477   2.465   2.749 -0.8657  1.2221 -0.5891
  126MOL    H2227772   5.520   2.636   2.776 -2.3442  0.0242  0.1226
  126MOL    H2327773   5.630   2.497   2.816  0.5768  0.1136  1.4402
  126MOL    C2427774   5.439   2.685   3.147  0.3901  0.1960  0.5941
  126MOL    C2527775   5.586   2.709   3.167  0.1234 -0.4895 -0.1024
  126MOL    C2627776   5.623   2.827   3.075 -0.5063 -0.4963 -0.0539
  126MOL    O2727777   5.556   2.932   3.073  0.2543  0.3375  0.0384
  126MOL    C2827778   5.744   2.825   2.983 -0.3679  0.8562 -0.0827
  126MOL    H2927779   5.393   2.776   3.188 -1.9168 -0.8149  0.3370
  126MOL    H3027780   5.411   2.609   3.220  0.2766  0.8392  1.2324
  126MOL    H3127781   5.626   2.612   3.137  1.1799 -0.3480  0.8152
  126MOL    H3227782   5.819   2.779   3.048  0.1744 -0.1424 -1.4074
  126MOL    H3327783   5.724   2.756   2.901  0.1425 -0.6108  0.9901
  126MOL    H3427784   5.764   2.925   2.945  1.7111  0.4230 -0.1939
  126MOL    C3527785   5.634   2.741   3.308 -0.0160  0.2060  0.2329
  126MOL    C3627786   5.622   2.624   3.408 -0.1621 -0.6871 -0.1844
  126MOL    C3727787   5.689   2.498   3.353 -0.7627  0.2959  0.6919
  126MOL    O3827788   5.813   2.504   3.339  0.2749 -0.0049 -0.0042
  126MOL    C3927789   5.616   2.366   3.319 -0.1903  0.0800  0.6355
  126MOL    H4027790   5.569   2.822   3.341 -0.4134  0.4341 -1.0786
  126MOL    H4127791   5.741   2.762   3.301  0.1058 -0.5869 -0.4201
  126MOL    H4227792   5.516   2.596   3.404  0.2851 -2.7054  1.4850
  126MOL    H4327793   5.510   2.386   3.333 -0.6389 -1.2264 -0.6629
  126MOL    H4427794   5.658   2.289   3.384  0.5774 -1.2440 -1.3365
  126MOL    H4527795   5.634   2.323   3.220 -1.9895  2.0234 -0.5590
  126MOL    C4627796   5.679   2.656   3.545  0.9403 -0.3825 -0.0607
  126MOL    C4727797   5.596   2.638   3.675 -0.5490 -1.3390  0.1454
  126MOL    C4827798   5.570   2.493   3.707  0.3417 -0.7337 -0.4300
  126MOL    O4927799   5.638   2.405   3.656 -0.1418  0.3344 -0.1115
  126MOL    C5027800   5.467   2.452   3.800 -0.1076 -0.4485  0.6629
  126MOL    H5127801   5.720   2.757   3.549  2.3653 -0.9730  0.6592
  126MOL    H5227802   5.765   2.597   3.577  0.0735 -1.0906  1.0291
  126MOL    H5327803   5.495   2.673   3.652 -0.0765  1.2889  1.8438
  126MOL    H5427804   5.403   2.380   3.749 -1.2652 -0.5566  2.2543
  126MOL    H5527805   5.522   2.410   3.884  1.8024  2.3355  0.8842
  126MOL    H5627806   5.417   2.543   3.833  2.3301  0.5584  1.7299
  126MOL    C5727807   5.648   2.717   3.801  0.0651 -0.0789 -0.4774
  126MOL    C5827808   5.623   2.866   3.804 -0.5516 -0.7339  0.2522
  126MOL    C5927809   5.477   2.896   3.817  0.6179 -0.1735 -0.5823
  126MOL    O6027810   5.392   2.808   3.822  0.0579 -0.3323 -0.2416
  126MOL    C6127811   5.439   3.042   3.830 -0.5740 -0.2043 -0.3096
  126MOL    H6227812   5.757   2.704   3.796  0.0011 -0.2263 -1.7257
  126MOL    H6327813   5.616   2.666   3.892  0.3232  1.6647  0.6056
  126MOL    H6427814   5.655   2.906   3.708  0.3294 -1.7683  0.1091
  126MOL    H6527815   5.419   3.085   3.929 -0.0636 -2.7260  0.9181
  126MOL    H6627816   5.531   3.084   3.789  1.2737  0.7759  4.3951
  126MOL    H6727817   5.349   3.062   3.772 -1.5978  0.7442  1.5429
  126MOL    C6827818   5.712   2.944   3.898 -0.0550 -0.5760  0.1619
  126MOL    C6927819   5.712   2.893   4.050  0.5174  0.5088 -0.2106
  126MOL    C7027820   5.578   2.910   4.129  0.2553  0.6439 -0.6491
  126MOL    O7127821   5.548   3.018   4.184  0.3869  0.0676 -0.3100
  126MOL    C7227822   5.503   2.778   4.153  0.4964  1.0341  0.6303
  126MOL    H7327823   5.812   2.933   3.856  0.6706  0.9308  1.4131
  126MOL    H7427824   5.697   3.052   3.896 -2.5197 -0.9210 -0.9136
  126MOL    H7527825   5.739   2.788   4.055  2.4914  1.0404  0.9664
  126MOL    H7627826   5.409   2.804   4.201  1.0666  0.9069  1.8326
  126MOL    H7727827   5.485   2.722   4.061  1.2828  3.4568 -1.0596
  126MOL    H7827828   5.559   2.714   4.221  0.3502 -0.0289 -0.2341
  126MOL    C7927829   5.822   2.977   4.116  0.2629 -0.8457  0.0992
  126MOL    C8027830   5.872   2.913   4.242 -0.4050 -0.0637  0.0106
  126MOL    C8127831   5.939   3.011   4.349 -1.2310  0.3637  0.6691
  126MOL    O8227832   6.065   3.013   4.365  0.4682  0.0498  0.6188
  126MOL    C8327833   5.845   3.072   4.445  0.1528 -0.0670  0.6543
  126MOL    H8427834   5.790   3.079   4.138 -0.2564 -0.7206 -1.2161
  126MOL    H8527835   5.904   2.987   4.046 -0.6630 -2.0565 -1.1778
  126MOL    H8627836   5.785   2.882   4.301  0.2774 -3.1650 -0.5687
  126MOL    H8727837   5.857   3.017   4.539  2.2173  0.7596  0.9047
  126MOL    H8827838   5.747   3.053   4.402  1.3322 -0.9977 -1.7475
  126MOL    H8927839   5.865   3.177   4.467 -0.5561  0.1949  0.0701
  126MOL    C9027840   5.968   2.791   4.208 -0.0528 -0.6968  0.5485
  126MOL    C9127841   5.990   2.702   4.330 -0.3299 -0.2689 -1.5190
  126MOL    C9227842   5.860   2.641   4.386  1.1897 -0.1789  0.0736
  126MOL    O9327843   5.768   2.602   4.313  0.1627  0.3444 -0.3189
  126MOL    C9427844   5.841   2.638   4.536 -0.0756  0.6434  0.0700
  126MOL    H9527845   5.926   2.733   4.126 -1.5744  1.9324 -0.5853
  126MOL    H9627846   6.064   2.827   4.171 -1.5087  0.0149 -2.6621
  126MOL    H9727847   6.038   2.767   4.403 -0.2143 -0.7189 -1.1966
  126MOL    H9827848   5.750   2.687   4.572  0.5452  1.2780  0.8004
  126MOL    H9927849   5.848   2.535   4.572  0.7301 -0.6398 -3.5347
  126MOL   H10027850   5.920   2.696   4.584  1.3155 -0.3436 -0.9898
  126MOL   C10127851   6.093   2.600   4.288  0.1341  0.5459  0.3313
  126MOL   C10227852   6.161   2.524   4.401  0.0701 -0.3442  0.0928
  126MOL   C10327853   6.307   2.576   4.427 -0.2528  0.6909 -0.6962
  126MOL   O10427854   6.402   2.538   4.359  0.0171  0.3954 -0.0801
  126MOL   C10527855   6.324   2.687   4.528 -0.3845  0.0737 -0.0531
  126MOL   H10627856   6.044   2.525   4.226  1.6844 -0.5458  0.3950
  126MOL   H10727857   6.174   2.650   4.235 -0.2591 -0.5275 -1.3142
  126MOL   H10827858   6.095   2.528   4.487  1.8534  1.7747  1.4205
  126MOL   H10927859   6.377   2.637   4.609 -1.8317  0.1491  0.9481
  126MOL   H11027860   6.398   2.755   4.488  0.0959 -1.1088 -1.2236
  126MOL   H11127861   6.225   2.726   4.553 -0.0822  0.6028  0.3001
  126MOL   C11227862   6.177   2.375   4.353  0.3230  0.3301 -0.0710
  126MOL   C11327863   6.270   2.286   4.458  0.4087  0.5303  0.2575
  126MOL   C11427864   6.340   2.180   4.378 -0.3168  0.3572 -0.4453
  126MOL   O11527865   6.330   2.061   4.411 -0.4271 -0.4002  0.1385
  126MOL   C11627866   6.425   2.217   4.262  0.5457  0.6143 -0.0803
  126MOL   H11727867   6.223   2.374   4.254 -0.3857 -0.3975 -0.3883
  126MOL   H11827868   6.080   2.328   4.341  1.0947 -1.1397 -0.6106
  126MOL   H11927869   6.346   2.348   4.507 -1.4795  4.2991 -1.3113
  126MOL   H12027870   6.368   2.198   4.171 -0.0096  1.0245  0.1769
  126MOL   H12127871   6.451   2.321   4.280  0.2906  0.5707  0.5548
  126MOL   H12227872   6.516   2.158   4.274  1.3456  2.1355  1.6542
  126MOL   C12327873   6.165   2.235   4.567  0.2774  0.8883 -0.0197
  126MOL   C12427874   6.212   2.209   4.711  0.6507  0.0248 -0.9171
  126MOL   C12527875   6.221   2.346   4.787 -0.2998 -0.0852  0.2057
  126MOL   O12627876   6.325   2.411   4.778  0.1594 -0.3643 -0.1241
  126MOL   C12727877   6.095   2.398   4.854 -0.5039 -0.2237 -0.3632
  126MOL   H12827878   6.115   2.147   4.527 -1.0584  0.4819  2.4947
  126MOL   H12927879   6.084   2.308   4.565  0.0285  0.6018 -1.8562
  126MOL   H13027880   6.128   2.159   4.760  0.1553  0.9437 -0.8168
  126MOL   H13127881   6.099   2.387   4.962 -0.9910 -0.9096 -0.4157
  126MOL   H13227882   6.008   2.355   4.806  0.3463 -1.7348 -0.5882
  126MOL   H13327883   6.096   2.504   4.828  1.4241 -0.1605 -0.1338
  126MOL   C13427884   6.334   2.118   4.714  0.3135 -0.4089  0.1154
  126MOL   C13527885   6.385   2.093   4.862 -0.8474 -0.2181  0.2290
  126MOL   C13627886   6.276   2.043   4.960  0.5517 -0.5007  0.2562
  126MOL   O13727887   6.261   2.097   5.067  0.3679  0.9497 -0.2569
  126MOL   C13827888   6.221   1.904   4.929  0.5327  0.4522  0.8040
  126MOL   H13927889   6.418   2.151   4.653  0.8350 -2.1850 -0.1464
  126MOL   H14027890   6.303   2.027   4.663  0.9412  0.5402 -1.9906
  126MOL   H14127891   6.408   2.194   4.897 -0.3937 -0.8771  1.8977
  126MOL   H14227892   6.182   1.858   5.020  1.1484 -1.4773  0.0998
  126MOL   H14327893   6.291   1.828   4.894 -1.0335 -0.2239 -0.9417
  126MOL   H14427894   6.153   1.916   4.844  0.9013  1.7067  0.6656
  126MOL   C14527895   6.513   2.007   4.871 -0.1487  0.2001 -0.5785
  126MOL   C14627896   6.592   2.038   5.006  0.1086 -0.4575  0.7950
  126MOL   C14727897   6.716   1.940   5.023 -0.0032  0.1542  0.8282
  126MOL   O14827898   6.781   1.898   4.931  0.9787 -0.2345 -0.1442
  126MOL   C14927899   6.772   1.928   5.164 -0.1652 -0.1758  0.3465
  126MOL   H15027900   6.591   2.025   4.797 -0.7256 -1.8793 -1.7376
  126MOL   H15127901   6.491   1.901   4.857  2.0147 -0.2576 -0.7926
  126MOL   H15227902   6.526   2.018   5.091 -0.0360 -3.4336  0.0265
  126MOL   H15327903   6.697   1.959   5.236 -2.1254  0.3254 -1.8710
  126MOL   H15427904   6.785   1.823   5.191  1.0138 -0.3686 -0.8940
  126MOL   H15527905   6.854   1.999   5.174 -2.0305  2.0204  0.4896
  126MOL   C15627906   6.633   2.188   5.029  0.0827  0.1537  0.1988
  126MOL   C15727907   6.562   2.265   5.142 -0.0521 -0.4944 -0.0057
  126MOL   C15827908   6.529   2.409   5.104  0.5684 -0.5976 -0.2628
  126MOL   O15927909   6.616   2.489   5.059  0.0245 -0.1201 -0.1450
  126MOL   C16027910   6.377   2.439   5.094  0.1759  1.0655 -0.0400
  126MOL   H16127911   6.740   2.183   5.047 -0.3003 -1.9293  2.0295
  126MOL   H16227912   6.625   2.241   4.934  1.8183  0.4304  0.1970
  126MOL   H16327913   6.462   2.228   5.164  0.9074 -2.7917  0.6344
  126MOL   H16427914   6.373   2.534   5.040  0.6014 -0.1856 -2.3750
  126MOL   H16527915   6.320   2.440   5.186 -0.0863 -0.4058 -0.1699
  126MOL   H16627916   6.332   2.357   5.037 -0.2114  1.8943 -0.9455
  126MOL   C16727917   6.614   2.265   5.290 -0.5806  0.3238  0.1386
  126MOL   C16827918   6.508   2.281   5.396 -0.5535  0.2696  0.1620
  126MOL   C16927919   6.576   2.308   5.530  0.1975 -0.3533 -0.1689
  126MOL   O17027920   6.623   2.211   5.592  0.0914  0.1909 -0.2954
  126MOL   C17127921   6.590   2.448   5.581  0.7398  0.4724 -0.3680
  126MOL   H17227922   6.671   2.173   5.304 -0.6265  0.2781  0.0217
  126MOL   H17327923   6.690   2.341   5.304  0.1470 -0.2968 -0.4460
  126MOL   H17427924   6.442   2.366   5.381 -1.1137  0.2848  2.4922
  126MOL   H17527925   6.673   2.489   5.524  1.5023  0.8116  0.9671
  126MOL   H17627926   6.627   2.452   5.683 -2.0689  0.5729  0.6996
  126MOL   H17727927   6.495   2.501   5.569 -1.0249 -2.4718  0.0462
  126MOL   C17827928   6.415   2.154   5.396 -0.7873  0.2901  0.0557
  126MOL   C17927929   6.297   2.161   5.488 -0.2492  0.1414 -0.6278
  126MOL   C18027930   6.264   2.023   5.545 -0.2346  0.3339 -0.3420
  126MOL   O18127931   6.157   1.972   5.528 -0.1575 -0.3011  0.4540
  126MOL   C18227932   6.378   1.960   5.625 -0.1216 -0.3751 -0.3869
  126MOL   H18327933   6.374   2.119   5.301  0.2824  1.0424 -0.6927
  126MOL   H18427934   6.482   2.069   5.410 -1.4631 -0.6700 -2.2314
  126MOL   H18527935   6.325   2.215   5.578 -0.4577 -2.6879  1.1976
  126MOL   H18627936   6.438   1.907   5.551 -0.5726 -1.1944 -0.1679
  126MOL   H18727937   6.330   1.893   5.697 -0.8100  0.5988  0.0763
  126MOL   H18827938   6.429   2.037   5.683 -0.3410  0.5461 -1.4021
  126MOL   C18927939   6.177   2.230   5.411 -0.7235 -0.2706  0.1446
  126MOL   C19027940   6.060   2.281   5.498 -0.2427 -0.4030  0.0915
  126MOL   C19127941   6.109   2.365   5.617  0.1727  0.0752  0.0321
  126MOL   O19227942   6.091   2.334   5.736  0.5434  0.7330 -0.2072
  126MOL   C19327943   6.177   2.492   5.577  0.3915 -0.3159 -0.1550
  126MOL   H19427944   6.209   2.313   5.348 -2.0083  0.3799  0.3291
  126MOL   H19527945   6.142   2.161   5.334 -2.5046  0.1401  0.5618
  126MOL   H19627946   6.017   2.186   5.529 -0.1408 -0.7626 -0.8690
  126MOL   H19727947   6.245   2.532   5.653  0.9923  0.3053 -1.0102
  126MOL   H19827948   6.235   2.471   5.487 -0.5540  0.3226 -0.9132
  126MOL   H19927949   6.104   2.568   5.551  0.9786  0.5447  0.6465
  126MOL   C20027950   5.951   2.361   5.427 -0.3914 -0.1052  0.9031
  126MOL   C20127951   5.870   2.283   5.320 -0.4815  0.2400  0.3844
  126MOL   C20227952   5.927   2.272   5.177 -0.0631  0.1473 -0.3423
  126MOL   O20327953   5.918   2.370   5.104 -0.4978 -0.0532  0.0725
  126MOL   C20427954   5.951   2.138   5.106  0.4890  0.7390  0.1343
  126MOL   H20527955   5.886   2.404   5.502 -1.0098 -0.8951  0.8264
  126MOL   H20627956   5.995   2.441   5.367  0.5391 -2.2349 -1.3697
  126MOL   H20727957   5.867   2.178   5.348  0.7354 -0.6687 -2.6799
  126MOL   H20827958   5.872   2.115   5.035 -1.4058 -1.9378  2.9763
  126MOL   H20927959   6.044   2.149   5.050  0.1023  0.1312 -0.6271
  126MOL   H21027960   5.969   2.054   5.174  1.6940  1.9586  1.3538
  126MOL   C21127961   5.716   2.322   5.320  0.2170  0.1333  0.0769
  126MOL   C21227962   5.651   2.272   5.447  0.5334 -0.5329 -0.3584
  126MOL   C21327963   5.649   2.117   5.469  0.6955 -0.6130 -0.2226
  126MOL   O21427964   5.593   2.045   5.382  0.0022  0.5706 -0.2250
  126MOL   C21527965   5.693   2.053   5.603 -0.4244 -0.0474 -0.7488
  126MOL   H21627966   5.709   2.430   5.307 -0.5113  0.0172 -0.5272
  126MOL   H21727967   5.661   2.285   5.234 -1.5087 -0.1637  1.2794
  126MOL   H21827968   5.547   2.302   5.438  1.0636  1.1283 -1.2428
  126MOL   H21927969   5.653   1.952   5.615  2.0854 -0.7133  3.2374
  126MOL   H22027970   5.802   2.042   5.602 -0.2929  0.5731  1.7419
  126MOL   H22127971   5.682   2.122   5.687 -0.7654  0.1542 -0.9618
  126MOL   H22227972   5.696   2.319   5.535 -0.4478 -1.8625  0.8753
  127MOL     C127973   0.506   2.540   4.387  0.6158  0.3090  0.0022
  127MOL     C227974   0.593   2.665   4.395 -0.3193 -0.2792  0.0662
  127MOL     C327975   0.728   2.636   4.460  0.3339 -0.0606 -0.3019
  127MOL     O427976   0.835   2.651   4.408  0.1178 -0.4687  0.4349
  127MOL     C527977   0.723   2.567   4.598  0.4389 -1.0303  0.1182
  127MOL     H627978   0.420   2.582   4.335  0.6613 -0.2005 -0.4895
  127MOL     H727979   0.483   2.515   4.491  0.3696 -0.4850 -0.2430
  127MOL     H827980   0.546   2.744   4.455  2.1111  0.4698  1.0375
  127MOL     H927981   0.754   2.463   4.586 -0.1555 -0.9765 -2.2399
  127MOL    H1027982   0.800   2.605   4.664  0.5432 -1.2674  0.1344
  127MOL    H1127983   0.625   2.582   4.642  1.3312  1.6683  1.2379
  127MOL    H1227984   0.557   2.451   4.351 -1.0487  0.4282 -2.7191
  127MOL    C1327985   0.598   2.735   4.249  0.6207  0.9348  0.0543
  127MOL    C1427986   0.664   2.871   4.229  0.6589 -0.3226 -0.2958
  127MOL    C1527987   0.574   2.976   4.293 -0.2403  0.0676 -0.2178
  127MOL    O1627988   0.449   2.968   4.284 -0.1714 -0.3055 -0.5656
  127MOL    C1727989   0.645   3.103   4.359 -0.7699 -0.0435  0.1253
  127MOL    H1827990   0.646   2.665   4.180 -2.0199 -2.0570  1.1268
  127MOL    H1927991   0.492   2.747   4.225  0.7646  2.2555  0.0711
  127MOL    H2027992   0.762   2.866   4.277  1.1074  0.4925 -1.1125
  127MOL    H2127993   0.753   3.091   4.363 -0.9358 -1.8270 -0.0102
  127MOL    H2227994   0.625   3.194   4.303 -0.7457  0.2977  0.6622
  127MOL    H2327995   0.626   3.134   4.462 -1.7150  0.5434 -0.2181
  127MOL    C2427996   0.673   2.898   4.079  0.3789  0.0643 -0.3131
  127MOL    C2527997   0.808   2.878   4.009 -0.5010  0.3913  0.7956
  127MOL    C2627998   0.822   2.727   3.978  1.0712 -0.2784  0.1400
  127MOL    O2727999   0.759   2.679   3.886  0.3451 -0.8561 -0.0472
  127MOL    C2828000   0.916   2.652   4.067 -0.0793 -0.7921  0.7202
  127MOL    H2928001   0.584   2.862   4.028  0.6536 -0.1072 -0.6780
  127MOL    H3028002   0.659   3.006   4.068  0.6654  0.0888 -0.4610
  127MOL    H3128003   0.871   2.921   4.087  0.3116 -0.6849  0.7347
  127MOL    H3228004   0.860   2.630   4.157 -0.0295  0.0551  0.9635
  127MOL    H3328005   0.948   2.556   4.027  0.6976  0.2252 -1.2009
  127MOL    H3428006   0.999   2.720   4.085  1.5443 -2.0468 -1.7449
  127MOL    C3528007   0.839   2.951   3.874 -0.4901 -0.6501  0.3142
  127MOL    C3628008   0.850   3.104   3.891  0.1570 -0.2668  0.1129
  127MOL    C3728009   0.962   3.156   3.975  0.5157 -0.1572 -0.0968
  127MOL    O3828010   1.078   3.112   3.946 -0.4782  0.2950 -0.2010
  127MOL    C3928011   0.932   3.248   4.090 -0.2500 -0.1089  0.2661
  127MOL    H4028012   0.773   2.921   3.793 -0.2819 -1.0987  0.3077
  127MOL    H4128013   0.934   2.909   3.842 -0.7449  0.0344 -1.3716
  127MOL    H4228014   0.753   3.136   3.930  0.3567  1.5962 -0.8533
  127MOL    H4328015   0.976   3.346   4.072  0.1732 -0.4798 -0.7471
  127MOL    H4428016   0.983   3.204   4.175  2.2579 -1.3770 -1.8273
  127MOL    H4528017   0.825   3.262   4.104 -0.4898  2.9282 -3.9137
  127MOL    C4628018   0.853   3.171   3.753 -0.6292 -0.0258 -0.3079
  127MOL    C4728019   0.824   3.319   3.759 -0.1337 -0.4207  0.2358
  127MOL    C4828020   0.900   3.400   3.648  0.2435  0.5774  0.2846
  127MOL    O4928021   0.846   3.455   3.556 -0.3306 -0.3239  0.1188
  127MOL    C5028022   1.050   3.400   3.648  0.4506 -0.6547 -0.2131
  127MOL    H5128023   0.785   3.120   3.685 -0.9545 -0.8069  0.5919
  127MOL    H5228024   0.949   3.146   3.706 -1.3570 -3.3603 -0.1455
  127MOL    H5328025   0.871   3.373   3.841  0.9791 -0.7872 -0.1419
  127MOL    H5428026   1.089   3.310   3.696 -2.2997 -2.2320 -0.8006
  127MOL    H5528027   1.082   3.394   3.544 -1.1328  2.2857 -0.9377
  127MOL    H5628028   1.083   3.491   3.697  1.4147  0.2731 -2.5100
  127MOL    C5728029   0.670   3.335   3.774 -0.4792 -0.8344 -0.3363
  127MOL    C5828030   0.636   3.448   3.875 -0.6361 -0.7493  0.3848
  127MOL    C5928031   0.593   3.580   3.820  0.1354 -0.3854  0.0532
  127MOL    O6028032   0.475   3.596   3.781  0.5857 -0.2133 -0.2520
  127MOL    C6128033   0.691   3.693   3.803  0.2799 -0.1942 -0.6241
  127MOL    H6228034   0.626   3.240   3.806 -0.3089 -0.4192  1.1881
  127MOL    H6328035   0.612   3.352   3.683  0.8610 -1.2136 -1.2771
  127MOL    H6428036   0.719   3.475   3.940  0.1332 -1.5234 -0.2718
  127MOL    H6528037   0.639   3.771   3.747  0.2783 -1.4275 -2.3936
  127MOL    H6628038   0.727   3.732   3.898 -0.0005 -1.7608  0.1480
  127MOL    H6728039   0.773   3.647   3.747  2.0765  2.5258 -0.2840
  127MOL    C6828040   0.526   3.386   3.972 -0.5043 -0.1988  0.2523
  127MOL    C6928041   0.474   3.459   4.099 -0.5279 -0.4741  0.9452
  127MOL    C7028042   0.581   3.507   4.186 -0.3285 -0.6111 -0.0936
  127MOL    O7128043   0.686   3.440   4.192 -0.0757 -0.3190 -0.1270
  127MOL    C7228044   0.564   3.628   4.273 -0.2633  0.8790 -0.3508
  127MOL    H7328045   0.440   3.360   3.909  0.1683  0.1318 -0.8181
  127MOL    H7428046   0.564   3.289   4.003 -1.2445 -0.5874 -0.0271
  127MOL    H7528047   0.436   3.555   4.063 -0.8044 -0.8345  0.2649
  127MOL    H7628048   0.657   3.684   4.280 -0.6362  1.5168 -0.4428
  127MOL    H7728049   0.497   3.701   4.228 -2.9107 -0.7839  0.7025
  127MOL    H7828050   0.541   3.596   4.375 -0.5943  0.0632 -0.6731
  127MOL    C7928051   0.373   3.369   4.173 -0.9650 -0.2944  0.8404
  127MOL    C8028052   0.226   3.374   4.115 -0.1754  0.0690 -0.8622
  127MOL    C8128053   0.158   3.512   4.127 -0.3063 -0.3248 -0.2322
  127MOL    O8228054   0.108   3.551   4.234 -0.0302 -0.3053 -0.1764
  127MOL    C8328055   0.145   3.596   4.004  0.5548 -0.4371 -0.6858
  127MOL    H8428056   0.366   3.403   4.276  0.4127  2.1041  0.1620
  127MOL    H8528057   0.415   3.270   4.157  0.2334  0.1239  1.3486
  127MOL    H8628058   0.236   3.353   4.008 -2.4471  0.5918 -1.2125
  127MOL    H8728059   0.147   3.701   4.035  1.0510 -0.4220 -0.7729
  127MOL    H8828060   0.051   3.581   3.950  0.5247  2.6517 -1.6199
  127MOL    H8928061   0.225   3.586   3.931  1.9950 -1.5694  1.0251
  127MOL    C9028062   0.138   3.271   4.182  0.0397 -0.9272  0.3088
  127MOL    C9128063   0.046   3.201   4.083  0.3438 -0.2318 -0.4088
  127MOL    C9228064   0.120   3.113   3.978  0.0857  0.3520  0.3413
  127MOL    O9328065   0.190   3.019   4.015 -0.1735 -0.5599  0.0079
  127MOL    C9428066   0.123   3.152   3.827  0.2173 -0.1942 -0.4452
  127MOL    H9528067   0.190   3.192   4.236  0.1238  0.8663  2.9728
  127MOL    H9628068   0.094   3.318   4.270 -0.3659 -1.2905  0.2988
  127MOL    H9728069   7.858   3.278   4.022  1.4244  1.7277  1.1642
  127MOL    H9828070   0.108   3.064   3.766 -0.5144 -0.0628 -0.4602
  127MOL    H9928071   0.057   3.231   3.792  0.8696  0.3383 -0.4838
  127MOL   H10028072   0.221   3.197   3.813  0.3534 -0.5402 -0.6034
  127MOL   C10128073   7.795   3.125   4.165  0.0240  0.2162  0.6521
  127MOL   C10228074   7.689   3.061   4.070  0.2506  0.0976  0.3726
  127MOL   C10328075   7.613   3.163   3.984  0.3415 -0.0646 -0.8325
  127MOL   O10428076   7.586   3.272   4.030  0.2030 -0.2756  0.0879
  127MOL   C10528077   7.581   3.135   3.840  0.0551  0.2129  0.2467
  127MOL   H10628078   7.853   3.052   4.222  0.8043  0.4773  0.2008
  127MOL   H10728079   7.754   3.199   4.233 -1.3788  1.4564 -1.5075
  127MOL   H10828080   7.741   2.983   4.014 -0.4059 -0.7010  0.8664
  127MOL   H10928081   7.525   3.220   3.803  1.4415  1.2589  0.4809
  127MOL   H11028082   7.666   3.116   3.775 -0.3016 -0.2967 -0.0714
  127MOL   H11128083   7.514   3.050   3.831 -1.8703  1.7609 -0.2989
  127MOL   C11228084   7.594   2.996   4.167  0.3709  0.0834 -0.0876
  127MOL   C11328085   7.462   2.938   4.108  0.0761 -0.2184  0.3059
  127MOL   C11428086   7.346   2.949   4.205 -0.4933 -0.0544 -0.3369
  127MOL   O11528087   7.318   2.848   4.275  0.0799 -0.0993  0.1022
  127MOL   C11628088   7.284   3.088   4.236 -0.4990 -0.5084 -0.3114
  127MOL   H11728089   7.560   3.065   4.244  1.5795 -0.7644  1.2286
  127MOL   H11828090   7.647   2.918   4.222  0.1427  0.5048  0.7440
  127MOL   H11928091   7.426   3.000   4.026  0.5526 -0.6238 -0.2151
  127MOL   H12028092   7.211   3.075   4.315 -0.2202 -2.7913 -0.3822
  127MOL   H12128093   7.346   3.176   4.252 -1.6168  0.1516  0.4577
  127MOL   H12228094   7.235   3.102   4.139  0.3854  0.1862 -0.6642
  127MOL   C12328095   7.489   2.793   4.059 -0.4609 -0.1755 -0.2069
  127MOL   C12428096   7.373   2.725   3.987  0.2390 -0.1617  0.2578
  127MOL   C12528097   7.386   2.569   3.981 -0.1918  0.5694 -0.4318
  127MOL   O12628098   7.427   2.502   3.880 -0.2182  0.0860 -0.0408
  127MOL   C12728099   7.361   2.501   4.113  0.0373  0.2547  0.0441
  127MOL   H12828100   7.536   2.730   4.134 -1.5958 -1.4224 -0.5175
  127MOL   H12928101   7.574   2.814   3.995  2.0255 -0.2241  2.9814
  127MOL   H13028102   7.280   2.728   4.045  0.1152  1.2669 -0.0139
  127MOL   H13128103   7.384   2.571   4.193 -1.8559  0.6191  0.2905
  127MOL   H13228104   7.419   2.410   4.131 -1.1144 -0.3142  0.8961
  127MOL   H13328105   7.258   2.467   4.125  1.4011 -3.9971  0.7044
  127MOL   C13428106   7.352   2.799   3.853 -0.8005  0.5645 -0.0881
  127MOL   C13528107   7.236   2.742   3.767 -1.0832 -0.3921  0.1040
  127MOL   C13628108   7.100   2.742   3.837  0.3526 -0.2178  0.1610
  127MOL   O13728109   7.075   2.831   3.919  0.3829  0.3645  0.2818
  127MOL   C13828110   7.003   2.625   3.827  0.2441  0.0582 -0.1618
  127MOL   H13928111   7.438   2.798   3.786 -0.5885  0.0593  0.1945
  127MOL   H14028112   7.323   2.904   3.852  0.3570  0.8957 -2.1971
  127MOL   H14128113   7.268   2.639   3.753  1.4602  0.2648  0.7494
  127MOL   H14228114   7.051   2.541   3.777  1.8546 -0.5789  2.3897
  127MOL   H14328115   6.911   2.648   3.772 -0.0393 -0.5362  0.0650
  127MOL   H14428116   6.976   2.590   3.926  0.6741  2.0633  0.6850
  127MOL   C14528117   7.227   2.801   3.624 -0.2763  0.1640  1.0932
  127MOL   C14628118   7.121   2.747   3.533 -0.5069  0.6775  0.1167
  127MOL   C14728119   7.112   2.837   3.406 -0.5409 -0.5521 -0.6986
  127MOL   O14828120   7.009   2.901   3.383 -0.5376  0.0364  1.0262
  127MOL   C14928121   7.228   2.858   3.315  0.4913 -0.5651 -0.6434
  127MOL   H15028122   7.326   2.782   3.582 -1.1800 -0.6553 -0.7369
  127MOL   H15128123   7.212   2.909   3.627 -2.1618 -0.0413  0.1079
  127MOL   H15228124   7.029   2.754   3.591 -0.9842 -0.1288 -0.5351
  127MOL   H15328125   7.199   2.922   3.232 -0.2266  0.3025  0.2675
  127MOL   H15428126   7.299   2.920   3.371 -0.1001 -0.0719 -0.4334
  127MOL   H15528127   7.261   2.760   3.282 -0.6445 -1.7418  1.6107
  127MOL   C15628128   7.128   2.599   3.498 -0.0787 -0.2764 -0.2984
  127MOL   C15728129   7.036   2.539   3.398 -0.1488  0.8705 -0.1082
  127MOL   C15828130   6.886   2.558   3.430  0.7566 -0.0292 -0.7979
  127MOL   O15928131   6.833   2.508   3.537  0.3182  0.3809  0.8529
  127MOL   C16028132   6.799   2.634   3.334  0.1660 -0.8602 -0.2744
  127MOL   H16128133   7.221   2.577   3.445 -1.0543 -0.6865 -1.8859
  127MOL   H16228134   7.138   2.532   3.584  1.1605 -0.9114 -0.9282
  127MOL   H16328135   7.065   2.591   3.306  0.2832 -0.8361 -0.9501
  127MOL   H16428136   6.830   2.738   3.345  0.9183 -0.9566 -1.4468
  127MOL   H16528137   6.692   2.633   3.358 -0.1127  2.3102 -1.1539
  127MOL   H16628138   6.805   2.602   3.230 -1.8523 -0.5445 -0.5222
  127MOL   C16728139   7.063   2.383   3.378 -0.2387 -0.3906  0.4950
  127MOL   C16828140   7.011   2.328   3.245  0.3368  0.0594 -0.3263
  127MOL   C16928141   6.981   2.173   3.256  0.2786 -0.1375  0.1285
  127MOL   O17028142   7.083   2.101   3.256  0.4918 -0.0567 -0.3384
  127MOL   C17128143   6.838   2.121   3.300  0.2503  0.3434 -0.0650
  127MOL   H17228144   7.169   2.360   3.392 -0.0967 -0.3103 -0.4270
  127MOL   H17328145   7.028   2.326   3.464  2.0942 -0.4308  1.4630
  127MOL   H17428146   6.918   2.384   3.233 -1.3766 -2.7670 -0.7672
  127MOL   H17528147   6.807   2.168   3.394 -3.2448 -2.6605  0.3833
  127MOL   H17628148   6.835   2.012   3.304 -0.7962  0.4004  0.7537
  127MOL   H17728149   6.763   2.165   3.235 -1.8076  0.4382  2.3178
  127MOL   C17828150   7.126   2.371   3.149 -0.0845 -0.2754 -1.0782
  127MOL   C17928151   7.096   2.351   2.993  0.1931 -0.4799  0.3167
  127MOL   C18028152   7.226   2.360   2.914  0.6400  0.5032 -0.3476
  127MOL   O18128153   7.331   2.329   2.969 -0.3208  0.4114  0.2267
  127MOL   C18228154   7.220   2.373   2.764  0.0473  0.2048  0.4886
  127MOL   H18328155   7.151   2.476   3.161 -0.1400 -0.4662  1.0173
  127MOL   H18428156   7.218   2.321   3.179  0.8522  2.2689  0.4816
  127MOL   H18528157   7.059   2.249   2.983  0.0023 -0.4700  0.9556
  127MOL   H18628158   7.314   2.406   2.719 -0.6105 -0.8086 -1.7549
  127MOL   H18728159   7.138   2.436   2.731 -1.0094 -1.4662 -0.1571
  127MOL   H18828160   7.212   2.273   2.719 -1.3871  0.4688  0.1467
  127MOL   C18928161   6.988   2.448   2.945  0.6199 -0.2697 -0.0118
  127MOL   C19028162   6.880   2.389   2.847  0.3828  0.5571  0.3796
  127MOL   C19128163   6.797   2.284   2.914  0.5802 -0.1028 -0.7923
  127MOL   O19228164   6.725   2.316   3.009  0.0654  0.5435 -0.1572
  127MOL   C19328165   6.810   2.143   2.858 -0.0881  0.5835 -0.4993
  127MOL   H19428166   6.937   2.492   3.030 -1.5807  0.5078 -1.6777
  127MOL   H19528167   7.032   2.531   2.890  0.2418  0.0082  0.1079
  127MOL   H19628168   6.926   2.336   2.763  0.3718  0.9189  0.1444
  127MOL   H19728169   6.905   2.112   2.816  0.5700 -0.1139  1.4417
  127MOL   H19828170   6.803   2.069   2.938 -3.3691  0.9540 -0.3769
  127MOL   H19928171   6.747   2.130   2.770 -0.2696 -2.4157  0.0067
  127MOL   C20028172   6.799   2.492   2.767 -0.2018 -0.4544  0.7739
  127MOL   C20128173   6.762   2.622   2.848  0.3473  0.1257 -0.6988
  127MOL   C20228174   6.614   2.660   2.842 -0.2787  0.0549  0.3250
  127MOL   O20328175   6.569   2.744   2.762  0.0393  0.4154  0.4061
  127MOL   C20428176   6.518   2.581   2.934 -0.1219  0.0222 -0.0639
  127MOL   H20528177   6.863   2.525   2.685 -0.9543  2.5519  1.3480
  127MOL   H20628178   6.709   2.444   2.728  0.0962 -0.8271  0.5516
  127MOL   H20728179   6.780   2.610   2.955  1.3230  3.1270 -0.4675
  127MOL   H20828180   6.541   2.577   3.040  0.2255 -0.8008 -0.1730
  127MOL   H20928181   6.422   2.627   2.912 -0.2991  0.3935  1.4077
  127MOL   H21028182   6.503   2.480   2.896  0.3234  0.0483 -0.3131
  127MOL   C21128183   6.852   2.740   2.800  0.2199 -0.5564  0.8727
  127MOL   C21228184   6.855   2.880   2.863 -0.0397  0.1399 -0.1886
  127MOL   C21328185   6.911   2.888   3.008  0.2042  0.2605 -0.2823
  127MOL   O21428186   6.928   2.791   3.072  0.1201 -0.3962  0.3794
  127MOL   C21528187   6.959   3.019   3.066 -0.0981  0.0158 -0.4133
  127MOL   H21628188   6.952   2.698   2.788  0.6253  0.9279 -1.2736
  127MOL   H21728189   6.840   2.764   2.694  0.6272 -0.3083  0.8825
  127MOL   H21828190   6.751   2.910   2.854 -0.4034 -1.7925 -2.9215
  127MOL   H21928191   6.994   3.018   3.169  0.5945 -0.6901 -0.6531
  127MOL   H22028192   7.030   3.062   2.996 -1.0417  0.8939 -0.8578
  127MOL   H22128193   6.873   3.085   3.059  1.5088  2.0055 -1.9812
  127MOL   H22228194   6.907   2.958   2.807 -0.7702  0.7103 -0.0785
  128MOL     C128195   7.630   1.201   0.185  0.6208  0.0882  0.0376
  128MOL     C228196   7.658   1.277   0.057  0.0616  0.0178  0.6980
  128MOL     C328197   7.636   1.197   7.781 -0.0961  0.3647  0.1500
  128MOL     O428198   7.734   1.150   7.718 -1.1955 -0.2623  0.2197
  128MOL     C528199   7.493   1.173   7.729  0.5937  0.3114  0.2379
  128MOL     H628200   7.523   1.189   0.203  0.3419  1.1144 -0.9039
  128MOL     H728201   7.653   1.262   0.272  0.8243  0.2160 -0.1073
  128MOL     H828202   7.766   1.291   0.049  0.1497 -1.5752 -1.4061
  128MOL     H928203   7.476   1.077   7.680 -2.0246 -0.1699  1.9922
  128MOL    H1028204   7.427   1.192   7.813  1.4210 -2.3094  1.5297
  128MOL    H1128205   7.474   1.247   7.651  1.0040 -0.6169 -0.7647
  128MOL    H1228206   7.688   1.109   0.189  1.7987  0.7206 -2.0526
  128MOL    C1328207   7.604   1.420   0.050 -0.2818 -0.3763 -0.2670
  128MOL    C1428208   7.642   1.503   7.786 -0.1665  0.4546 -0.8138
  128MOL    C1528209   7.789   1.526   7.773  0.6407 -0.4749 -0.1530
  128MOL    O1628210   0.008   1.533   0.010  0.3458 -0.0162  0.2740
  128MOL    C1728211   7.840   1.537   7.631  0.4154  0.0662 -0.1216
  128MOL    H1828212   7.495   1.411   0.050 -0.2494 -0.8186 -1.1415
  128MOL    H1928213   7.637   1.476   0.137 -0.7595 -1.1681  0.4222
  128MOL    H2028214   7.607   1.454   7.695 -0.4179  0.0077 -0.4815
  128MOL    H2128215   0.030   1.442   7.607 -0.6456 -1.5032  3.6296
  128MOL    H2228216   7.760   1.545   7.558  0.8772 -0.7911 -0.7334
  128MOL    H2328217   0.059   1.614   7.619  0.8750 -0.0540  1.9044
  128MOL    C2428218   7.564   1.637   7.796 -0.3051  0.8342 -0.1820
  128MOL    C2528219   7.470   1.667   7.679  0.6134 -0.4034 -0.5785
  128MOL    C2628220   7.341   1.576   7.681 -0.5251  0.4532 -0.7634
  128MOL    O2728221   7.279   1.557   7.785 -0.0662 -0.3449 -0.0841
  128MOL    C2828222   7.286   1.526   7.551 -0.0303 -0.4186 -0.4593
  128MOL    H2928223   7.516   1.642   0.036  1.7953  0.5177  0.9162
  128MOL    H3028224   7.636   1.718   7.804 -0.9573  1.2196  2.1552
  128MOL    H3128225   7.519   1.623   7.592  3.2838  0.5446  0.4075
  128MOL    H3228226   7.225   1.437   7.564  0.9285 -0.9430  0.5241
  128MOL    H3328227   7.234   1.611   7.506 -1.8794 -0.3672  1.6862
  128MOL    H3428228   7.372   1.504   7.488  1.1742  2.5411  0.0628
  128MOL    C3528229   7.433   1.814   7.680  0.0664  0.1595  0.0806
  128MOL    C3628230   7.546   1.894   7.607  0.2872  0.0610  0.0131
  128MOL    C3728231   7.551   1.872   7.453  0.5048 -0.5392  0.1727
  128MOL    O3828232   7.458   1.806   7.404  0.1578 -0.3977  0.2280
  128MOL    C3928233   7.668   1.916   7.372 -0.0563  0.5258  0.3796
  128MOL    H4028234   7.414   1.852   7.780  0.7467 -0.9017  0.6172
  128MOL    H4128235   7.335   1.835   7.637  0.9191  3.2693 -0.4836
  128MOL    H4228236   7.641   1.862   7.649 -0.4936 -1.7699  0.4725
  128MOL    H4328237   7.755   1.853   7.390 -0.3672 -0.3247 -1.0186
  128MOL    H4428238   7.697   2.016   7.404  0.3329  0.0594  1.5196
  128MOL    H4528239   7.646   1.939   7.268 -0.2725  0.3776  0.3929
  128MOL    C4628240   7.532   2.044   7.638  0.1384  0.0877  0.1970
  128MOL    C4728241   7.397   2.111   7.591 -0.4984  0.5636 -0.4522
  128MOL    C4828242   7.344   2.213   7.698 -0.2280 -0.0182  1.0181
  128MOL    O4928243   7.404   2.251   7.797  0.1355  0.3128 -0.2947
  128MOL    C5028244   7.208   2.270   7.665 -1.2468  0.4377  0.8774
  128MOL    H5128245   7.620   2.104   7.615  1.4081 -1.7174  0.2235
  128MOL    H5228246   7.539   2.050   7.747 -0.1259  0.2709  0.2042
  128MOL    H5328247   7.319   2.035   7.599  0.1712  0.0974  1.9463
  128MOL    H5428248   7.144   2.279   7.753 -2.1746 -0.8641  0.3632
  128MOL    H5528249   7.219   2.361   7.607  0.4950 -0.8439 -0.8878
  128MOL    H5628250   7.148   2.206   7.600  1.8442  1.1646 -2.8486
  128MOL    C5728251   7.411   2.170   7.446 -0.0156  0.2557  0.6575
  128MOL    C5828252   7.471   2.309   7.405  0.2491  0.2490  0.2967
  128MOL    C5928253   7.620   2.326   7.442  0.7833  0.1242  0.7736
  128MOL    O6028254   7.703   2.246   7.407  0.9002 -0.4005 -0.1695
  128MOL    C6128255   7.654   2.435   7.540 -0.1543 -0.4956 -0.0077
  128MOL    H6228256   7.304   2.176   7.429 -0.1676  0.9890  1.8083
  128MOL    H6328257   7.452   2.096   7.378 -1.1289 -1.5954  1.9718
  128MOL    H6428258   7.425   2.390   7.461  0.7189  1.0666 -0.4725
  128MOL    H6528259   7.621   2.403   7.639 -1.4321 -0.5315 -0.4397
  128MOL    H6628260   7.762   2.448   7.552  0.0536 -1.8809 -0.3013
  128MOL    H6728261   7.608   2.526   7.502 -0.5780 -1.0327 -0.7745
  128MOL    C6828262   7.448   2.340   7.256  0.5135  0.5115  0.1063
  128MOL    C6928263   7.484   2.485   7.212  0.2385  0.3909  0.2493
  128MOL    C7028264   7.426   2.601   7.297 -0.1683 -0.5141  0.1798
  128MOL    O7128265   7.502   2.687   7.336 -0.6655 -0.3824 -0.6906
  128MOL    C7228266   7.283   2.624   7.318 -0.3650 -0.2846  0.0818
  128MOL    H7328267   7.513   2.271   7.202  0.9206  0.7552  0.2821
  128MOL    H7428268   7.344   2.321   7.229  0.6022  0.2366 -0.0371
  128MOL    H7528269   7.591   2.488   7.230  0.2493  2.4815  0.0105
  128MOL    H7628270   7.259   2.727   7.291 -1.1869 -0.7291 -0.9252
  128MOL    H7728271   7.230   2.553   7.254  0.1580 -0.5491 -0.0572
  128MOL    H7828272   7.261   2.602   7.423 -0.3485  0.6251  0.2782
  128MOL    C7928273   7.450   2.501   7.058 -0.1673  0.0851 -0.0227
  128MOL    C8028274   7.490   2.637   6.990 -0.1862 -0.9079  1.0577
  128MOL    C8128275   7.455   2.622   6.843  0.2599 -0.2367  0.1367
  128MOL    O8228276   7.542   2.631   6.752 -0.2758  0.2350  0.0495
  128MOL    C8328277   7.304   2.598   6.802 -0.7221 -0.3058 -0.4394
  128MOL    H8428278   7.344   2.476   7.045 -0.1664 -2.0079  3.3132
  128MOL    H8528279   7.505   2.423   7.005 -1.1023  0.0625 -0.9796
  128MOL    H8628280   7.428   2.714   7.036 -0.2429  0.9401 -1.9890
  128MOL    H8728281   7.249   2.620   6.894 -0.2989 -0.5253 -0.1313
  128MOL    H8828282   7.285   2.493   6.783 -0.7383 -0.5207  0.7157
  128MOL    H8928283   7.263   2.662   6.724  0.1057 -0.4316 -0.9738
  128MOL    C9028284   7.632   2.684   7.007 -0.9189  0.2618 -0.0884
  128MOL    C9128285   7.680   2.826   6.970 -0.0878  0.3634  0.1166
  128MOL    C9228286   7.596   2.933   7.039  0.4160 -0.1429 -0.3983
  128MOL    O9328287   7.513   2.991   6.967  0.6475  0.1240  0.3514
  128MOL    C9428288   7.628   2.967   7.182 -0.3966  0.0876 -0.3225
  128MOL    H9528289   7.659   2.679   7.113 -0.8763 -1.0694 -0.1540
  128MOL    H9628290   7.700   2.614   6.959  0.3312  1.1989  0.2949
  128MOL    H9728291   7.649   2.838   6.866 -1.8475 -0.6671  0.5097
  128MOL    H9828292   7.654   2.876   7.235  0.5448  1.0990  0.9863
  128MOL    H9928293   7.705   3.045   7.188  0.9143 -1.2880  1.3162
  128MOL   H10028294   7.542   3.005   7.236  0.0377 -0.1242  0.5191
  128MOL   C10128295   7.832   2.840   6.991 -0.6558 -0.1017 -0.8286
  128MOL   C10228296   0.038   2.972   6.923  0.2111 -0.2016  0.1133
  128MOL   C10328297   0.023   2.966   6.775  0.3412 -0.4811 -0.1524
  128MOL   O10428298   0.093   2.891   6.707  0.2363  0.1560  0.2778
  128MOL   C10528299   7.778   3.052   6.711 -1.1067 -1.0360  0.1223
  128MOL   H10628300   7.857   2.836   7.097 -0.5011 -1.1740 -0.9010
  128MOL   H10728301   0.025   2.753   6.949 -0.0232 -0.1570  0.0411
  128MOL   H10828302   7.841   3.062   6.951  1.2773  0.8594 -1.1380
  128MOL   H10928303   7.780   3.145   6.767  1.7786 -1.5543  0.9279
  128MOL   H11028304   7.811   3.084   6.612 -1.3582  2.2623  1.0594
  128MOL   H11128305   7.679   3.008   6.728 -1.7460  0.2135 -0.3174
  128MOL   C11228306   0.182   3.004   6.971 -0.2918 -0.2943 -0.2505
  128MOL   C11328307   0.201   3.073   7.105  0.9316  0.4040 -0.3227
  128MOL   C11428308   0.123   3.203   7.100  0.6321  0.2460  0.0719
  128MOL   O11528309   0.133   3.284   7.009  0.6855 -0.3433  0.6551
  128MOL   C11628310   0.050   3.233   7.228  0.1281 -0.0321  0.3711
  128MOL   H11728311   0.238   3.062   6.897  1.0321  0.2983  1.1738
  128MOL   H11828312   0.230   2.907   6.987  1.0975  0.3659 -0.2729
  128MOL   H11928313   0.164   2.999   7.176 -2.0491  0.5948 -1.5770
  128MOL   H12028314   0.031   3.149   7.295 -1.3267 -2.0425 -2.4595
  128MOL   H12128315   0.095   3.315   7.285 -0.8007  1.1032 -0.5011
  128MOL   H12228316   7.803   3.258   7.209 -0.4025  0.1345  3.2782
  128MOL   C12328317   0.350   3.102   7.114 -0.5976 -0.1423 -0.1422
  128MOL   C12428318   0.451   2.993   7.153  0.1588  0.2707 -0.4315
  128MOL   C12528319   0.388   2.898   7.258 -0.3023 -0.4820  0.0774
  128MOL   O12628320   0.346   2.943   7.364 -1.0256 -0.1773  0.5559
  128MOL   C12728321   0.374   2.753   7.230  0.3782 -0.2512 -0.4223
  128MOL   H12828322   0.362   3.191   7.177 -1.0553  0.6114 -1.1040
  128MOL   H12928323   0.391   3.141   7.021 -1.3931 -0.4975 -0.6407
  128MOL   H13028324   0.470   2.933   7.064 -0.6273 -0.3034 -0.2259
  128MOL   H13128325   0.282   2.706   7.264  0.0304 -1.1667 -2.5830
  128MOL   H13228326   0.452   2.711   7.294 -0.3774  0.8669  1.2916
  128MOL   H13328327   0.392   2.729   7.126  0.4037 -3.4226  0.2554
  128MOL   C13428328   0.591   3.051   7.201 -0.3670  0.3463  0.5709
  128MOL   C13528329   0.706   2.951   7.250 -0.4777 -0.8428 -0.3294
  128MOL   C13628330   0.699   2.906   7.398  0.1099 -0.2372  0.3699
  128MOL   O13728331   0.613   2.831   7.437  0.2357  0.0146  0.6135
  128MOL   C13828332   0.823   2.932   7.475  0.7755 -0.5617  0.8763
  128MOL   H13928333   0.570   3.120   7.283  1.0521  2.0670 -0.5069
  128MOL   H14028334   0.629   3.106   7.116 -1.0148 -1.9473 -1.2435
  128MOL   H14128335   0.792   3.017   7.251 -2.1574  1.3644  1.1372
  128MOL   H14228336   0.871   2.835   7.478 -2.2288 -2.0841  2.2825
  128MOL   H14328337   0.801   2.960   7.579 -2.8622 -2.0699  0.5849
  128MOL   H14428338   0.900   2.995   7.431 -1.1920  1.6083  0.3941
  128MOL   C14528339   0.739   2.826   7.158 -0.3847 -0.4982 -0.1643
  128MOL   C14628340   0.786   2.853   7.014  0.4312  0.1251 -0.5560
  128MOL   C14728341   0.922   2.934   7.017 -0.9005 -0.5366 -0.2981
  128MOL   O14828342   1.012   2.919   7.101 -0.2874  0.3070  0.4456
  128MOL   C14928343   0.943   3.039   6.913 -0.1870 -0.0669  0.5094
  128MOL   H15028344   0.642   2.776   7.150 -0.9603  0.8995 -2.5301
  128MOL   H15128345   0.811   2.761   7.206  0.2984  1.0190  0.9043
  128MOL   H15228346   0.714   2.906   6.952  1.6755  1.8478 -0.5621
  128MOL   H15328347   0.985   3.128   6.960 -0.2082  0.1383  0.1479
  128MOL   H15428348   1.026   3.000   6.853 -0.9148 -2.8722  1.2932
  128MOL   H15528349   0.850   3.064   6.862 -1.3870 -1.6260  1.8823
  128MOL   C15628350   0.816   2.728   6.929 -0.4414  0.6184  0.1138
  128MOL   C15728351   0.855   2.748   6.781 -0.0474 -0.0474  0.5343
  128MOL   C15828352   0.742   2.803   6.695  0.2830 -0.0571 -0.7773
  128MOL   O15928353   0.622   2.800   6.731 -0.3535  0.0918  0.3095
  128MOL   C16028354   0.788   2.880   6.569 -0.2835  0.3196  0.1936
  128MOL   H16128355   0.900   2.677   6.977 -1.1674 -0.8745 -0.1716
  128MOL   H16228356   0.726   2.668   6.930  1.0131 -1.6131  1.6403
  128MOL   H16328357   0.939   2.817   6.779 -0.8845  0.9477 -1.4576
  128MOL   H16428358   0.775   2.988   6.577  2.2369  0.5866  1.2970
  128MOL   H16528359   0.726   2.858   6.482 -0.5430 -0.4010  0.5539
  128MOL   H16628360   0.895   2.869   6.555  0.0804  0.5624  2.6139
  128MOL   C16728361   0.905   2.620   6.718 -0.2851 -0.3206  0.7968
  128MOL   C16828362   1.056   2.595   6.759 -0.1418  0.2329 -0.2121
  128MOL   C16928363   1.146   2.641   6.643  0.4878  0.0551 -0.5476
  128MOL   O17028364   1.169   2.566   6.547 -0.2275 -0.2582 -0.1788
  128MOL   C17128365   1.192   2.788   6.642  0.6368  0.6316 -0.2979
  128MOL   H17228366   0.837   2.542   6.750 -1.3615  1.1961  2.3120
  128MOL   H17328367   0.893   2.616   6.610 -0.7922 -1.8284  0.9031
  128MOL   H17428368   1.073   2.658   6.846 -0.0764 -0.1627  0.0649
  128MOL   H17528369   1.274   2.793   6.570  1.1955  1.1176  0.3628
  128MOL   H17628370   1.242   2.810   6.736 -0.6749  0.6051  0.4177
  128MOL   H17728371   1.105   2.846   6.609 -0.6829 -2.0776 -1.7456
  128MOL   C17828372   1.089   2.446   6.799  0.2985 -0.7732 -0.0983
  128MOL   C17928373   1.031   2.393   6.932 -0.3668 -0.6157 -0.6493
  128MOL   C18028374   1.130   2.431   7.039 -0.8190 -0.3589  0.0456
  128MOL   O18128375   1.236   2.368   7.052 -0.4381  0.0779 -0.1083
  128MOL   C18228376   1.095   2.548   7.133  0.1593  0.0730  0.0551
  128MOL   H18328377   1.049   2.383   6.720 -4.4090  1.0434  0.6292
  128MOL   H18428378   1.196   2.431   6.792  0.4649  0.3685 -0.1321
  128MOL   H18528379   0.940   2.448   6.955  0.7851  0.6630  0.9570
  128MOL   H18628380   1.159   2.527   7.219 -0.1335 -0.1191  0.2279
  128MOL   H18728381   0.994   2.533   7.172  0.8841 -0.9810  1.5665
  128MOL   H18828382   1.118   2.648   7.097  1.3005 -0.9425 -2.1343
  128MOL   C18928383   1.009   2.237   6.918  0.4590 -0.3057  0.7196
  128MOL   C19028384   0.942   2.173   7.037 -0.7916 -0.5977 -0.8539
  128MOL   C19128385   0.801   2.229   7.055  0.4492  0.5549  0.3038
  128MOL   O19228386   0.730   2.245   6.957 -0.3297  0.1040 -0.4972
  128MOL   C19328387   0.754   2.287   7.188  0.3042 -0.0755 -0.3592
  128MOL   H19428388   0.951   2.216   6.828  2.6121 -3.2220 -0.0617
  128MOL   H19528389   1.099   2.181   6.894 -0.4145 -0.6847 -1.9516
  128MOL   H19628390   0.999   2.195   7.128 -0.2559  0.5277 -1.4528
  128MOL   H19728391   0.755   2.212   7.267 -0.9363  0.9616  0.6608
  128MOL   H19828392   0.819   2.370   7.215  2.2589 -2.1453  1.4453
  128MOL   H19928393   0.656   2.334   7.179  0.1962 -0.2827 -0.2590
  128MOL   C20028394   0.933   2.021   7.037  0.3614  1.0931 -0.3865
  128MOL   C20128395   0.984   1.939   7.153 -0.7764 -0.3278 -0.8900
  128MOL   C20228396   0.883   1.940   7.265  0.4289 -1.6945  0.0102
  128MOL   O20328397   0.882   2.031   7.349 -0.1048  0.3172  0.3166
  128MOL   C20428398   0.772   1.833   7.262  0.5545 -0.2148  0.0352
  128MOL   H20528399   0.830   1.993   7.013  1.1581 -0.3156 -2.3554
  128MOL   H20628400   0.974   1.974   6.947 -0.8374 -0.8414  0.0486
  128MOL   H20728401   0.991   1.843   7.102 -0.2432 -0.3620 -0.7566
  128MOL   H20828402   0.723   1.809   7.356 -2.0913  1.7673 -0.7836
  128MOL   H20928403   0.691   1.864   7.196 -1.1776 -1.5091  1.5099
  128MOL   H21028404   0.821   1.742   7.225 -2.8584 -1.5756 -1.3945
  128MOL   C21128405   1.126   1.980   7.189  0.2709 -1.0175  0.0514
  128MOL   C21228406   1.226   1.980   7.074  0.1139  0.1577  0.4255
  128MOL   C21328407   1.371   1.951   7.104  0.5134  0.1505 -0.5826
  128MOL   O21428408   1.439   2.040   7.161  0.1903 -0.1013  0.2686
  128MOL   C21528409   1.430   1.818   7.059  0.2410 -0.9027  0.4881
  128MOL   H21628410   1.139   2.071   7.248  0.3209 -0.1625 -1.2613
  128MOL   H21728411   1.158   1.902   7.259 -3.0228 -1.1225  1.5358
  128MOL   H21828412   1.231   2.075   7.021  0.7582 -0.2886 -0.3292
  128MOL   H21928413   1.351   1.744   7.042 -0.1265 -0.3873 -0.0860
  128MOL   H22028414   1.505   1.828   6.981  1.0926 -1.5441  1.2206
  128MOL   H22128415   1.476   1.768   7.144 -3.3884 -1.5154  2.1852
  128MOL   H22228416   1.197   1.909   6.996  2.5035 -2.3689  1.7222
  129MOL     C128417   1.757   0.496   3.418  0.2658 -0.1193  0.4860
  129MOL     C228418   1.687   0.609   3.501  0.3477 -0.1013 -0.0071
  129MOL     C328419   1.764   0.732   3.479  0.1945  0.0611  0.4059
  129MOL     O428420   1.769   0.792   3.373 -0.3665 -0.1235  0.1158
  129MOL     C528421   1.831   0.794   3.595  0.7153 -0.0311 -0.0118
  129MOL     H628422   1.787   0.538   3.323 -0.9171  0.4697  0.3599
  129MOL     H728423   1.686   0.416   3.395 -0.4098  0.5969  0.0443
  129MOL     H828424   1.693   0.591   3.608 -0.4947  0.2832  0.1133
  129MOL     H928425   1.859   0.900   3.592  2.1222 -0.3950 -0.3244
  129MOL    H1028426   1.762   0.778   3.678  2.1525 -0.2647  1.1802
  129MOL    H1128427   1.920   0.741   3.631 -0.1166 -0.6438  1.1934
  129MOL    H1228428   1.844   0.457   3.471  0.6475  0.1623  0.0585
  129MOL    C1328429   1.545   0.619   3.453 -0.7858 -0.4379 -0.2432
  129MOL    C1428430   1.457   0.704   3.546 -0.4466 -0.3874 -0.2362
  129MOL    C1528431   1.439   0.643   3.691 -0.3769 -0.3042 -0.3797
  129MOL    O1628432   1.497   0.695   3.791 -0.6192  0.5136  0.1580
  129MOL    C1728433   1.369   0.512   3.707  0.9441  0.0774  0.3825
  129MOL    H1828434   1.538   0.665   3.354  3.2137 -1.1941 -0.9600
  129MOL    H1928435   1.494   0.522   3.450 -0.9266 -0.5212  3.2019
  129MOL    H2028436   1.514   0.792   3.576 -0.1222  0.8835 -4.3160
  129MOL    H2128437   1.302   0.514   3.793  0.8293 -2.3029  0.3843
  129MOL    H2228438   1.315   0.501   3.613 -0.5552  0.5464  1.1828
  129MOL    H2328439   1.430   0.422   3.716  0.0865 -0.7484 -1.6992
  129MOL    C2428440   1.322   0.747   3.485 -0.7613  0.3995  0.0812
  129MOL    C2528441   1.345   0.856   3.368 -0.2162  0.4235  0.4336
  129MOL    C2628442   1.232   0.840   3.264  0.1956  0.3270  0.4631
  129MOL    O2728443   1.118   0.799   3.295 -0.4412  0.2465  0.2182
  129MOL    C2828444   1.267   0.879   3.122 -0.4486 -0.0160  0.1559
  129MOL    H2928445   1.278   0.654   3.448  0.6568 -0.6835  1.0554
  129MOL    H3028446   1.259   0.778   3.568 -2.0548 -2.8189  0.3769
  129MOL    H3128447   1.428   0.836   3.301 -0.2779 -0.0120  0.4880
  129MOL    H3228448   1.204   0.821   3.055  1.5670 -3.2909  1.0043
  129MOL    H3328449   1.236   0.983   3.108 -3.3091 -0.5456  2.1711
  129MOL    H3428450   1.370   0.848   3.109 -0.0842  0.3717  1.9528
  129MOL    C3528451   1.383   0.994   3.421  0.1572 -0.2737 -0.5257
  129MOL    C3628452   1.275   1.044   3.519 -0.2568 -0.0416  0.2587
  129MOL    C3728453   1.352   1.122   3.634 -0.0587  0.2216  0.7289
  129MOL    O3828454   1.367   1.239   3.625 -0.4504 -0.4317 -0.0212
  129MOL    C3928455   1.421   1.050   3.746 -0.3320 -0.1084  0.3016
  129MOL    H4028456   1.395   1.074   3.347 -1.6128 -0.5114 -1.0859
  129MOL    H4128457   1.480   0.976   3.467 -0.1893  1.0104  0.7332
  129MOL    H4228458   1.212   0.971   3.570 -0.4067 -0.5045 -0.5827
  129MOL    H4328459   1.348   1.025   3.823 -1.5391 -3.2519 -1.7521
  129MOL    H4428460   1.499   1.106   3.797 -1.5605  1.2073  0.7547
  129MOL    H4528461   1.473   0.960   3.712  0.8096  0.4581  0.5238
  129MOL    C4628462   1.174   1.146   3.452 -0.6701  0.4790 -0.0565
  129MOL    C4728463   1.065   1.197   3.550  0.5021 -0.2473 -0.1109
  129MOL    C4828464   1.003   1.328   3.501  0.5970  1.3618  0.6351
  129MOL    O4928465   0.903   1.317   3.430  0.2414  0.2382 -0.4537
  129MOL    C5028466   1.066   1.460   3.547  0.1116  0.1451 -0.1818
  129MOL    H5128467   1.130   1.102   3.363  1.9670 -2.1788 -0.1414
  129MOL    H5228468   1.229   1.231   3.412  0.1556  0.2338  0.5223
  129MOL    H5328469   1.113   1.227   3.643 -0.5229 -0.9039  0.6400
  129MOL    H5428470   1.014   1.507   3.630 -0.4865  1.9569 -1.5596
  129MOL    H5528471   1.166   1.432   3.582  0.7041  1.0038 -1.1702
  129MOL    H5628472   1.088   1.525   3.463 -2.0652 -0.9249 -1.6332
  129MOL    C5728473   0.957   1.086   3.588  0.1512  0.2594  0.4712
  129MOL    C5828474   0.971   1.042   3.741 -0.3890  0.0490 -0.0464
  129MOL    C5928475   0.879   1.129   3.829 -0.8367 -0.2334 -0.0239
  129MOL    O6028476   0.779   1.088   3.877  0.3343  0.2090 -0.3192
  129MOL    C6128477   0.925   1.266   3.868 -0.4108  0.3006 -0.4240
  129MOL    H6228478   0.989   1.004   3.524 -0.4567  1.1638 -1.0199
  129MOL    H6328479   0.857   1.117   3.557  0.7217  0.5594 -1.1075
  129MOL    H6428480   1.073   1.055   3.777  0.4508 -1.2115 -1.8604
  129MOL    H6528481   1.029   1.275   3.837 -0.7196  1.8732 -1.0273
  129MOL    H6628482   0.863   1.335   3.810 -1.4530 -0.3234 -0.0769
  129MOL    H6728483   0.910   1.286   3.974 -0.7671  0.4822 -0.5084
  129MOL    C6828484   0.942   0.888   3.752 -0.0627  0.6060 -0.3748
  129MOL    C6928485   0.984   0.813   3.883 -0.3671  0.2041 -0.6652
  129MOL    C7028486   1.136   0.805   3.889  0.2615  0.3260 -0.0890
  129MOL    O7128487   1.206   0.809   3.790  0.1867 -0.0776 -0.1346
  129MOL    C7228488   1.195   0.794   4.026 -0.2005  0.7683  0.3178
  129MOL    H7328489   0.833   0.881   3.741 -0.1062  1.5376 -0.5423
  129MOL    H7428490   0.973   0.834   3.662 -1.8889 -1.1076 -0.0056
  129MOL    H7528491   0.944   0.870   3.967  0.4884 -0.3379  0.1187
  129MOL    H7628492   1.216   0.688   4.039  0.5787  0.6005 -2.0828
  129MOL    H7728493   1.287   0.851   4.029 -0.6224  1.4400  0.6221
  129MOL    H7828494   1.130   0.811   4.113  0.3665  1.7213  0.5589
  129MOL    C7928495   0.927   0.666   3.901 -0.0767  0.4476  0.1654
  129MOL    C8028496   0.981   0.546   3.809 -0.7258 -0.0436 -0.2266
  129MOL    C8128497   0.925   0.560   3.665  0.2227 -0.2018 -0.5474
  129MOL    O8228498   0.811   0.603   3.644 -0.1883 -0.4440  0.2343
  129MOL    C8328499   1.021   0.505   3.550  0.0417  0.0557  0.1192
  129MOL    H8428500   0.821   0.676   3.878 -0.4897 -0.9987  1.3388
  129MOL    H8528501   0.925   0.630   4.004  0.4401  0.3021  0.1274
  129MOL    H8628502   1.089   0.547   3.795 -0.7755 -0.5308 -0.6650
  129MOL    H8728503   1.098   0.582   3.537  0.5233 -0.5490 -0.6863
  129MOL    H8828504   0.979   0.486   3.451  1.6732  0.5887 -0.7146
  129MOL    H8928505   1.059   0.408   3.582 -0.4912 -0.1427  0.1558
  129MOL    C9028506   0.940   0.411   3.868 -0.4573 -0.4739 -0.2674
  129MOL    C9128507   0.987   0.376   4.012  0.3640  0.1660  0.4817
  129MOL    C9228508   0.923   0.234   4.050  0.4588 -0.0421  0.3539
  129MOL    O9328509   0.977   0.125   4.025 -0.8572 -0.2168  0.6020
  129MOL    C9428510   0.777   0.235   4.104  0.2714 -0.5489  0.0218
  129MOL    H9528511   0.833   0.393   3.860 -0.4311  0.1131 -1.9745
  129MOL    H9628512   0.980   0.334   3.801 -0.0481  0.4126 -1.0445
  129MOL    H9728513   0.927   0.439   4.079 -1.5178 -1.1893  0.1072
  129MOL    H9828514   0.768   0.183   4.199  1.5489 -1.3017 -0.2475
  129MOL    H9928515   0.731   0.334   4.101  1.0452 -0.1913 -0.4179
  129MOL   H10028516   0.727   0.165   4.038 -0.9853  1.7406 -1.5394
  129MOL   C10128517   1.140   0.383   4.034  0.0359  0.2415  0.1500
  129MOL   C10228518   1.201   0.357   4.177 -0.5289  0.3213 -0.1713
  129MOL   C10328519   1.149   0.458   4.287 -0.5520 -0.3986  0.2172
  129MOL   O10428520   1.181   0.579   4.283 -0.2379 -0.1498  0.3530
  129MOL   C10528521   1.057   0.404   4.396  0.1734  0.5341 -0.0156
  129MOL   H10628522   1.191   0.327   3.956  1.1381 -0.2221  1.1830
  129MOL   H10728523   1.158   0.485   4.000 -1.4669 -0.3654 -2.6226
  129MOL   H10828524   1.168   0.258   4.206 -2.6757  0.8368 -0.7615
  129MOL   H10928525   1.109   0.340   4.467 -0.5958  0.0394  0.1177
  129MOL   H11028526   1.007   0.486   4.447  1.8800  1.5229  0.0977
  129MOL   H11128527   0.975   0.350   4.347 -0.5362  2.7275 -1.2890
  129MOL   C11228528   1.352   0.359   4.165 -0.5258  0.0983  0.0241
  129MOL   C11328529   1.428   0.245   4.098 -0.4064 -0.4794 -1.0193
  129MOL   C11428530   1.373   0.116   4.147  0.0036 -0.2089  0.4650
  129MOL   O11528531   1.396   0.082   4.265 -0.2545  0.5329  0.5241
  129MOL   C11628532   1.276   0.039   4.058  0.2649  0.0919  0.5643
  129MOL   H11728533   1.391   0.353   4.267  1.1342 -0.5074 -0.6413
  129MOL   H11828534   1.396   0.451   4.126 -0.0126 -0.8071 -1.5373
  129MOL   H11928535   1.402   0.252   3.993  1.4904 -0.1601 -1.4962
  129MOL   H12028536   1.259   0.100   3.969  1.0109 -1.3964 -0.6194
  129MOL   H12128537   1.314   7.799   4.026 -2.5218  0.2351 -3.5779
  129MOL   H12228538   1.180   0.033   4.109  0.2710 -2.3214  0.3553
  129MOL   C12328539   1.578   0.246   4.130  0.8402 -0.4637 -0.3535
  129MOL   C12428540   1.677   0.212   4.009  0.8745 -0.0486 -0.6422
  129MOL   C12528541   1.674   0.324   3.898 -0.3237  0.3595 -0.2158
  129MOL   O12628542   1.621   0.304   3.790  0.2361  0.5575 -0.0345
  129MOL   C12728543   1.734   0.461   3.933  0.4789  0.4151  0.4599
  129MOL   H12828544   1.607   0.194   4.221 -2.0807  1.4562  1.7331
  129MOL   H12928545   1.611   0.344   4.163 -2.2084  0.6359 -0.4438
  129MOL   H13028546   1.781   0.225   4.038  0.9901  0.7776 -1.4126
  129MOL   H13128547   1.784   0.452   4.030 -1.1918 -0.9580  1.2015
  129MOL   H13228548   1.661   0.542   3.929  0.0646  0.0225  0.0627
  129MOL   H13328549   1.797   0.492   3.849  1.1089  1.9292  1.4587
  129MOL   C13428550   1.654   0.071   3.953  0.1193  0.3095  0.1645
  129MOL   C13528551   1.752   0.026   3.840 -0.1474 -0.7865 -0.2091
  129MOL   C13628552   1.885   7.845   3.897  0.3057 -0.2934 -0.3718
  129MOL   O13728553   1.904   7.816   4.020 -0.1023  0.2923  0.1340
  129MOL   C13828554   1.997   7.849   3.797  0.4807 -0.3547 -0.8644
  129MOL   H13928555   1.555   0.063   3.908  1.4655 -3.2286 -2.3791
  129MOL   H14028556   1.658   7.846   4.024 -0.2394  0.4585  0.3593
  129MOL   H14128557   1.770   0.112   3.775 -2.9283 -0.2992 -0.3735
  129MOL   H14228558   1.988   7.756   3.741 -0.1349 -0.5145 -0.5074
  129MOL   H14328559   2.091   7.841   3.851 -0.6660  1.4277  1.5038
  129MOL   H14428560   1.993   0.082   3.737  0.1859  0.8205  0.8776
  129MOL   C14528561   1.681   7.774   3.759  0.0755 -0.0582 -0.7695
  129MOL   C14628562   1.575   7.823   3.659 -0.3780 -0.0555  0.0028
  129MOL   C14728563   1.619   7.830   3.511 -0.2547  0.5180  0.5775
  129MOL   O14828564   1.590   7.742   3.427 -0.4358 -0.7758 -0.4166
  129MOL   C14928565   1.708   0.087   3.475 -0.5131 -0.5426 -0.3144
  129MOL   H15028566   1.643   7.689   3.815  0.4645  0.3740  0.1568
  129MOL   H15128567   1.759   7.729   3.697  1.1276 -1.0646  1.2589
  129MOL   H15228568   1.563   0.069   3.690  1.5815  0.1182  0.2218
  129MOL   H15328569   1.793   0.108   3.540  0.3749 -1.5045 -1.1238
  129MOL   H15428570   1.752   0.060   3.378  0.8400  1.1757 -0.1988
  129MOL   H15528571   1.634   0.165   3.465  0.8669  0.9260  0.7493
  129MOL   C15628572   1.426   7.766   3.678  0.2572 -0.4828 -0.1739
  129MOL   C15728573   1.310   7.831   3.599  0.2226 -0.2820 -0.8440
  129MOL   C15828574   1.300   0.129   3.604 -0.3646  0.1087 -0.0459
  129MOL   O15928575   1.258   0.183   3.707 -0.8596 -0.0240  0.0506
  129MOL   C16028576   1.357   0.203   3.487  0.1983 -0.5422 -0.2327
  129MOL   H16128577   1.414   7.659   3.663  0.6189 -0.3876 -1.1729
  129MOL   H16228578   1.405   7.778   3.784 -0.2599  1.7746 -0.4955
  129MOL   H16328579   1.326   7.811   3.493 -1.0600 -0.4685 -1.0183
  129MOL   H16428580   1.278   0.266   3.445  0.4740  0.6496  0.9869
  129MOL   H16528581   1.399   0.130   3.418 -1.2650 -0.3295 -1.3773
  129MOL   H16628582   1.433   0.270   3.528  0.4720 -1.6384  1.0624
  129MOL   C16728583   1.169   7.780   3.635  0.5299 -0.2039  0.8772
  129MOL   C16828584   1.145   7.635   3.593 -0.4942  0.3975  0.2501
  129MOL   C16928585   1.108   7.621   3.442  0.4888  0.0788 -0.3456
  129MOL   O17028586   1.001   7.663   3.398 -0.3383  0.2870 -0.4437
  129MOL   C17128587   1.209   7.541   3.354 -0.5433  1.2238 -1.0253
  129MOL   H17228588   1.142   7.806   3.737 -1.8033  1.0159 -0.0025
  129MOL   H17328589   1.087   7.827   3.581  0.2347 -0.2425  1.2917
  129MOL   H17428590   1.237   7.578   3.604  0.6979  2.0627 -0.8621
  129MOL   H17528591   1.251   7.460   3.414  1.8504  0.2696 -3.8977
  129MOL   H17628592   1.285   7.606   3.312  1.7616  0.1918  1.4378
  129MOL   H17728593   1.146   7.499   3.275 -1.0974  0.3664 -0.1397
  129MOL   C17828594   1.041   7.562   3.680  0.1757  1.1922  0.4290
  129MOL   C17928595   1.104   7.452   3.772 -0.2319  0.4750 -0.7296
  129MOL   C18028596   1.008   7.345   3.808 -0.3531 -0.7819  0.0380
  129MOL   O18128597   0.893   7.380   3.840  0.3312 -0.7349  0.2790
  129MOL   C18228598   1.052   7.198   3.797  0.3124 -0.0615 -0.4724
  129MOL   H18328599   0.985   7.621   3.752 -1.0253 -0.1064  0.5933
  129MOL   H18428600   0.962   7.525   3.614 -0.7624  1.2849  1.4911
  129MOL   H18528601   1.191   7.414   3.719 -0.1048 -1.4874  0.8207
  129MOL   H18628602   0.979   7.151   3.863  0.3012  0.3641 -0.1815
  129MOL   H18728603   1.151   7.178   3.839 -0.7932  1.0221  2.8016
  129MOL   H18828604   1.052   7.157   3.696 -0.2317 -1.0742 -0.0765
  129MOL   C18928605   1.163   7.521   3.905  0.0115  0.3540  1.0761
  129MOL   C19028606   1.255   7.431   3.989 -0.0326 -1.0746  0.6377
  129MOL   C19128607   1.386   7.387   3.919  0.5414  0.2194 -0.2757
  129MOL   O19228608   1.448   7.480   3.868 -0.4299  0.4100  0.5266
  129MOL   C19328609   1.424   7.245   3.891 -0.2574 -0.7468 -1.0277
  129MOL   H19428610   1.223   7.606   3.872  2.0757 -1.9005 -1.2139
  129MOL   H19528611   1.084   7.567   3.965 -0.9446  0.6466 -0.3922
  129MOL   H19628612   1.212   7.333   4.011 -0.0235 -1.0990  0.5431
  129MOL   H19728613   1.364   7.200   3.812 -0.3455 -2.4165 -0.0397
  129MOL   H19828614   1.518   7.251   3.835 -0.4264  1.0153 -1.1514
  129MOL   H19928615   1.414   7.180   3.978 -0.2767 -0.4847 -0.8335
  129MOL   C20028616   1.287   7.514   4.110  0.0276  0.2422  0.2637
  129MOL   C20128617   1.365   7.450   4.227  0.0607 -0.3369 -0.4243
  129MOL   C20228618   1.271   7.350   4.308 -0.2510  0.5311 -0.0281
  129MOL   O20328619   1.186   7.393   4.385  0.1823 -0.3010  0.2792
  129MOL   C20428620   1.294   7.198   4.287 -0.5181  0.3062  0.1606
  129MOL   H20528621   1.341   7.599   4.066 -0.1794  1.4008  2.1561
  129MOL   H20628622   1.196   7.546   4.160  0.1837  1.3339 -0.1295
  129MOL   H20728623   1.442   7.391   4.178  1.4037  2.1072 -1.3776
  129MOL   H20828624   1.238   7.172   4.197 -0.4389 -1.7032  0.6571
  129MOL   H20928625   1.395   7.156   4.280 -0.5791  0.5130 -2.3300
  129MOL   H21028626   1.225   7.153   4.358 -0.9660  1.5044  0.4935
  129MOL   C21128627   1.414   7.558   4.325 -0.2988  0.7949 -0.1355
  129MOL   C21228628   1.524   7.654   4.278  0.8759 -0.2995  0.2765
  129MOL   C21328629   1.659   7.580   4.250  0.3476  0.1803  0.2352
  129MOL   O21428630   1.665   7.457   4.249 -0.0845 -0.1236  0.5542
  129MOL   C21528631   1.776   7.664   4.223 -1.0302  0.2393  0.1228
  129MOL   H21628632   1.331   7.621   4.359 -0.1401  1.3030 -0.6796
  129MOL   H21728633   1.456   7.508   4.412 -0.3416 -0.6721 -0.9497
  129MOL   H21828634   1.553   7.722   4.358 -1.6845  0.1541  0.8366
  129MOL   H21928635   1.839   7.660   4.313 -1.2509  0.0265  0.2683
  129MOL   H22028636   1.830   7.636   4.133 -1.2594  1.3773 -0.3732
  129MOL   H22128637   1.743   7.766   4.203 -2.3270 -0.0224  0.8399
  129MOL   H22228638   1.488   7.715   4.195  0.0148  1.8774  2.1854
  130MOL     C128639   4.175   4.234   6.088 -0.0894  0.4965  0.6335
  130MOL     C228640   4.208   4.169   5.953  0.2277  0.5540  0.4237
  130MOL     C328641   4.349   4.210   5.897  0.3261  0.2085  0.3396
  130MOL     O428642   4.431   4.266   5.963  0.0592 -0.2390 -0.0166
  130MOL     C528643   4.371   4.181   5.749  0.9688 -0.6181  0.1136
  130MOL     H628644   4.081   4.195   6.129  0.4721  1.9902  3.4818
  130MOL     H728645   4.172   4.343   6.095  0.4388  0.6170 -0.8818
  130MOL     H828646   4.141   4.221   5.885 -0.0032 -0.4204 -0.1155
  130MOL     H928647   4.478   4.194   5.733  0.9650  0.2231  0.7448
  130MOL    H1028648   4.344   4.078   5.724  1.6224 -0.8925  0.5072
  130MOL    H1128649   4.321   4.247   5.678  1.1932  0.0315  0.5576
  130MOL    H1228650   4.249   4.199   6.159 -0.8104 -1.6852  0.3502
  130MOL    C1328651   4.201   4.015   5.956 -0.4154 -0.4143 -0.6958
  130MOL    C1428652   4.086   3.954   5.877  1.0397 -0.3181  0.4650
  130MOL    C1528653   3.945   3.962   5.939 -0.2487  0.0621  0.3236
  130MOL    O1628654   3.926   3.961   6.060  0.1911  0.5667 -0.4467
  130MOL    C1728655   3.831   3.991   5.837 -0.5026  0.0710 -0.1275
  130MOL    H1828656   4.294   3.968   5.923 -0.6713 -1.0228 -0.5549
  130MOL    H1928657   4.184   3.973   6.055 -2.0234  1.0022 -0.3588
  130MOL    H2028658   4.085   4.003   5.780 -0.5464  2.3279  1.7493
  130MOL    H2128659   3.835   3.923   5.751  1.1338  0.5427 -0.4395
  130MOL    H2228660   3.731   3.989   5.881 -1.1269 -1.8328 -1.5298
  130MOL    H2328661   3.837   4.091   5.794 -0.4542  0.9468  1.8867
  130MOL    C2428662   4.123   3.802   5.846 -0.1525  0.2607 -0.3884
  130MOL    C2528663   4.143   3.699   5.963  1.0902  0.1559 -0.4602
  130MOL    C2628664   4.024   3.649   6.040  0.4026 -0.3843  0.1587
  130MOL    O2728665   3.916   3.621   5.988 -0.2059  0.1975  0.2112
  130MOL    C2828666   4.046   3.622   6.186 -0.4690  0.0263  0.2215
  130MOL    H2928667   4.047   3.759   5.781  0.6902 -1.1487 -0.4637
  130MOL    H3028668   4.206   3.802   5.775  0.9198  0.8295  0.8296
  130MOL    H3128669   4.204   3.749   6.038  0.2713  2.4538 -1.2845
  130MOL    H3228670   4.084   3.707   6.243  0.6149  0.0228 -0.4762
  130MOL    H3328671   3.960   3.580   6.237 -0.4550  0.0269  0.2451
  130MOL    H3428672   4.134   3.559   6.200  0.0143  0.9128  1.3079
  130MOL    C3528673   4.222   3.567   5.929  0.5836  0.3372  0.6200
  130MOL    C3628674   4.152   3.445   5.864 -0.4445 -0.3347 -0.1678
  130MOL    C3728675   4.105   3.464   5.725  0.5476 -0.5550  0.2679
  130MOL    O3828676   4.175   3.523   5.641  0.3823  0.5550  0.0367
  130MOL    C3928677   3.974   3.409   5.685  0.2115  0.2592  0.2530
  130MOL    H4028678   4.264   3.522   6.019 -2.4743 -1.2403  1.3212
  130MOL    H4128679   4.305   3.599   5.866  0.1861 -2.5142 -1.4227
  130MOL    H4228680   4.066   3.416   5.924 -2.0056  1.0389 -1.6816
  130MOL    H4328681   3.905   3.424   5.768  0.3263 -0.2723  0.4473
  130MOL    H4428682   3.982   3.305   5.652 -0.8457 -0.1052  1.0935
  130MOL    H4528683   3.945   3.468   5.598 -1.2577  0.9586  1.2031
  130MOL    C4628684   4.256   3.321   5.854  0.2463 -0.2589 -0.3683
  130MOL    C4728685   4.259   3.242   5.984  0.1458  0.6800 -0.1757
  130MOL    C4828686   4.123   3.192   6.038 -0.2704  0.6104 -0.2774
  130MOL    O4928687   4.045   3.140   5.962  0.4354 -0.4293  0.0674
  130MOL    C5028688   4.107   3.187   6.188  0.2931  0.2189 -0.2525
  130MOL    H5128689   4.350   3.372   5.836 -0.5864  1.1059 -0.9079
  130MOL    H5228690   4.225   3.256   5.772  0.6506 -3.0145  1.6202
  130MOL    H5328691   4.297   3.313   6.058  1.3854 -1.2357  1.0670
  130MOL    H5428692   4.193   3.228   6.240  1.6205 -2.1668 -0.4996
  130MOL    H5528693   4.024   3.250   6.222 -1.5796 -2.6677  0.7569
  130MOL    H5628694   4.089   3.088   6.231  1.6156 -0.4369 -1.1970
  130MOL    C5728695   4.360   3.118   5.981  0.1045  0.0837  0.0515
  130MOL    C5828696   4.508   3.156   5.949  0.1020  0.3326  0.1049
  130MOL    C5928697   4.562   3.249   6.054 -0.4005  0.2051  1.3001
  130MOL    O6028698   4.544   3.233   6.176 -0.7149 -0.1227  0.4679
  130MOL    C6128699   4.648   3.372   6.009 -0.0327 -0.9769 -0.3942
  130MOL    H6228700   4.309   3.050   5.914  0.2405 -0.2000  0.2354
  130MOL    H6328701   4.365   3.068   6.078  0.2889  0.4926  0.2554
  130MOL    H6428702   4.532   3.192   5.849  0.3122  0.0133  0.0375
  130MOL    H6528703   4.585   3.460   6.001 -2.5010 -2.7480 -1.1351
  130MOL    H6628704   4.727   3.401   6.078 -0.3966  4.2457 -1.9939
  130MOL    H6728705   4.685   3.356   5.908 -0.8624  2.5872 -1.3123
  130MOL    C6828706   4.582   3.021   5.945  0.2929 -0.6210 -0.0293
  130MOL    C6928707   4.732   3.031   5.922  0.4152  0.1857 -0.1875
  130MOL    C7028708   4.770   3.049   5.779  0.0138  0.4771  0.1507
  130MOL    O7128709   4.700   3.010   5.686  0.1722 -0.2749  0.5170
  130MOL    C7228710   4.894   3.132   5.748  0.4276  0.0763 -0.2038
  130MOL    H7328711   4.560   2.969   6.038  0.5453  0.2570  0.5264
  130MOL    H7428712   4.543   2.964   5.861  0.5612  2.3029 -2.2330
  130MOL    H7528713   4.772   3.120   5.969  2.1082 -0.9703  0.6421
  130MOL    H7628714   4.907   3.144   5.641  0.5654  1.9139 -0.0009
  130MOL    H7728715   4.892   3.231   5.793 -0.2662  0.2033 -0.4992
  130MOL    H7828716   4.978   3.076   5.790  0.9353 -0.0767 -1.3963
  130MOL    C7928717   4.797   2.902   5.975 -0.9112  0.3104  0.5453
  130MOL    C8028718   4.951   2.898   6.009  0.3525 -0.1159  0.5984
  130MOL    C8128719   5.018   2.756   6.013 -0.2945 -0.7479  0.4816
  130MOL    O8228720   5.040   2.691   6.116 -0.1815  0.5386 -0.2765
  130MOL    C8328721   5.042   2.696   5.872 -0.8477  0.3077 -0.0542
  130MOL    H8428722   4.781   2.821   5.905  1.9569 -2.0545  2.4944
  130MOL    H8528723   4.751   2.864   6.066 -0.2477  0.2720  0.8759
  130MOL    H8628724   4.996   2.947   5.922  0.5241  1.0404  1.3248
  130MOL    H8728725   5.150   2.678   5.874 -0.8327 -0.0121 -2.6479
  130MOL    H8828726   5.024   2.759   5.785  3.2088  1.7553  0.0123
  130MOL    H8928727   4.997   2.598   5.864  0.7041 -0.5618  1.4534
  130MOL    C9028728   4.986   2.997   6.129  0.0883 -0.0386 -0.2231
  130MOL    C9128729   5.127   2.998   6.184  0.4479 -0.5971 -0.0864
  130MOL    C9228730   5.236   3.008   6.076 -0.1309 -0.9482  1.1177
  130MOL    O9328731   5.208   3.072   5.974  0.0638  0.1456  0.1449
  130MOL    C9428732   5.367   2.938   6.102 -0.1373  0.1472 -0.0509
  130MOL    H9528733   4.951   3.097   6.105 -2.1935 -0.6196  0.6113
  130MOL    H9628734   4.913   2.969   6.205 -0.9197  0.0264 -1.1585
  130MOL    H9728735   5.146   2.900   6.228 -0.9934  0.3615  2.8177
  130MOL    H9828736   5.414   2.925   6.005  0.8024 -1.0214  0.5456
  130MOL    H9928737   5.432   3.008   6.155  0.6258  0.4626 -1.3924
  130MOL   H10028738   5.355   2.834   6.135  0.9833 -0.2815 -0.9716
  130MOL   C10128739   5.163   3.093   6.299  0.1432  0.0757  0.0044
  130MOL   C10228740   5.062   3.120   6.418  0.2034 -0.9305  0.0281
  130MOL   C10328741   4.936   3.195   6.373  0.1151 -0.4710  0.3295
  130MOL   O10428742   4.939   3.286   6.285  0.1509  0.2681 -0.0605
  130MOL   C10528743   4.801   3.164   6.434  0.8775  0.5510 -0.5135
  130MOL   H10628744   5.261   3.064   6.334  1.1136  0.8076 -2.0228
  130MOL   H10728745   5.181   3.180   6.236 -2.7858  1.1807  0.6082
  130MOL   H10828746   5.029   3.023   6.454 -0.7988 -0.4037  0.5794
  130MOL   H10928747   4.774   3.060   6.414 -0.0604  0.5889  0.5566
  130MOL   H11028748   4.815   3.179   6.541 -1.0109  1.2727 -0.3636
  130MOL   H11128749   4.720   3.233   6.412  2.1363  2.2717  0.1576
  130MOL   C11228750   5.124   3.199   6.539 -0.4833  0.1493  0.3173
  130MOL   C11328751   5.227   3.119   6.630 -0.3944 -0.6336  0.9814
  130MOL   C11428752   5.161   3.087   6.767  0.1281  0.0884  0.0708
  130MOL   O11528753   5.146   3.164   6.858  0.3601 -0.1783 -0.4595
  130MOL   C11628754   5.120   2.947   6.776 -0.2667  0.7595 -0.2260
  130MOL   H11728755   5.058   3.247   6.611 -0.3950  0.8793 -0.0807
  130MOL   H11828756   5.176   3.283   6.493 -2.4328  1.8118  1.0800
  130MOL   H11928757   5.237   3.022   6.582  0.6943 -0.5014  0.9436
  130MOL   H12028758   5.073   2.921   6.871  2.5887 -1.4039  0.6478
  130MOL   H12128759   5.042   2.940   6.700  1.1420  0.8858 -1.6908
  130MOL   H12228760   5.197   2.872   6.757 -0.7610  0.0373  0.5642
  130MOL   C12328761   5.361   3.192   6.662  1.1396 -0.3727  0.5170
  130MOL   C12428762   5.467   3.101   6.728  0.1608 -0.9875  0.2658
  130MOL   C12528763   5.566   3.191   6.797  0.5152  0.3387 -0.1788
  130MOL   O12628764   5.583   3.174   6.919 -0.0506  0.6377 -0.4746
  130MOL   C12728765   5.656   3.285   6.716  0.1002  0.1963  0.7228
  130MOL   H12828766   5.346   3.287   6.713  0.8592 -1.7489  3.0941
  130MOL   H12928767   5.398   3.211   6.561 -0.4577 -2.2868 -0.4543
  130MOL   H13028768   5.424   3.049   6.814  0.7663 -1.0983  0.5004
  130MOL   H13128769   5.750   3.254   6.669  0.1137  3.1850 -1.3398
  130MOL   H13228770   5.681   3.368   6.781  0.1739  0.3752  0.4680
  130MOL   H13328771   5.604   3.320   6.627 -0.0882 -2.0912 -0.1134
  130MOL   C13428772   5.539   2.998   6.637  0.1718  1.1557  0.1053
  130MOL   C13528773   5.619   2.891   6.712 -0.6345 -0.9385  1.0862
  130MOL   C13628774   5.533   2.818   6.814 -0.3404  0.2494  0.2762
  130MOL   O13728775   5.434   2.758   6.776  0.0611 -0.0706 -0.5400
  130MOL   C13828776   5.585   2.822   6.957  0.0238  0.6353 -0.2000
  130MOL   H13928777   5.595   3.047   6.557  0.5401 -0.6464 -0.7663
  130MOL   H14028778   5.465   2.944   6.579 -0.0028  0.7856  0.6654
  130MOL   H14128779   5.702   2.938   6.765 -0.0717 -0.8433  0.1211
  130MOL   H14228780   5.690   2.800   6.971  0.1020  0.6449 -0.7442
  130MOL   H14328781   5.536   2.741   7.012  0.9471  1.5258  1.9779
  130MOL   H14428782   5.564   2.920   7.000  0.0661 -0.1548  1.6878
  130MOL   C14528783   5.704   2.795   6.617 -0.2041  0.7844 -0.6195
  130MOL   C14628784   5.625   2.696   6.519 -0.4972 -0.4085  0.5309
  130MOL   C14728785   5.561   2.758   6.396  0.1035  0.8715  0.1151
  130MOL   O14828786   5.590   2.871   6.357 -0.2951 -0.0917 -0.4445
  130MOL   C14928787   5.458   2.673   6.317  0.2418 -0.1575 -0.0239
  130MOL   H15028788   5.774   2.742   6.682 -0.4730  1.2561  0.0697
  130MOL   H15128789   5.764   2.860   6.554  2.5616  1.0372  2.1525
  130MOL   H15228790   5.542   2.646   6.569 -0.3612 -0.4992  0.6653
  130MOL   H15328791   5.363   2.725   6.328  1.2954  2.2749 -2.0062
  130MOL   H15428792   5.491   2.665   6.214  2.2119  1.9462  0.3975
  130MOL   H15528793   5.460   2.573   6.361  1.1432  1.1783  3.1374
  130MOL   C15628794   5.729   2.584   6.473 -0.5191  0.2240 -0.3491
  130MOL   C15728795   5.870   2.626   6.419  0.1907  0.4126 -0.1469
  130MOL   C15828796   5.858   2.696   6.285 -0.7086 -0.0221 -0.4867
  130MOL   O15928797   5.783   2.652   6.199 -0.2390 -0.7856  0.1066
  130MOL   C16028798   5.942   2.821   6.258 -0.0334  0.6661  0.5268
  130MOL   H16128799   5.743   2.524   6.563 -0.5370  2.2619  1.0599
  130MOL   H16228800   5.686   2.515   6.401 -1.0496 -0.3149  0.4770
  130MOL   H16328801   5.931   2.689   6.483  0.3958 -0.2002  0.2717
  130MOL   H16428802   6.011   2.836   6.341  0.5977 -0.5842  0.2561
  130MOL   H16528803   5.873   2.905   6.258 -0.1292  0.5884  0.6357
  130MOL   H16628804   5.995   2.806   6.164 -0.5783 -0.1731  0.3385
  130MOL   C16728805   5.949   2.489   6.409 -0.2831  0.4494 -0.4419
  130MOL   C16828806   6.103   2.504   6.369 -0.3772  0.0850 -0.1392
  130MOL   C16928807   6.152   2.377   6.315 -0.1904  0.0479  0.2948
  130MOL   O17028808   6.148   2.276   6.383 -0.1494 -0.5420 -0.4493
  130MOL   C17128809   6.232   2.380   6.191  0.5723  0.5966 -0.4161
  130MOL   H17228810   5.951   2.438   6.505 -1.7604  1.1090 -0.0495
  130MOL   H17328811   5.904   2.424   6.334  0.4901 -0.2715 -0.2894
  130MOL   H17428812   6.112   2.581   6.292 -1.2561 -1.5807 -1.9837
  130MOL   H17528813   6.189   2.315   6.116 -0.7596  1.2126 -0.1944
  130MOL   H17628814   6.333   2.344   6.211 -0.0103 -1.0362 -0.3283
  130MOL   H17728815   6.245   2.477   6.142 -1.1447  0.8079 -0.4862
  130MOL   C17828816   6.189   2.551   6.491 -0.1250  0.1169  0.1223
  130MOL   C17928817   6.335   2.592   6.455 -0.1132 -0.0990 -0.7136
  130MOL   C18028818   6.422   2.600   6.583  0.1609  0.0162 -0.1355
  130MOL   O18128819   6.393   2.660   6.684 -0.4676  0.2656 -0.2070
  130MOL   C18228820   6.558   2.524   6.584 -0.1439 -0.6702  0.2242
  130MOL   H18328821   6.136   2.627   6.547  0.9613  1.6779 -0.9060
  130MOL   H18428822   6.193   2.469   6.563 -0.8698  1.5317  1.8162
  130MOL   H18528823   6.385   2.510   6.404 -0.6361 -0.4649 -0.6460
  130MOL   H18628824   6.645   2.590   6.585 -0.4875 -0.2091  0.8528
  130MOL   H18728825   6.563   2.451   6.503 -4.4955 -2.4838  1.4578
  130MOL   H18828826   6.574   2.468   6.676  1.3536  0.7306  0.8539
  130MOL   C18928827   6.323   2.727   6.384 -0.2943 -0.2182 -0.3461
  130MOL   C19028828   6.455   2.796   6.337  0.0999  0.6837 -0.3840
  130MOL   C19128829   6.531   2.715   6.234 -0.4249 -0.5276  0.2613
  130MOL   O19228830   6.475   2.658   6.139 -0.4289  0.2278  0.2795
  130MOL   C19328831   6.684   2.698   6.253  0.2511  0.2077 -0.2697
  130MOL   H19428832   6.254   2.726   6.300 -0.5155  1.6409 -0.2142
  130MOL   H19528833   6.268   2.799   6.445 -0.6348 -1.7587  1.2057
  130MOL   H19628834   6.512   2.819   6.427 -0.5768 -0.6346  0.3975
  130MOL   H19728835   6.720   2.690   6.356  0.7179  2.5142 -0.2307
  130MOL   H19828836   6.705   2.606   6.199 -0.0541  1.0563 -1.8644
  130MOL   H19928837   6.733   2.769   6.188 -1.2157  0.3599 -1.2394
  130MOL   C20028838   6.431   2.940   6.276 -0.5550 -0.5457  0.4179
  130MOL   C20128839   6.555   3.035   6.270 -0.2888 -0.2376  0.3034
  130MOL   C20228840   6.612   3.075   6.407  0.1882  0.5037  0.5829
  130MOL   O20328841   6.552   3.155   6.484  0.3844 -0.2784  0.4428
  130MOL   C20428842   6.745   3.016   6.444  0.2352  0.8819 -0.2068
  130MOL   H20528843   6.363   2.947   6.191  0.3082  0.3810 -0.1933
  130MOL   H20628844   6.361   2.988   6.345 -0.9314  0.4082 -0.6326
  130MOL   H20728845   6.626   2.987   6.202 -0.5068 -0.0007 -0.0894
  130MOL   H20828846   6.704   2.922   6.480  1.6113  0.3738  0.0355
  130MOL   H20928847   6.814   2.989   6.365 -1.4449 -2.0701 -0.7337
  130MOL   H21028848   6.794   3.059   6.532  0.2523 -2.4051  1.4679
  130MOL   C21128849   6.507   3.164   6.199  0.1986  0.0783 -0.3701
  130MOL   C21228850   6.616   3.278   6.174  0.1659 -0.5239  0.1387
  130MOL   C21328851   6.731   3.236   6.087 -1.1609  0.6360  0.7618
  130MOL   O21428852   6.725   3.142   6.006  1.1470  0.5447 -0.0548
  130MOL   C21528853   6.859   3.318   6.093 -0.3396 -0.1699  0.0706
  130MOL   H21628854   6.471   3.131   6.102  0.8291 -1.8620  0.0319
  130MOL   H21728855   6.416   3.204   6.244 -0.5823 -2.7060  0.6314
  130MOL   H21828856   6.639   3.325   6.269  0.0835 -1.0837  0.4360
  130MOL   H21928857   6.923   3.294   6.008 -0.3950  0.8996 -0.2798
  130MOL   H22028858   6.834   3.424   6.094 -2.2340 -0.5983  0.0874
  130MOL   H22128859   6.908   3.292   6.187 -2.1690  0.4135  1.2283
  130MOL   H22228860   6.563   3.356   6.119  0.7236 -0.2813 -0.0624
  131MOL     C128861   4.679   0.505   4.617  0.1346 -0.0800  0.0200
  131MOL     C228862   4.705   0.650   4.649  0.2084 -0.4710  0.2113
  131MOL     C328863   4.578   0.716   4.706 -0.0698 -0.7810 -0.1605
  131MOL     O428864   4.528   0.673   4.813  0.0402  0.2753 -0.3065
  131MOL     C528865   4.520   0.840   4.634  0.0215 -1.0448 -0.2442
  131MOL     H628866   4.772   0.460   4.581  0.5593 -0.1756  1.2223
  131MOL     H728867   4.598   0.484   4.547  1.7090  0.2657 -1.9653
  131MOL     H828868   4.732   0.704   4.558  1.2595 -0.0450  0.7794
  131MOL     H928869   4.576   0.928   4.667 -1.3119 -0.5847  0.8502
  131MOL    H1028870   4.538   0.817   4.529  3.0443  2.0466 -0.5328
  131MOL    H1128871   4.417   0.846   4.670 -0.2082  2.1591 -1.2381
  131MOL    H1228872   4.648   0.453   4.708  0.2715  0.3331  0.3038
  131MOL    C1328873   4.825   0.668   4.741  0.1330 -0.0939  0.1516
  131MOL    C1428874   4.899   0.804   4.743  0.5441  0.8766  0.3043
  131MOL    C1528875   4.984   0.824   4.616 -0.0768  0.5064  0.5349
  131MOL    O1628876   5.054   0.736   4.562  0.4645  0.1156  0.0373
  131MOL    C1728877   4.963   0.964   4.545 -0.2950  0.3319 -0.4480
  131MOL    H1828878   4.785   0.639   4.838 -0.2218 -0.7326 -0.1851
  131MOL    H1928879   4.894   0.586   4.720 -1.9860 -1.7184 -0.5822
  131MOL    H2028880   4.827   0.886   4.740  1.0345  1.2723 -1.7592
  131MOL    H2128881   5.024   0.966   4.455 -1.6385  0.1876 -1.3597
  131MOL    H2228882   4.860   0.958   4.512 -0.6709  1.7381  0.4082
  131MOL    H2328883   4.967   1.034   4.629  2.3086 -1.7678  1.2950
  131MOL    C2428884   4.981   0.830   4.876  0.2427 -0.1339  0.0567
  131MOL    C2528885   4.915   0.904   4.998  0.2250  0.7513 -0.2095
  131MOL    C2628886   4.777   0.851   5.034  0.5030  0.2703  0.1517
  131MOL    O2728887   4.761   0.757   5.115  0.2522 -0.0374  0.2933
  131MOL    C2828888   4.662   0.941   4.996 -0.5714 -0.2570 -0.4819
  131MOL    H2928889   4.998   0.728   4.912  0.8452  0.1267  0.5043
  131MOL    H3028890   5.081   0.866   4.852 -0.0274  0.4781 -0.1505
  131MOL    H3128891   4.905   1.006   4.960 -0.9474  1.1617  1.1686
  131MOL    H3228892   4.638   0.946   4.890  0.2343 -0.1601 -0.6650
  131MOL    H3328893   4.577   0.921   5.061 -0.3697 -0.7344 -0.3634
  131MOL    H3428894   4.686   1.046   5.016 -0.2882 -0.7793  2.1170
  131MOL    C3528895   5.028   0.904   5.106 -0.3953 -0.2231 -0.3997
  131MOL    C3628896   5.049   1.035   5.193 -0.1999  0.7082 -0.9608
  131MOL    C3728897   5.071   1.165   5.110  0.7612  0.2769  0.4054
  131MOL    O3828898   4.986   1.250   5.095 -0.1532 -0.4112 -0.5434
  131MOL    C3928899   5.198   1.177   5.034  0.4399 -0.1600 -0.4305
  131MOL    H4028900   5.126   0.882   5.063 -0.6230 -1.4387 -0.3155
  131MOL    H4128901   5.001   0.818   5.167  0.7964 -0.1328  0.2642
  131MOL    H4228902   5.138   1.014   5.252 -1.4193 -1.5937  0.1218
  131MOL    H4328903   5.182   1.243   4.948  0.7025  0.7794  0.2321
  131MOL    H4428904   5.217   1.084   4.979  0.2942 -0.0483 -0.6713
  131MOL    H4528905   5.280   1.224   5.088  1.0086 -0.3666 -1.0968
  131MOL    C4628906   4.923   1.054   5.291 -0.3179 -0.3456  0.0083
  131MOL    C4728907   4.962   1.000   5.432  0.0770 -0.3799  0.2018
  131MOL    C4828908   5.051   1.105   5.503 -0.1835 -0.1566  0.4698
  131MOL    O4928909   5.173   1.081   5.519 -0.2194 -0.6309  0.4232
  131MOL    C5028910   4.994   1.235   5.546  0.0867 -0.3073  0.2727
  131MOL    H5128911   4.831   1.010   5.254 -1.3385  1.8824 -0.1849
  131MOL    H5228912   4.904   1.161   5.296  2.5068  0.2385 -0.6590
  131MOL    H5328913   5.025   0.912   5.431  1.8410  0.8150  1.5194
  131MOL    H5428914   4.978   1.296   5.457 -0.0863  1.4077  1.4529
  131MOL    H5528915   4.907   1.220   5.610  0.8601 -2.2530  0.8907
  131MOL    H5628916   5.073   1.281   5.605 -1.6595  0.1590  2.3380
  131MOL    C5728917   4.841   0.956   5.518  0.5873  0.1462  1.0624
  131MOL    C5828918   4.768   0.827   5.479  0.4115  0.4994 -0.3643
  131MOL    C5928919   4.856   0.712   5.480 -0.0045  0.2153  0.1059
  131MOL    O6028920   4.955   0.701   5.549  0.0879 -0.8141  0.3299
  131MOL    C6128921   4.806   0.596   5.399  0.2416  0.3598 -0.2968
  131MOL    H6228922   4.761   1.029   5.518 -1.1794 -1.7266  0.7737
  131MOL    H6328923   4.873   0.948   5.621 -0.9687  0.3929  1.5769
  131MOL    H6428924   4.728   0.827   5.377  0.7231  1.0581 -0.4901
  131MOL    H6528925   4.880   0.579   5.320 -1.4067  0.8026 -1.9749
  131MOL    H6628926   4.809   0.511   5.467  0.5858  0.0211 -0.7302
  131MOL    H6728927   4.712   0.610   5.346 -0.0735 -0.1960  0.1101
  131MOL    C6828928   4.639   0.800   5.563 -0.2641 -0.3953 -0.5006
  131MOL    C6928929   4.519   0.744   5.487  0.2612  0.2935  0.5606
  131MOL    C7028930   4.475   0.822   5.362 -0.1523  0.5956  0.1770
  131MOL    O7128931   4.453   0.945   5.360 -0.0139  0.6868  0.8098
  131MOL    C7228932   4.453   0.734   5.237 -0.3730  0.1443 -0.1564
  131MOL    H7328933   4.664   0.745   5.654  1.2010 -0.1085 -0.7163
  131MOL    H7428934   4.597   0.893   5.602  0.1327 -1.0686  1.5893
  131MOL    H7528935   4.547   0.651   5.438 -1.6428  0.7700 -1.5492
  131MOL    H7628936   4.444   0.808   5.158 -2.1920  1.9788  1.7163
  131MOL    H7728937   4.528   0.658   5.213 -0.8079  0.1538 -1.5575
  131MOL    H7828938   4.361   0.677   5.232 -0.4483  0.1567  0.9520
  131MOL    C7928939   4.390   0.723   5.577  0.7284 -0.2272 -1.0641
  131MOL    C8028940   4.392   0.605   5.675  0.7542  0.2444  0.1554
  131MOL    C8128941   4.380   0.475   5.596  0.1386 -0.3468  0.4742
  131MOL    O8228942   4.272   0.418   5.589  0.3588  0.0495 -0.2355
  131MOL    C8328943   4.501   0.425   5.529 -0.3671  0.0188 -0.5920
  131MOL    H8428944   4.297   0.740   5.523  0.3360  1.2799  0.0786
  131MOL    H8528945   4.395   0.810   5.642  1.6407 -1.0983  0.0545
  131MOL    H8628946   4.490   0.612   5.721  1.0920  2.5449 -0.8510
  131MOL    H8728947   4.495   0.418   5.421  0.0135 -1.3164 -0.5415
  131MOL    H8828948   4.520   0.323   5.562  1.8260 -0.0577 -1.9354
  131MOL    H8928949   4.586   0.491   5.548  0.0535 -0.0266 -2.2628
  131MOL    C9028950   4.293   0.606   5.797 -0.3070 -0.2141 -0.6374
  131MOL    C9128951   4.340   0.502   5.911  0.7094 -0.4125 -0.6973
  131MOL    C9228952   4.477   0.544   5.971 -0.0651  0.2411  0.2873
  131MOL    O9328953   4.506   0.659   6.009 -0.0203 -0.2655 -0.0993
  131MOL    C9428954   4.581   0.434   5.987 -0.0559  0.1617  0.8012
  131MOL    H9528955   4.282   0.708   5.836 -0.9282 -0.5199 -0.0187
  131MOL    H9628956   4.193   0.582   5.764 -0.2844  1.3353 -1.8979
  131MOL    H9728957   4.362   0.406   5.865 -1.5896 -0.0647 -2.5935
  131MOL    H9828958   4.667   0.461   6.048  0.0293  0.8987  0.3593
  131MOL    H9928959   4.538   0.345   6.032  1.3896 -0.8538  0.2099
  131MOL   H10028960   4.625   0.410   5.890 -1.8077  2.2710 -0.5588
  131MOL   C10128961   4.234   0.494   6.026 -0.1393  0.0211  0.1957
  131MOL   C10228962   4.158   0.362   6.046  0.3830  1.1532 -0.3722
  131MOL   C10328963   4.257   0.250   6.082 -1.3785 -0.0299 -0.1596
  131MOL   O10428964   4.336   0.193   6.001 -0.4361 -0.6772  0.2805
  131MOL   C10528965   4.270   0.229   6.235  0.0635 -0.2524  1.0330
  131MOL   H10628966   4.270   0.535   6.120  0.1938 -1.9755  0.9609
  131MOL   H10728967   4.148   0.560   6.009  1.0488  1.9620  1.5654
  131MOL   H10828968   4.107   0.378   6.141  1.3381 -0.1214  0.3664
  131MOL   H10928969   4.178   0.186   6.276  1.2304 -2.5740  1.3059
  131MOL   H11028970   4.355   0.162   6.248 -0.0723 -1.2777 -2.6311
  131MOL   H11128971   4.301   0.323   6.279 -0.8266  0.6235 -0.1852
  131MOL   C11228972   4.064   0.348   5.925 -0.0639  0.2656  0.8271
  131MOL   C11328973   3.961   0.231   5.917  0.1247  0.6577  0.3462
  131MOL   C11428974   3.872   0.220   6.033  0.2144  0.5106 -0.0397
  131MOL   O11528975   3.914   0.188   6.143  1.0226  0.1151 -0.3598
  131MOL   C11628976   3.729   0.265   6.028  0.1263 -0.1012  0.2084
  131MOL   H11728977   4.131   0.356   5.839  0.1977 -0.1562  0.9910
  131MOL   H11828978   3.998   0.435   5.916  0.2498  0.3695 -0.6512
  131MOL   H11928979   3.899   0.261   5.832  3.2389  3.3344 -1.1091
  131MOL   H12028980   3.708   0.253   5.921  0.5160  0.5392  0.0572
  131MOL   H12128981   3.663   0.192   6.075  0.5728  0.1009  1.1472
  131MOL   H12228982   3.718   0.367   6.062 -0.3132 -0.8930  2.4908
  131MOL   C12328983   4.013   0.095   5.870 -0.3378  0.1749 -1.0224
  131MOL   C12428984   4.096   0.099   5.743  0.4132 -0.3039 -0.6258
  131MOL   C12528985   4.004   0.115   5.619  0.1538 -0.3222 -0.5883
  131MOL   O12628986   3.950   0.022   5.558 -0.3582  0.0379 -0.1101
  131MOL   C12728987   3.969   0.259   5.569 -0.2667 -0.0829 -0.2425
  131MOL   H12828988   3.943   0.013   5.856  0.0400 -0.1687 -0.9351
  131MOL   H12928989   4.082   0.064   5.949 -0.3168 -0.3958 -1.2625
  131MOL   H13028990   4.156   0.188   5.764 -1.1964  0.5856  0.2777
  131MOL   H13128991   3.881   0.289   5.626 -0.6902 -2.0129  0.1630
  131MOL   H13228992   3.950   0.261   5.462  0.8620 -1.2288 -0.4735
  131MOL   H13328993   4.045   0.335   5.583 -1.2963  1.3162 -2.0794
  131MOL   C13428994   4.181   7.832   5.729  0.4400  0.4055  0.4340
  131MOL   C13528995   4.316   7.849   5.654 -0.5259 -0.3679 -0.8889
  131MOL   C13628996   4.437   7.851   5.752 -0.0072 -0.1765 -0.0379
  131MOL   O13728997   4.465   7.748   5.821  0.3358  0.3151  0.1122
  131MOL   C13828998   4.513   0.121   5.772  0.1019  1.0652  0.1545
  131MOL   H13928999   4.128   7.744   5.691  2.5860 -1.6872  2.1391
  131MOL   H14029000   4.206   7.805   5.832 -1.8161 -3.2305  0.1448
  131MOL   H14129001   4.326   0.087   5.604 -2.6139 -1.1799 -2.9348
  131MOL   H14229002   4.437   0.198   5.767 -1.6204 -0.6071 -0.0503
  131MOL   H14329003   4.575   0.139   5.684  0.0716  0.1691 -0.0541
  131MOL   H14429004   4.575   0.131   5.861  0.8446 -1.4320 -0.0281
  131MOL   C14529005   4.337   7.731   5.551 -0.4815 -0.4293  0.2124
  131MOL   C14629006   4.441   7.755   5.446 -0.2988  0.0300  0.8426
  131MOL   C14729007   4.408   0.013   5.355 -0.0098  0.5759  0.4617
  131MOL   O14829008   4.434   0.132   5.379  0.0679  0.3555 -0.5823
  131MOL   C14929009   4.333   7.835   5.226  0.4622 -0.2052 -0.0332
  131MOL   H15029010   4.245   7.710   5.497 -0.8623 -4.0950  2.0971
  131MOL   H15129011   4.347   7.638   5.606  1.0768  0.3038  1.2147
  131MOL   H15229012   4.430   7.664   5.387  0.4303  0.6330 -0.2617
  131MOL   H15329013   4.345   7.732   5.194  2.1266 -0.6865  1.9881
  131MOL   H15429014   4.227   7.856   5.241  0.0484  0.0800 -3.1151
  131MOL   H15529015   4.374   0.050   5.155  0.1429  0.6681  0.6559
  131MOL   C15629016   4.587   7.766   5.493 -0.4107 -0.4953  0.1078
  131MOL   C15729017   4.698   7.737   5.388  0.0374 -0.6697  0.0995
  131MOL   C15829018   4.735   7.587   5.368  0.4634  0.7190 -0.0768
  131MOL   O15929019   4.746   7.504   5.458 -0.6891  0.2765 -0.4215
  131MOL   C16029020   4.764   7.539   5.226 -0.3996 -0.3200  0.4334
  131MOL   H16129021   4.600   0.004   5.544  0.9531 -1.2681  1.2325
  131MOL   H16229022   4.598   7.701   5.580  1.9489 -1.2403 -0.7015
  131MOL   H16329023   4.682   7.779   5.289  0.9325 -2.8375 -0.9965
  131MOL   H16429024   4.870   7.552   5.207 -0.2650 -0.3817  1.1200
  131MOL   H16529025   4.699   7.604   5.168 -0.8931 -0.8755  0.3621
  131MOL   H16629026   4.746   7.434   5.206 -3.8672  0.2653  0.1830
  131MOL   C16729027   4.828   7.822   5.416 -0.7453  0.1944 -0.4243
  131MOL   C16829028   4.817   0.121   5.407  0.2892 -0.5942 -0.1528
  131MOL   C16929029   4.788   0.161   5.265 -0.0851  0.5601  0.2379
  131MOL   O17029030   4.815   0.085   5.171  0.3979 -0.2270  0.1808
  131MOL   C17129031   4.720   0.289   5.247  0.0899  0.3510 -0.2415
  131MOL   H17229032   4.867   7.797   5.514 -0.0031 -0.7329 -0.9563
  131MOL   H17329033   4.916   7.789   5.361 -1.9153 -0.4967 -1.9452
  131MOL   H17429034   4.736   0.154   5.473  0.4904  1.9291 -1.1134
  131MOL   H17529035   4.793   0.366   5.273 -0.3576  1.3645 -1.8829
  131MOL   H17629036   4.630   0.291   5.309 -0.1240 -0.5730 -0.5261
  131MOL   H17729037   4.690   0.311   5.145  0.6353 -1.3809 -0.7853
  131MOL   C17829038   4.948   0.200   5.459 -0.0514 -0.6299 -0.0884
  131MOL   C17929039   4.974   0.190   5.615 -0.3708 -0.3077 -0.3463
  131MOL   C18029040   4.872   0.281   5.694  0.6115 -0.4419  0.2154
  131MOL   O18129041   4.778   0.342   5.638 -0.0503 -0.0778  0.2994
  131MOL   C18229042   4.877   0.281   5.845 -0.6294  0.3650 -0.2161
  131MOL   H18329043   5.038   0.175   5.403 -1.3977 -0.1932 -2.5185
  131MOL   H18429044   4.926   0.305   5.438  2.3318 -0.4584 -1.9910
  131MOL   H18529045   4.962   0.082   5.628 -0.7119 -0.5906 -2.7657
  131MOL   H18629046   4.857   0.382   5.881  1.8226  0.1157  1.9845
  131MOL   H18729047   4.974   0.238   5.871 -0.0145  0.5376 -2.1652
  131MOL   H18829048   4.808   0.211   5.890 -0.6364 -0.4455 -1.4618
  131MOL   C18929049   5.121   0.210   5.661  0.3702 -0.5845 -0.8613
  131MOL   C19029050   5.181   0.348   5.680  0.4954 -0.5696 -0.0282
  131MOL   C19129051   5.187   0.402   5.828 -0.0087 -0.3429  0.7295
  131MOL   O19229052   5.240   0.342   5.919 -0.8904 -0.4376 -0.1459
  131MOL   C19329053   5.126   0.534   5.861 -0.1604 -0.1057 -0.6607
  131MOL   H19429054   5.135   0.157   5.755 -0.2182  1.8210  0.6197
  131MOL   H19529055   5.184   0.165   5.584  2.1615 -2.4735  1.6029
  131MOL   H19629056   5.125   0.420   5.620 -1.1515 -2.9780 -1.4379
  131MOL   H19729057   5.043   0.560   5.795 -0.0355  0.5395 -0.5642
  131MOL   H19829058   5.080   0.523   5.959  1.7075  1.1652  0.3733
  131MOL   H19929059   5.202   0.611   5.866 -0.5182  0.2609 -0.8960
  131MOL   C20029060   5.326   0.370   5.619 -0.6041 -0.0395 -0.0754
  131MOL   C20129061   5.376   0.521   5.616 -0.0620 -0.1410 -0.5888
  131MOL   C20229062   5.304   0.598   5.505  0.0594 -0.3292  0.0813
  131MOL   O20329063   5.272   0.533   5.405  0.1331 -0.1110  0.0978
  131MOL   C20429064   5.275   0.744   5.539  0.0587 -0.8864  0.4523
  131MOL   H20529065   5.396   0.317   5.684 -0.8341  1.2146  1.2109
  131MOL   H20629066   5.332   0.331   5.517  2.0380 -0.7168  0.3212
  131MOL   H20729067   5.350   0.572   5.709  0.8286  0.9873 -0.9562
  131MOL   H20829068   5.220   0.799   5.463  1.2522  0.7676  0.7666
  131MOL   H20929069   5.211   0.757   5.626 -1.6377 -0.4640 -0.8378
  131MOL   H21029070   5.373   0.790   5.539  0.1255 -1.0248  0.6321
  131MOL   C21129071   5.523   0.530   5.602  0.1633 -0.1819 -0.2835
  131MOL   C21229072   5.581   0.474   5.471 -1.1307  1.1414  0.4898
  131MOL   C21329073   5.738   0.497   5.460  0.0968 -0.1588 -0.5755
  131MOL   O21429074   5.798   0.567   5.542  0.1499 -0.3770 -0.0818
  131MOL   C21529075   5.805   0.435   5.330 -0.5050 -0.2640  0.6001
  131MOL   H21629076   5.547   0.633   5.627 -1.3307 -0.0640  0.7421
  131MOL   H21729077   5.571   0.474   5.682  1.5550 -0.4949 -1.3237
  131MOL   H21829078   5.528   0.516   5.385 -1.2860 -0.0610 -0.0040
  131MOL   H21929079   5.722   0.380   5.285 -0.7544  0.4132  0.2326
  131MOL   H22029080   5.869   0.498   5.269  1.3376  0.0693  2.8274
  131MOL   H22129081   5.878   0.363   5.368 -0.8849 -0.6964  0.5161
  131MOL   H22229082   5.569   0.367   5.458  1.6988  0.7863  0.4826
  132MOL     C129083   0.878   2.494   2.914 -0.3542  0.1893  0.1537
  132MOL     C229084   1.026   2.450   2.930 -0.4483  0.4096 -0.2181
  132MOL     C329085   1.059   2.336   2.836 -0.0261  0.3064  0.0816
  132MOL     O429086   0.988   2.313   2.738  0.0564 -0.1878  0.5061
  132MOL     C529087   1.183   2.250   2.852 -0.3313  0.2960 -0.4360
  132MOL     H629088   0.861   2.540   2.816 -0.8581  0.1064  0.2008
  132MOL     H729089   0.852   2.565   2.993  0.5786  1.9770 -1.0910
  132MOL     H829090   1.029   2.401   3.027 -4.2543  0.6548  0.0969
  132MOL     H929091   1.217   2.245   2.955 -2.4581 -3.3984  0.1791
  132MOL    H1029092   1.181   2.152   2.805  0.6947 -0.3377  0.8457
  132MOL    H1129093   1.254   2.317   2.803 -0.9192  0.7401 -0.7043
  132MOL    H1229094   0.815   2.410   2.942  1.2425 -1.0705  0.0591
  132MOL    C1329095   1.122   2.567   2.912  0.5537  0.3241 -0.9732
  132MOL    C1429096   1.249   2.565   2.995  0.2670  0.4478 -0.0509
  132MOL    C1529097   1.236   2.544   3.148 -0.7562  0.4823  0.4169
  132MOL    O1629098   1.182   2.623   3.223  0.1530  0.5849  0.4926
  132MOL    C1729099   1.321   2.429   3.206  0.1458  0.2487  0.3559
  132MOL    H1829100   1.142   2.581   2.806 -0.2516 -1.5384 -1.3847
  132MOL    H1929101   1.062   2.654   2.937  0.8931  0.4465 -0.5678
  132MOL    H2029102   1.299   2.476   2.956 -1.6213 -0.5024 -0.4219
  132MOL    H2129103   1.406   2.467   3.263  1.2110 -0.2316 -0.8855
  132MOL    H2229104   1.254   2.383   3.278  0.5904  1.8717  1.8503
  132MOL    H2329105   1.344   2.360   3.124 -0.3545  0.3859  0.0964
  132MOL    C2429106   1.342   2.682   2.962 -0.1697 -0.5271 -0.0602
  132MOL    C2529107   1.489   2.645   2.936 -0.1324 -0.4406 -0.3003
  132MOL    C2629108   1.500   2.579   2.801  0.4887  0.3461 -0.1158
  132MOL    O2729109   1.461   2.627   2.700 -0.5218  0.0778  0.5312
  132MOL    C2829110   1.554   2.436   2.806 -0.1945  0.2231 -0.2028
  132MOL    H2929111   1.289   2.731   2.880 -1.0431 -0.6602  0.4116
  132MOL    H3029112   1.340   2.751   3.046 -1.5759  0.4400 -0.8617
  132MOL    H3129113   1.515   2.565   3.006 -1.0433  0.2285  0.8171
  132MOL    H3229114   1.559   2.402   2.703  1.1726 -1.6157  0.4419
  132MOL    H3329115   1.656   2.435   2.845  0.7006  2.7244 -2.3029
  132MOL    H3429116   1.492   2.365   2.861 -0.5944  0.3967 -0.4307
  132MOL    C3529117   1.580   2.768   2.961 -0.0694  0.7226 -0.3982
  132MOL    C3629118   1.729   2.753   2.920  0.3420 -0.1115 -0.1882
  132MOL    C3729119   1.749   2.819   2.780  0.0944 -0.1319 -0.1038
  132MOL    O3829120   1.775   2.756   2.680  0.8957  0.0692 -0.2691
  132MOL    C3929121   1.730   2.968   2.774  0.0213 -0.9143  0.0110
  132MOL    H4029122   1.574   2.790   3.068 -1.8970 -2.2303  0.1684
  132MOL    H4129123   1.526   2.852   2.916 -1.5619 -0.4018 -0.7216
  132MOL    H4229124   1.743   2.646   2.905  2.0149 -0.1512  1.4326
  132MOL    H4329125   1.812   3.039   2.765 -2.5698  2.0691 -0.9762
  132MOL    H4429126   1.674   3.001   2.862 -1.4282  0.5907 -1.4417
  132MOL    H4529127   1.661   2.992   2.693  0.3050  0.6574  0.2329
  132MOL    C4629128   1.826   2.808   3.023 -0.4498  1.2135  0.6271
  132MOL    C4729129   1.972   2.772   2.985  0.1256 -0.0977 -0.3556
  132MOL    C4829130   2.060   2.873   3.069 -0.0812 -0.2081 -0.4678
  132MOL    O4929131   2.139   2.829   3.153  0.0720  0.1512 -0.1620
  132MOL    C5029132   2.054   3.018   3.041 -0.8532 -0.4036  0.3405
  132MOL    H5129133   1.798   2.766   3.120 -2.2016  2.7104  0.7759
  132MOL    H5229134   1.804   2.914   3.038  2.0827  1.8772 -0.1066
  132MOL    H5329135   1.984   2.796   2.879 -1.3077 -0.7565 -0.6902
  132MOL    H5429136   2.004   3.080   3.115 -1.0292  0.6371 -0.6356
  132MOL    H5529137   2.159   3.045   3.035 -0.6343 -1.2083  0.4693
  132MOL    H5629138   2.011   3.022   2.941 -1.3604  1.2691  0.6111
  132MOL    C5729139   1.997   2.625   3.014  0.9910  0.5317  0.4877
  132MOL    C5829140   2.142   2.582   2.975 -0.3521 -0.6723 -0.1456
  132MOL    C5929141   2.187   2.467   3.062  0.0267 -0.2472 -0.6035
  132MOL    O6029142   2.160   2.350   3.033  0.1920  0.0738  0.0711
  132MOL    C6129143   2.261   2.512   3.195 -0.3784 -0.0161 -0.1815
  132MOL    H6229144   1.923   2.568   2.959  0.4438  2.6729 -1.0367
  132MOL    H6329145   1.988   2.599   3.120 -0.1502 -1.0326  0.0177
  132MOL    H6429146   2.216   2.661   2.990  0.0479 -1.1147  0.2531
  132MOL    H6529147   2.324   2.598   3.172 -2.3821  1.9455  1.4030
  132MOL    H6629148   2.176   2.534   3.260 -0.4789 -2.5659  0.5823
  132MOL    H6729149   2.330   2.437   3.232  0.1632 -0.1467 -1.4167
  132MOL    C6829150   2.149   2.553   2.820  0.2370  0.2979  0.1780
  132MOL    C6929151   2.290   2.500   2.766  0.0271  0.1789 -0.2790
  132MOL    C7029152   2.404   2.602   2.784  0.0107 -0.3386 -0.0808
  132MOL    O7129153   2.414   2.700   2.708 -0.1724 -0.1948  0.3962
  132MOL    C7229154   2.494   2.593   2.906 -1.0041  0.3000  0.4226
  132MOL    H7329155   2.078   2.471   2.806  1.5965 -0.9576  0.5065
  132MOL    H7429156   2.114   2.635   2.758  0.9786 -0.0926 -0.7775
  132MOL    H7529157   2.336   2.413   2.812  0.3802  0.4073 -0.1992
  132MOL    H7629158   2.562   2.508   2.896 -0.4236  0.9497 -1.4191
  132MOL    H7729159   2.550   2.686   2.914 -0.2832 -0.0051 -0.9230
  132MOL    H7829160   2.444   2.590   3.002  0.1850  2.2411  1.1356
  132MOL    C7929161   2.274   2.463   2.619  0.2259  0.2904 -0.0351
  132MOL    C8029162   2.393   2.374   2.563  0.1422 -0.2752 -0.0182
  132MOL    C8129163   2.419   2.404   2.411 -0.7960  0.2588  0.6779
  132MOL    O8229164   2.536   2.409   2.376 -0.5672 -1.1904 -0.6236
  132MOL    C8329165   2.299   2.410   2.309  0.0223 -0.6116  0.1373
  132MOL    H8429166   2.245   2.548   2.557  0.8409 -0.4946 -1.4374
  132MOL    H8529167   2.180   2.410   2.609 -1.3143  2.9485 -0.2696
  132MOL    H8629168   2.484   2.401   2.617  0.0832 -0.5946  0.2436
  132MOL    H8729169   2.296   2.313   2.260 -2.4359 -1.5009  1.9020
  132MOL    H8829170   2.302   2.487   2.233 -1.8525 -0.0028  0.6447
  132MOL    H8929171   2.202   2.430   2.356  0.6145  0.2115  1.0217
  132MOL    C9029172   2.355   2.220   2.574 -0.3072 -0.1614  1.1831
  132MOL    C9129173   2.464   2.119   2.530 -0.4894 -0.0298 -0.2537
  132MOL    C9229174   2.591   2.135   2.627  0.1602 -0.1625 -0.2699
  132MOL    O9329175   2.588   2.210   2.723  0.0171 -0.6738 -0.0148
  132MOL    C9429176   2.709   2.038   2.611  0.6925  0.4595 -0.4879
  132MOL    H9529177   2.328   2.193   2.676 -2.0510  0.6109  0.9478
  132MOL    H9629178   2.265   2.209   2.514  0.1444  0.3171  0.4030
  132MOL    H9729179   2.517   2.149   2.439 -1.8104  2.1704 -0.3387
  132MOL    H9829180   2.686   1.964   2.687 -0.3553  2.3915  1.1051
  132MOL    H9929181   2.693   1.989   2.514  0.1991 -0.7587  0.1989
  132MOL   H10029182   2.809   2.079   2.622  0.0605  1.7714  0.4598
  132MOL   C10129183   2.416   1.978   2.514 -0.1225  1.1201 -0.1102
  132MOL   C10229184   2.425   1.925   2.367  0.3836 -0.3112 -0.5508
  132MOL   C10329185   2.327   1.999   2.279  0.2172 -0.0984  0.5105
  132MOL   O10429186   2.229   2.055   2.329  0.1490 -0.0667 -0.5752
  132MOL   C10529187   2.350   1.995   2.128 -0.8831 -0.0769  0.4086
  132MOL   H10629188   2.466   1.912   2.586  0.0609  0.0358 -1.2046
  132MOL   H10729189   2.312   1.986   2.546  0.0484  0.6245  0.5908
  132MOL   H10829190   2.528   1.947   2.339  0.4513 -0.5014 -0.4538
  132MOL   H10929191   2.448   2.028   2.094 -1.5094  1.5797  0.1325
  132MOL   H11029192   2.336   1.891   2.100  1.2775 -0.3247  0.1839
  132MOL   H11129193   2.269   2.046   2.075 -1.9329 -0.0545  2.0305
  132MOL   C11229194   2.400   1.773   2.354  0.3825  0.1033  0.3937
  132MOL   C11329195   2.480   1.675   2.444  0.0426  0.2129  0.8372
  132MOL   C11429196   2.628   1.684   2.426 -0.1039 -0.0060 -0.0257
  132MOL   O11529197   2.672   1.733   2.321  0.0100 -0.1978 -0.0799
  132MOL   C11629198   2.718   1.636   2.539  0.0242  0.7002 -0.8870
  132MOL   H11729199   2.418   1.742   2.251  0.8199  0.0394  0.4868
  132MOL   H11829200   2.295   1.755   2.377  0.1502 -0.9030 -1.3480
  132MOL   H11929201   2.458   1.700   2.548 -0.1944 -0.8356  1.0465
  132MOL   H12029202   2.670   1.658   2.634  1.2148 -0.4574 -0.0111
  132MOL   H12129203   2.743   1.531   2.550  0.0192  0.8116  0.2441
  132MOL   H12229204   2.809   1.694   2.525  0.7596 -0.4040 -0.7413
  132MOL   C12329205   2.459   1.522   2.412  0.3938  0.1275 -0.7275
  132MOL   C12429206   2.319   1.467   2.443 -0.3004 -0.0244  0.0712
  132MOL   C12529207   2.272   1.488   2.588  0.1424  0.4626 -0.3455
  132MOL   O12629208   2.356   1.503   2.678  0.5590  0.3916  0.6940
  132MOL   C12729209   2.121   1.489   2.615 -0.6772  0.1781  0.5705
  132MOL   H12829210   2.528   1.457   2.466  0.2646 -0.7900 -1.6499
  132MOL   H12929211   2.469   1.500   2.306  1.6739 -1.4965 -0.2799
  132MOL   H13029212   2.250   1.542   2.403  1.1841  0.5236 -1.5107
  132MOL   H13129213   2.078   1.390   2.631 -2.1750  1.0130  1.8210
  132MOL   H13229214   2.063   1.511   2.526  0.7641  0.8038 -0.2254
  132MOL   H13329215   2.094   1.558   2.695  0.8008 -0.1547  1.3945
  132MOL   C13429216   2.288   1.326   2.383 -0.1399 -0.4809  0.2665
  132MOL   C13529217   2.383   1.213   2.422  0.5079  0.3126  0.5822
  132MOL   C13629218   2.383   1.180   2.577  0.0604  0.3269  0.7034
  132MOL   O13729219   2.288   1.127   2.641 -0.1651 -0.0204  0.4678
  132MOL   C13829220   2.507   1.220   2.653 -0.5425  1.0812  0.8043
  132MOL   H13929221   2.296   1.324   2.275  1.1444 -0.5680  0.3454
  132MOL   H14029222   2.189   1.289   2.409  0.4264 -3.6784 -1.8219
  132MOL   H14129223   2.489   1.230   2.402  1.1416 -2.6190  1.3051
  132MOL   H14229224   2.544   1.321   2.638 -1.3046  1.3164  0.4902
  132MOL   H14329225   2.594   1.171   2.607 -0.7799  0.2619  1.2199
  132MOL   H14429226   2.498   1.210   2.761 -3.1653 -0.3965  0.5022
  132MOL   C14529227   2.346   1.081   2.350  0.0208  0.0112 -0.1594
  132MOL   C14629228   2.371   1.075   2.195 -0.3151 -0.4235 -0.4941
  132MOL   C14729229   2.525   1.092   2.179 -0.0281  0.3077  0.0944
  132MOL   O14829230   2.602   1.005   2.223  0.0755  0.0807 -0.6902
  132MOL   C14929231   2.580   1.211   2.107 -0.1609  0.1065 -0.6373
  132MOL   H15029232   2.238   1.063   2.357 -0.0133 -0.9460 -2.5374
  132MOL   H15129233   2.398   0.992   2.386  0.6965  1.0256  1.4223
  132MOL   H15229234   2.313   1.152   2.144  2.6276  0.1911 -3.0582
  132MOL   H15329235   2.549   1.220   2.003  2.9566 -0.8046 -1.7055
  132MOL   H15429236   2.541   1.297   2.160  0.0980 -1.1665  1.6693
  132MOL   H15529237   2.689   1.209   2.119 -0.1114 -0.1143 -1.0778
  132MOL   C15629238   2.307   0.943   2.140 -0.0450 -0.3616  0.0785
  132MOL   C15729239   2.297   0.923   1.986  0.1375 -0.2969  0.6247
  132MOL   C15829240   2.206   1.025   1.915  0.4045 -0.1646 -0.3543
  132MOL   O15929241   2.108   1.064   1.972  0.3362 -0.0634 -0.1775
  132MOL   C16029242   2.241   1.079   1.783  0.3693  0.6679  0.2427
  132MOL   H16129243   2.371   0.861   2.170  0.9680 -0.0113 -1.0742
  132MOL   H16229244   2.212   0.921   2.188 -0.3959 -1.3703 -1.0529
  132MOL   H16329245   2.397   0.929   1.943  0.0956  1.2267  0.6894
  132MOL   H16429246   2.229   1.187   1.773 -0.6872  0.6895  1.5235
  132MOL   H16529247   2.181   1.022   1.713  2.3286 -1.2654  0.0823
  132MOL   H16629248   2.341   1.057   1.746  0.9787  2.5690  0.7014
  132MOL   C16729249   2.262   0.775   1.952  0.2303 -0.0168 -0.2993
  132MOL   C16829250   2.294   0.731   1.807 -0.4068  0.8312 -0.5494
  132MOL   C16929251   2.207   0.610   1.760  0.9795  0.4033 -0.8381
  132MOL   O17029252   2.254   0.512   1.704 -0.5703 -1.0298  0.1172
  132MOL   C17129253   2.061   0.616   1.778  0.3592  0.3799 -0.7522
  132MOL   H17229254   2.277   0.696   2.025 -0.6522 -0.8348 -0.9883
  132MOL   H17329255   2.154   0.774   1.968  0.2481 -3.0599 -0.1949
  132MOL   H17429256   2.265   0.803   1.731  1.5610  2.2409 -0.0146
  132MOL   H17529257   2.029   0.521   1.734 -2.2618  0.7625  0.1813
  132MOL   H17629258   2.014   0.707   1.741 -1.2022  0.3467  1.0517
  132MOL   H17729259   2.045   0.616   1.886  0.7705  2.0581 -0.6868
  132MOL   C17829260   2.444   0.702   1.776  0.0822  0.2728  0.1435
  132MOL   C17929261   2.508   0.588   1.856  0.5470  0.0216  0.5860
  132MOL   C18029262   2.614   0.651   1.957  0.2587 -0.2194  0.1601
  132MOL   O18129263   2.717   0.708   1.927  0.0867 -0.1541 -0.8648
  132MOL   C18229264   2.568   0.642   2.107 -0.1156  0.6403  0.2888
  132MOL   H18329265   2.455   0.683   1.669 -1.0255 -1.3195  0.2908
  132MOL   H18429266   2.497   0.795   1.792 -0.3943  0.8901 -1.7839
  132MOL   H18529267   2.438   0.523   1.908  0.7398  0.3624  1.2823
  132MOL   H18629268   2.590   0.727   2.172  3.2375 -0.5474  0.7611
  132MOL   H18729269   2.609   0.546   2.137 -1.9709  0.4622  2.4104
  132MOL   H18829270   2.461   0.622   2.108 -0.6620  3.2483 -0.6473
  132MOL   C18929271   2.582   0.492   1.765 -0.2416  0.2377 -0.5612
  132MOL   C19029272   2.640   0.363   1.842 -0.0222 -0.5702  0.0755
  132MOL   C19129273   2.593   0.238   1.773  0.9104  0.1640 -0.5804
  132MOL   O19229274   2.611   0.232   1.652 -0.2015 -0.1975 -0.2265
  132MOL   C19329275   2.530   0.132   1.860  1.1662 -0.2641 -0.2783
  132MOL   H19429276   2.509   0.454   1.693  0.9874 -1.7297 -0.8281
  132MOL   H19529277   2.653   0.547   1.703 -0.1680  0.3443 -0.3811
  132MOL   H19629278   2.594   0.366   1.941  0.3629 -0.9352  0.2707
  132MOL   H19729279   2.611   0.077   1.907  1.1643 -1.4293 -1.6135
  132MOL   H19829280   2.464   0.172   1.937  0.4063 -0.6894 -0.6966
  132MOL   H19929281   2.474   0.070   1.790 -1.0519 -1.6364  2.6202
  132MOL   C20029282   2.791   0.371   1.855  0.2675 -0.0273 -0.0536
  132MOL   C20129283   2.861   0.254   1.925 -0.0241  0.1014 -0.0841
  132MOL   C20229284   2.850   0.260   2.082  0.0093  0.4744  1.1638
  132MOL   O20329285   2.827   0.369   2.133  0.5967  0.4999 -0.5408
  132MOL   C20429286   2.879   0.136   2.165 -0.0351 -0.1020  0.6648
  132MOL   H20529287   2.830   0.383   1.753  0.1078  1.3020  0.0324
  132MOL   H20629288   2.809   0.462   1.913 -1.5556  0.0569  0.3783
  132MOL   H20729289   2.829   0.156   1.888  0.7315 -0.6835  1.2666
  132MOL   H20829290   2.982   0.126   2.202  0.5410 -0.4975 -1.0123
  132MOL   H20929291   2.817   0.129   2.254  4.1335  2.9262  4.0338
  132MOL   H21029292   2.865   0.049   2.100  0.3639 -0.5844  1.2201
  132MOL   C21129293   3.010   0.253   1.888 -0.0987  0.0630 -0.2545
  132MOL   C21229294   3.035   0.247   1.731  0.0660 -0.0262  0.4072
  132MOL   C21329295   2.978   0.111   1.672 -0.4129 -0.4846  0.9283
  132MOL   O21429296   2.929   0.025   1.740 -0.3624  0.4585  0.1566
  132MOL   C21529297   2.979   0.108   1.520  0.0031 -0.2808  0.0651
  132MOL   H21629298   3.063   0.341   1.924  0.1782 -0.3586  0.3721
  132MOL   H21729299   3.045   0.160   1.932  0.4072  0.3658 -0.0214
  132MOL   H21829300   3.144   0.254   1.722  0.2380 -0.2701  2.0527
  132MOL   H21929301   3.071   0.152   1.485  0.5123 -0.5551  1.0324
  132MOL   H22029302   2.959   0.004   1.492  1.9197 -0.5137 -0.4618
  132MOL   H22129303   2.898   0.173   1.485  0.1812 -1.1044 -1.9299
  132MOL   H22229304   3.004   0.332   1.671  2.4796  1.6414  1.4177
  133MOL     C129305   7.466   4.318   7.209  0.4011  0.0174 -0.6681
  133MOL     C229306   7.591   4.343   7.291 -0.6517 -0.2007  0.4042
  133MOL     C329307   7.707   4.284   7.208  0.4524  0.1825  0.1172
  133MOL     O429308   7.754   4.347   7.114 -0.4668  0.2731 -0.0614
  133MOL     C529309   7.752   4.143   7.234 -0.4132  0.4321  0.2674
  133MOL     H629310   7.376   4.331   7.270 -0.4420  1.4584 -2.1613
  133MOL     H729311   7.459   4.216   7.173  0.4103 -0.9742  2.0406
  133MOL     H829312   7.591   4.274   7.376 -0.4597 -1.9528 -0.9911
  133MOL     H929313   7.668   4.074   7.230  3.4018 -4.4640 -5.3410
  133MOL    H1029314   7.821   4.097   7.163 -1.1353 -2.0994  1.1402
  133MOL    H1129315   7.802   4.135   7.331 -0.6366 -0.6748  0.3011
  133MOL    H1229316   7.446   4.380   7.121  0.3050  1.1211  0.1264
  133MOL    C1329317   7.607   4.490   7.338  0.3643  0.6864  0.1251
  133MOL    C1429318   7.712   4.511   7.447 -0.0488  1.2675 -0.2973
  133MOL    C1529319   7.658   4.614   7.552  0.4053  0.0233  0.6843
  133MOL    O1629320   7.674   4.587   7.671 -0.1600 -0.3368  0.6018
  133MOL    C1729321   7.582   4.736   7.505  0.0765  0.6794 -0.1915
  133MOL    H1829322   7.639   4.551   7.254 -0.6038 -1.3262 -1.7469
  133MOL    H1929323   7.508   4.519   7.375  0.0593 -0.3839  0.1669
  133MOL    H2029324   7.714   4.421   7.509  1.7341  0.0403 -2.0600
  133MOL    H2129325   7.611   4.824   7.562 -1.0180  0.3327  0.9426
  133MOL    H2229326   7.612   4.758   7.403  1.0246 -0.5472 -0.1880
  133MOL    H2329327   7.474   4.720   7.506  0.1823 -0.3449 -2.4756
  133MOL    C2429328   7.855   4.540   7.387 -0.2241 -0.3467  0.6087
  133MOL    C2529329   0.116   4.515   7.492  0.3079 -0.2944 -0.3155
  133MOL    C2629330   0.125   4.366   7.533 -0.3595 -0.2329 -0.1457
  133MOL    O2729331   0.186   4.279   7.470  0.2006 -0.6181  0.5324
  133MOL    C2829332   0.067   4.329   7.669 -0.2079 -0.2618  1.0694
  133MOL    H2929333   0.027   4.476   7.305  0.8063  0.7384  0.1165
  133MOL    H3029334   7.847   4.628   7.323 -1.9582 -0.4288  0.6868
  133MOL    H3129335   0.094   4.577   7.578  1.4852  1.1704 -1.0290
  133MOL    H3229336   7.827   4.377   7.672  0.5188  1.4266 -1.0138
  133MOL    H3329337   0.062   4.220   7.678 -3.1918 -0.1799  0.9059
  133MOL    H3429338   0.133   4.361   7.750  1.3057 -0.8856  0.1081
  133MOL    C3529339   0.255   4.566   7.439 -0.2032 -0.0303  0.1247
  133MOL    C3629340   0.377   4.566   7.537  0.2402  0.3426  0.0388
  133MOL    C3729341   0.507   4.489   7.486  0.3327  0.9963 -0.8343
  133MOL    O3829342   0.609   4.550   7.462 -0.2351  0.2125  0.2817
  133MOL    C3929343   0.495   4.337   7.472  0.6093  0.2227 -0.4653
  133MOL    H4029344   0.240   4.658   7.384 -2.4389 -1.2236 -1.3438
  133MOL    H4129345   0.290   4.507   7.355 -1.1749 -0.0519 -0.2713
  133MOL    H4229346   0.359   4.504   7.625  0.4123  2.1406  1.3783
  133MOL    H4329347   0.595   4.300   7.493  0.0903 -0.4380  0.9031
  133MOL    H4429348   0.468   4.286   7.379 -0.6151  1.0844 -0.5926
  133MOL    H4529349   0.421   4.284   7.532  0.8523  0.2015 -0.1867
  133MOL    C4629350   0.403   4.715   7.581 -0.0513  0.6297  0.4645
  133MOL    C4729351   0.503   4.725   7.707 -0.6059  0.1746  0.4669
  133MOL    C4829352   0.560   4.864   7.722 -0.3247 -0.8891 -0.0868
  133MOL    O4929353   0.568   4.916   7.834 -0.4295 -0.0650  0.2877
  133MOL    C5029354   0.609   4.925   7.598 -0.4897 -0.4708  0.2451
  133MOL    H5129355   0.309   4.760   7.612  1.0408  2.4902  1.2096
  133MOL    H5229356   0.438   4.769   7.493  1.0876 -1.2182 -0.2355
  133MOL    H5329357   0.592   4.664   7.691 -0.5783 -0.1098  1.6535
  133MOL    H5429358   0.652   4.853   7.528  1.4480 -0.5209  1.4549
  133MOL    H5529359   0.529   4.982   7.550  0.8346  0.1084 -1.3016
  133MOL    H5629360   0.672   5.008   7.631 -1.6808 -0.1951  1.9153
  133MOL    C5729361   0.448   4.662   7.845 -0.0239 -0.3756  0.1770
  133MOL    C5829362   0.343   4.740   0.081 -0.4072 -0.3427 -0.8108
  133MOL    C5929363   0.193   4.729   0.030  0.1758  0.2679  1.3175
  133MOL    O6029364   0.157   4.622   7.844 -0.2008 -0.3562  0.1262
  133MOL    C6129365   0.094   4.842   0.033 -0.7455  0.2936 -0.1359
  133MOL    H6229366   0.535   4.664   0.053 -0.9320  0.3539  1.3811
  133MOL    H6329367   0.417   4.559   7.826  1.5622 -0.8785  0.2564
  133MOL    H6429368   0.372   4.846   0.075 -0.7419 -0.2194 -0.2133
  133MOL    H6529369   0.091   4.903   7.800 -0.8817  0.7015  0.1385
  133MOL    H6629370   7.856   4.799   0.064 -0.2630  0.2197  1.2886
  133MOL    H6729371   0.116   4.909   0.116 -0.9056  1.2605 -0.8616
  133MOL    C6829372   0.332   4.700   0.229  0.1850  0.6269  0.0654
  133MOL    C6929373   0.309   4.821   0.316  0.8403  0.1242 -0.6308
  133MOL    C7029374   0.432   4.873   0.399 -0.0345  0.1111  0.2363
  133MOL    O7129375   0.426   4.888   0.517 -0.0875  0.2637 -0.6825
  133MOL    C7229376   0.553   4.905   0.324  0.0507 -0.2180 -0.3092
  133MOL    H7329377   0.254   4.627   0.251 -0.3887  1.2578  0.1611
  133MOL    H7429378   0.424   4.648   0.255  0.3439  0.5057 -0.7131
  133MOL    H7529379   0.273   4.901   0.252  1.0360  0.6323 -0.1019
  133MOL    H7629380   0.590   5.007   0.336 -1.4524  0.1563  1.2828
  133MOL    H7729381   0.637   4.837   0.343 -0.0882 -0.6349 -1.1614
  133MOL    H7829382   0.528   4.881   0.220 -0.6345  1.6100 -0.5699
  133MOL    C7929383   0.179   4.797   0.392 -0.9331 -0.4868 -0.0112
  133MOL    C8029384   0.114   4.928   0.456 -0.2780  0.0479  0.2391
  133MOL    C8129385   7.848   4.876   0.543  0.1152 -0.3726  0.2826
  133MOL    O8229386   7.740   4.851   0.492  0.7028  0.1821  0.3840
  133MOL    C8329387   0.023   4.851   0.691  0.2121 -0.3993  0.2452
  133MOL    H8429388   0.198   4.727   0.473  0.7224  0.4497  0.4297
  133MOL    H8529389   0.099   4.750   0.335 -0.3271 -1.1090 -0.3474
  133MOL    H8629390   0.177   4.977   0.531 -1.4814 -0.4379  1.5812
  133MOL    H8729391   7.793   4.800   0.731 -0.2676  0.0652 -0.2091
  133MOL    H8829392   0.046   4.939   0.752 -0.6223 -2.6955  4.0156
  133MOL    H8929393   0.104   4.782   0.714 -0.8403 -1.1666  1.7072
  133MOL    C9029394   0.062   5.034   0.355  0.6853 -0.0742 -0.2347
  133MOL    C9129395   7.854   5.158   0.422  0.7725 -0.1847 -0.3935
  133MOL    C9229396   0.087   5.238   0.514  0.4324 -0.2067  0.1035
  133MOL    O9329397   0.104   5.204   0.631  0.0730  0.3033  0.2542
  133MOL    C9429398   0.174   5.353   0.458  0.1289 -0.3861 -0.0698
  133MOL    H9529399   0.146   5.067   0.295  1.8526  1.0603  1.9647
  133MOL    H9629400   7.843   4.995   0.287 -0.2953  1.5197 -0.0768
  133MOL    H9729401   7.780   5.121   0.493  0.9129  0.7977  0.2757
  133MOL    H9829402   0.270   5.350   0.509 -0.0925  0.9352  0.4424
  133MOL    H9929403   0.192   5.345   0.350 -0.9241  0.6705 -0.3307
  133MOL   H10029404   0.128   5.450   0.479  2.4427  1.0075 -1.2727
  133MOL   C10129405   7.775   5.250   0.322 -0.2600 -0.3157  0.2421
  133MOL   C10229406   7.624   5.217   0.314  0.4305  0.0950  0.1223
  133MOL   C10329407   7.587   5.125   0.196  0.3163  0.5450 -0.0787
  133MOL   O10429408   7.548   5.180   0.091 -0.5101 -0.0613  0.6115
  133MOL   C10529409   7.594   4.965   0.217 -0.2728 -1.1807  0.3249
  133MOL   H10629410   7.792   5.355   0.346 -0.6719 -0.5331  1.4998
  133MOL   H10729411   7.823   5.236   0.225  1.7944 -0.2669  1.2175
  133MOL   H10829412   7.599   5.157   0.401 -0.1298 -0.7653 -0.6155
  133MOL   H10929413   7.589   4.944   0.323  0.9376  1.7789  1.0281
  133MOL   H11029414   7.511   4.907   0.175 -1.7707 -0.2930  1.9980
  133MOL   H11129415   7.684   4.924   0.172  0.4808  1.1524 -0.3936
  133MOL   C11229416   7.543   5.343   0.313 -0.1407 -0.6750  0.1920
  133MOL   C11329417   7.447   5.382   0.433  0.7888 -0.1447  0.7049
  133MOL   C11429418   7.528   5.422   0.561 -0.5777 -0.7619  0.5710
  133MOL   O11529419   7.633   5.359   0.592  0.3744 -0.4562 -0.1906
  133MOL   C11629420   7.497   5.550   0.632  0.2175  0.4635  0.5165
  133MOL   H11729421   7.469   5.347   0.233  0.2968  2.9627 -0.1180
  133MOL   H11829422   7.597   5.434   0.288  0.2859 -0.9193  0.2086
  133MOL   H11929423   7.405   5.475   0.395 -1.4518 -1.2646  0.3837
  133MOL   H12029424   7.459   5.621   0.558 -0.6437  0.3849  0.8791
  133MOL   H12129425   7.428   5.522   0.711 -0.5950 -0.6850 -0.5705
  133MOL   H12229426   7.577   5.597   0.689 -1.3142 -0.3142  3.3957
  133MOL   C12329427   7.339   5.285   0.457 -0.0404  0.7402  0.1513
  133MOL   C12429428   7.220   5.347   0.535 -0.3325 -0.7039  0.0941
  133MOL   C12529429   7.159   5.240   0.631  0.2451  0.3642 -0.2786
  133MOL   O12629430   7.037   5.212   0.632 -0.0040  0.3771 -0.5967
  133MOL   C12729431   7.250   5.170   0.733  0.2182 -1.2289 -0.0801
  133MOL   H12829432   7.386   5.203   0.510  2.4916  0.3712 -2.4931
  133MOL   H12929433   7.305   5.249   0.360  0.8177 -0.7680  0.4004
  133MOL   H13029434   7.252   5.430   0.597  3.0626 -1.9973  0.1634
  133MOL   H13129435   7.264   5.063   0.717 -1.1405 -1.4575  0.1686
  133MOL   H13229436   7.213   5.184   0.835 -0.2840 -2.9482 -0.0032
  133MOL   H13329437   7.351   5.211   0.726 -0.8417  1.8188  1.7032
  133MOL   C13429438   7.114   5.411   0.443  0.1553  0.0782  0.0348
  133MOL   C13529439   7.002   5.496   0.506  0.2221 -0.6978  0.4776
  133MOL   C13629440   7.054   5.635   0.565 -0.2115  0.5619 -0.0172
  133MOL   O13729441   7.176   5.643   0.571 -0.7129 -0.7052 -0.7909
  133MOL   C13829442   6.963   5.747   0.610  0.9006 -0.6843 -0.1551
  133MOL   H13929443   7.074   5.331   0.380  0.0920 -0.3376  0.5992
  133MOL   H14029444   7.165   5.476   0.372  0.6846 -0.8437 -0.4451
  133MOL   H14129445   6.966   5.447   0.597  0.4381  2.5725  2.4115
  133MOL   H14229446   6.876   5.703   0.660  0.6946  2.1228  2.0413
  133MOL   H14329447   6.933   5.814   0.530  0.4322  0.0585  0.6367
  133MOL   H14429448   7.017   5.794   0.692 -0.5513  1.1144 -0.2152
  133MOL   C14529449   6.875   5.507   0.414  0.0087 -0.4796  0.0405
  133MOL   C14629450   6.778   5.390   0.432 -0.6897 -0.0222  0.4318
  133MOL   C14729451   6.691   5.416   0.557  0.0019 -0.4284 -0.1029
  133MOL   O14829452   6.654   5.525   0.591  0.4566  0.1921 -0.0884
  133MOL   C14929453   6.651   5.297   0.638  0.3030 -0.0299 -0.0948
  133MOL   H15029454   6.915   5.500   0.313 -1.4794 -2.4096 -0.4474
  133MOL   H15129455   6.829   5.605   0.425 -0.4761 -0.3316 -2.8522
  133MOL   H15229456   6.844   5.309   0.464 -1.7671 -0.7081  0.9469
  133MOL   H15329457   6.545   5.296   0.662  0.4722  1.5474  0.8078
  133MOL   H15429458   6.672   5.211   0.574 -3.4541  0.6206 -2.3310
  133MOL   H15529459   6.715   5.299   0.726 -2.2395  0.1927  1.8089
  133MOL   C15629460   6.695   5.357   0.302  0.7010  0.4722  0.3082
  133MOL   C15729461   6.622   5.489   0.250  0.0097 -0.0075 -0.6167
  133MOL   C15829462   6.471   5.465   0.232  1.3292 -0.1522 -0.6600
  133MOL   O15929463   6.415   5.459   0.127 -0.0261  0.0013  0.0869
  133MOL   C16029464   6.392   5.430   0.364  0.6546  0.0485  0.3270
  133MOL   H16129465   6.763   5.315   0.228 -1.2108 -1.3664 -0.4509
  133MOL   H16229466   6.618   5.281   0.318 -0.6371  1.9463  1.1109
  133MOL   H16329467   6.619   5.567   0.327 -0.3976  0.3734 -1.0117
  133MOL   H16429468   6.398   5.514   0.433 -0.8764  0.3251  0.1331
  133MOL   H16529469   6.425   5.338   0.413 -1.7441 -1.4290 -0.7565
  133MOL   H16629470   6.287   5.421   0.336  1.3428 -1.8515 -1.7697
  133MOL   C16729471   6.700   5.545   0.123  0.4787 -0.1362  1.2135
  133MOL   C16829472   6.636   5.658   0.034  0.1419  0.1064  0.5197
  133MOL   C16929473   6.699   5.656   7.756  0.1501 -0.0877 -0.0883
  133MOL   O17029474   6.782   5.742   7.727  0.1106  0.3291  0.4506
  133MOL   C17129475   6.660   5.534   7.671 -0.4919  0.4263 -0.2153
  133MOL   H17229476   6.792   5.589   0.164  0.0965  1.3419  0.5345
  133MOL   H17329477   6.740   5.461   0.067  0.1904  0.6418 -0.1806
  133MOL   H17429478   6.534   5.627   0.010  0.2054  0.4418 -0.1912
  133MOL   H17529479   6.592   5.554   7.588 -0.2512 -2.7473 -1.2414
  133MOL   H17629480   6.622   5.456   7.736  1.1654 -0.9110 -0.8304
  133MOL   H17729481   6.743   5.499   7.610  0.2308  0.7951  0.5420
  133MOL   C17829482   6.623   5.800   0.099 -0.0825 -0.3004  0.1673
  133MOL   C17929483   6.538   5.899   0.016 -0.0805  0.3264 -0.1482
  133MOL   C18029484   6.575   6.046   0.057  0.0405  0.0984  0.1647
  133MOL   O18129485   6.516   6.096   0.156 -0.4723 -0.6157 -0.1103
  133MOL   C18229486   6.667   6.116   7.816 -0.1222  0.0880 -0.2651
  133MOL   H18329487   6.587   5.794   0.201  0.2721  3.0456  0.5442
  133MOL   H18429488   6.728   5.830   0.105 -0.7593  2.4196 -1.0528
  133MOL   H18529489   6.567   5.888   7.769  1.3650 -0.0930  0.2870
  133MOL   H18629490   6.766   6.139   7.856 -0.5009  0.9434  0.1707
  133MOL   H18729491   6.635   6.215   7.785 -0.8433  0.8133  2.7124
  133MOL   H18829492   6.670   6.058   7.723 -0.6229 -0.7925  0.2661
  133MOL   C18929493   6.382   5.873   0.009  0.5320 -0.0536  0.5221
  133MOL   C19029494   6.297   5.959   7.773  0.6242 -0.2145  0.7613
  133MOL   C19129495   6.340   5.933   7.624 -0.6114  0.9714 -0.2778
  133MOL   O19229496   6.387   5.824   7.591  0.2320  0.0614 -0.0571
  133MOL   C19329497   6.315   6.039   7.517  0.2302 -0.1612  0.4380
  133MOL   H19429498   6.376   5.768   7.839  0.7303 -0.4030  1.7609
  133MOL   H19529499   6.340   5.875   0.110  2.2594 -1.6720  1.2990
  133MOL   H19629500   6.313   6.062   7.804  1.1795  0.0637 -0.4065
  133MOL   H19729501   6.398   6.055   7.448  0.1455  1.3487  0.6811
  133MOL   H19829502   6.228   6.016   7.455  0.2168  1.1863 -0.0499
  133MOL   H19929503   6.296   6.138   7.558  0.8631 -0.6625  1.9636
  133MOL   C20029504   6.151   5.923   7.779  1.0552  0.1763  0.4507
  133MOL   C20129505   6.052   6.033   7.736  0.3576  0.2887 -0.7732
  133MOL   C20229506   6.061   6.165   7.818 -0.8281  0.2873  0.6657
  133MOL   O20329507   6.113   6.184   0.069  0.2098  0.0955  0.1720
  133MOL   C20429508   5.995   6.283   7.746  0.2366 -0.5235  0.1039
  133MOL   H20529509   6.127   5.830   7.728 -1.8261 -0.3833  2.7091
  133MOL   H20629510   6.110   5.903   0.020  0.0776  0.7211  0.1636
  133MOL   H20729511   6.077   6.056   7.633 -0.4290  1.7926 -0.6406
  133MOL   H20829512   6.008   6.375   7.802  0.0854  0.5536 -1.5874
  133MOL   H20929513   6.041   6.294   7.648  0.2390 -0.6907  0.0857
  133MOL   H21029514   5.892   6.257   7.721  0.0502  0.0218  0.3201
  133MOL   C21129515   5.909   5.973   7.754  0.3362  0.1889 -1.2569
  133MOL   C21229516   5.856   5.892   7.628 -0.0533  0.3238 -1.2493
  133MOL   C21329517   5.827   5.977   7.502  0.4229  0.2108 -0.2173
  133MOL   O21429518   5.788   6.094   7.510  0.3316 -0.1940  0.5510
  133MOL   C21529519   5.856   5.914   7.364 -0.4011 -0.4468  0.1007
  133MOL   H21629520   5.893   5.923   7.849 -2.5039  1.3396 -1.0608
  133MOL   H21729521   5.836   6.054   7.767  0.1323 -0.3083  0.8493
  133MOL   H21829522   5.757   5.850   7.646  0.0013  0.8687  0.4067
  133MOL   H21929523   5.766   5.871   7.320  0.6778 -0.4297 -2.2192
  133MOL   H22029524   5.887   5.992   7.294  0.3319  0.7923  1.7762
  133MOL   H22129525   5.937   5.843   7.376  0.6211  0.6335 -0.2639
  133MOL   H22229526   5.927   5.810   7.613 -0.2839 -0.4424  1.6394
  134MOL     C129527   4.934   5.497   2.727 -1.2273 -0.5103  0.2274
  134MOL     C229528   4.916   5.617   2.635 -0.0306 -0.7454 -0.4318
  134MOL     C329529   5.042   5.711   2.638 -0.5722  0.4053  0.2238
  134MOL     O429530   5.035   5.835   2.655  0.1121  0.3822 -0.2044
  134MOL     C529531   5.177   5.646   2.619 -0.3653 -1.0909 -0.0305
  134MOL     H629532   5.024   5.442   2.699 -0.0649  1.0244  0.8400
  134MOL     H729533   4.846   5.434   2.720 -0.8874 -1.0734  0.9499
  134MOL     H829534   4.838   5.688   2.662 -0.5847 -0.9626 -1.4621
  134MOL     H929535   5.205   5.635   2.514  2.5856  2.6956  0.2550
  134MOL    H1029536   5.252   5.718   2.650  0.9817 -2.5908  0.2776
  134MOL    H1129537   5.195   5.553   2.673  1.6098 -0.5715  0.2554
  134MOL    H1229538   4.941   5.537   2.829  2.3810  1.0863 -0.5529
  134MOL    C1329539   4.885   5.578   2.488 -0.4791  0.7441 -0.0530
  134MOL    C1429540   4.875   5.692   2.383  0.6036 -0.0186 -0.2931
  134MOL    C1529541   4.737   5.764   2.411 -0.2861  0.1517 -0.2382
  134MOL    O1629542   4.636   5.701   2.419 -0.5135 -0.6696 -0.4346
  134MOL    C1729543   4.734   5.915   2.431 -0.2298  0.2103 -0.2825
  134MOL    H1829544   4.960   5.510   2.448 -1.7332 -0.3507 -0.5761
  134MOL    H1929545   4.798   5.512   2.490  0.9714 -1.1647  1.9184
  134MOL    H2029546   4.951   5.768   2.405  0.4473 -0.3139  1.3421
  134MOL    H2129547   4.644   5.960   2.473 -0.8771 -1.5338  0.2478
  134MOL    H2229548   4.817   5.932   2.500  0.5612 -0.4619 -1.0413
  134MOL    H2329549   4.772   5.961   2.340  0.3789  1.4729  0.5975
  134MOL    C2429550   4.881   5.647   2.232  0.0172  0.3897 -0.3735
  134MOL    C2529551   4.924   5.764   2.139  0.0932  0.7586  0.5431
  134MOL    C2629552   5.064   5.802   2.178  0.1186 -0.6284 -0.0258
  134MOL    O2729553   5.156   5.721   2.171  0.6366  0.4730  0.0821
  134MOL    C2829554   5.083   5.946   2.224  0.4452 -0.0613 -0.2517
  134MOL    H2929555   4.951   5.566   2.213  0.7770  1.0455 -0.4057
  134MOL    H3029556   4.784   5.604   2.207  0.5357 -0.1289 -1.5444
  134MOL    H3129557   4.859   5.850   2.155 -1.3464 -0.1707 -0.0913
  134MOL    H3229558   5.102   6.007   2.136  0.8734 -3.4295 -2.6228
  134MOL    H3329559   4.994   5.980   2.275  1.7007  1.5010  0.9545
  134MOL    H3429560   5.167   5.953   2.293 -1.0555  2.1073  1.4043
  134MOL    C3529561   4.919   5.720   1.987  0.1066 -0.3236  0.5274
  134MOL    C3629562   4.929   5.835   1.880  0.4116  0.4041 -0.2297
  134MOL    C3729563   5.071   5.864   1.821 -0.3176  0.3782  0.1392
  134MOL    O3829564   5.145   5.954   1.865 -0.0714  0.6741 -0.1340
  134MOL    C3929565   5.128   5.777   1.709 -0.0597  0.3508  0.5280
  134MOL    H4029566   4.834   5.657   1.962 -0.1103  0.3978 -0.6118
  134MOL    H4129567   5.001   5.650   1.972  2.7526  2.3777  1.9164
  134MOL    H4229568   4.910   5.923   1.941 -3.6334  0.2941 -1.2137
  134MOL    H4329569   5.200   5.838   1.654 -1.0049  1.9733  1.0398
  134MOL    H4429570   5.047   5.741   1.645  1.2968 -1.3101 -0.2856
  134MOL    H4529571   5.183   5.696   1.756  0.7152  0.8661  0.5260
  134MOL    C4629572   4.824   5.819   1.763 -0.3841  0.2946  0.0637
  134MOL    C4729573   4.676   5.852   1.797 -0.0507 -0.1612 -0.4427
  134MOL    C4829574   4.631   5.995   1.829 -0.1324  0.3211 -0.0237
  134MOL    O4929575   4.675   6.096   1.778 -0.6246  0.4240 -0.3896
  134MOL    C5029576   4.531   6.022   1.943  0.4230 -0.3706 -0.0238
  134MOL    H5129577   4.829   5.713   1.737 -0.5512  0.1775  0.4915
  134MOL    H5229578   4.854   5.868   1.671 -0.8713 -1.2196 -0.9118
  134MOL    H5329579   4.676   5.789   1.886  3.4488  0.8002  0.3143
  134MOL    H5429580   4.522   6.130   1.957  1.3739  0.0449 -2.3061
  134MOL    H5529581   4.437   5.975   1.915  0.5853 -1.3878  1.1119
  134MOL    H5629582   4.559   5.970   2.034  2.8167 -0.6978 -0.9260
  134MOL    C5729583   4.581   5.794   1.688  0.0280 -0.0023 -0.3618
  134MOL    C5829584   4.496   5.669   1.716 -0.1248  0.1886  0.5280
  134MOL    C5929585   4.593   5.550   1.719 -0.4958  0.0135 -0.6639
  134MOL    O6029586   4.630   5.514   1.831  0.1722 -0.3832  0.4959
  134MOL    C6129587   4.622   5.482   1.590  0.5782 -0.3357 -0.9282
  134MOL    H6229588   4.643   5.777   1.600  0.4483  2.8750 -0.6825
  134MOL    H6329589   4.514   5.868   1.644 -0.3613  1.3564  2.4135
  134MOL    H6429590   4.431   5.655   1.629 -0.7088 -1.3191  1.1976
  134MOL    H6529591   4.546   5.480   1.512  0.1194 -0.1708 -0.4954
  134MOL    H6629592   4.709   5.526   1.541  0.6841 -0.6539 -1.0279
  134MOL    H6729593   4.641   5.378   1.619  0.0912 -0.0020  0.6786
  134MOL    C6829594   4.406   5.677   1.843  0.4406  0.4483  0.0108
  134MOL    C6929595   4.311   5.552   1.874 -0.0203 -0.2722 -0.5860
  134MOL    C7029596   4.220   5.504   1.756  0.4427 -0.0273 -0.4973
  134MOL    O7129597   4.119   5.565   1.732 -0.6872  0.1194 -0.5032
  134MOL    C7229598   4.260   5.386   1.687 -0.3087  0.5618 -0.1454
  134MOL    H7329599   4.465   5.696   1.933 -2.7455  0.5484  2.1973
  134MOL    H7429600   4.342   5.765   1.830 -0.1901  0.2781  1.7116
  134MOL    H7529601   4.377   5.469   1.902 -0.8811 -1.5657 -2.3083
  134MOL    H7629602   4.230   5.367   1.584 -3.3304 -2.9420  1.2588
  134MOL    H7729603   4.369   5.386   1.686 -0.2802 -0.3450  1.5877
  134MOL    H7829604   4.224   5.290   1.724 -0.0560  0.9581  1.1754
  134MOL    C7929605   4.233   5.580   2.008  0.0695 -0.5525  1.0070
  134MOL    C8029606   4.216   5.469   2.119  0.3171  0.3112  0.0089
  134MOL    C8129607   4.355   5.427   2.171 -0.1483 -0.1273  0.3918
  134MOL    O8229608   4.416   5.330   2.123 -0.2756 -0.4510 -0.0379
  134MOL    C8329609   4.422   5.528   2.262  0.1631 -0.2731 -0.3138
  134MOL    H8429610   4.133   5.605   1.973 -0.0846 -1.0522  1.0824
  134MOL    H8529611   4.273   5.664   2.065  1.8791  1.4426 -3.0421
  134MOL    H8629612   4.170   5.517   2.206  0.8199 -0.7912  0.8851
  134MOL    H8729613   4.372   5.623   2.281  1.7179  0.6399 -0.6649
  134MOL    H8829614   4.513   5.559   2.211 -0.6368 -1.3200 -2.4444
  134MOL    H8929615   4.447   5.484   2.358  0.4501 -0.9807 -0.7115
  134MOL    C9029616   4.127   5.350   2.073  0.0289  0.2108 -0.1303
  134MOL    C9129617   4.092   5.249   2.173 -0.4240  0.8113  0.1401
  134MOL    C9229618   4.036   5.311   2.301  0.3620 -0.1433  0.3470
  134MOL    O9329619   3.931   5.375   2.297 -0.2838 -0.0397  0.2044
  134MOL    C9429620   4.119   5.307   2.432  0.3696 -0.1077 -0.9033
  134MOL    H9529621   4.035   5.386   2.026 -0.0455  1.4253  0.8909
  134MOL    H9629622   4.181   5.292   1.999  0.2113 -1.5343  1.3338
  134MOL    H9729623   4.195   5.216   2.193  1.1564  3.3678 -3.3831
  134MOL    H9829624   4.099   5.216   2.489 -1.2275 -0.5860 -2.1960
  134MOL    H9929625   4.227   5.318   2.429  0.4639 -0.8966 -0.5227
  134MOL   H10029626   4.095   5.394   2.493 -0.5437 -0.9469 -0.0294
  134MOL   C10129627   4.003   5.145   2.118 -0.0770 -0.9672  0.1321
  134MOL   C10229628   4.070   5.005   2.124 -0.5795 -0.4733 -0.0093
  134MOL   C10329629   4.173   4.975   2.019  0.2040 -0.8656  0.1094
  134MOL   O10429630   4.143   4.975   1.901  0.2626  0.0815 -0.4154
  134MOL   C10529631   4.315   4.982   2.069 -0.1346 -0.6966  0.0255
  134MOL   H10629632   3.910   5.145   2.175  0.7492  2.0045  1.5904
  134MOL   H10729633   3.977   5.165   2.014  1.3314 -2.2394 -0.4907
  134MOL   H10829634   4.120   5.010   2.221 -1.2517  0.7603  0.2865
  134MOL   H10929635   4.327   5.040   2.160  2.7687 -0.6666 -0.3228
  134MOL   H11029636   4.369   4.888   2.083  2.3666  0.6311 -0.3139
  134MOL   H11129637   4.373   5.039   1.997 -1.2095 -0.5348 -0.7265
  134MOL   C11229638   3.954   4.903   2.111 -0.7558  0.5772 -0.3813
  134MOL   C11329639   3.891   4.871   2.250 -0.0040  0.0107  0.1523
  134MOL   C11429640   3.934   4.734   2.299  0.5504  0.4065  0.2909
  134MOL   O11529641   3.901   4.629   2.239 -0.0903  0.2400 -0.3281
  134MOL   C11629642   4.023   4.730   2.420 -0.0468 -0.0431 -0.0567
  134MOL   H11729643   3.993   4.814   2.062  1.1000  0.3059  1.5295
  134MOL   H11829644   3.868   4.943   2.059  0.0646 -0.5451 -2.6829
  134MOL   H11929645   3.944   4.945   2.310  3.3984 -1.6175 -0.7075
  134MOL   H12029646   4.122   4.719   2.375 -1.1885  1.8235 -3.1723
  134MOL   H12129647   4.021   4.824   2.475  1.4095  0.1526 -0.3150
  134MOL   H12229648   3.994   4.650   2.487 -0.8879  0.4840  0.2105
  134MOL   C12329649   3.739   4.901   2.270 -0.0433 -0.1954  0.4377
  134MOL   C12429650   3.694   4.938   2.411  0.3123 -0.1446  0.2878
  134MOL   C12529651   3.763   5.070   2.457  0.9923 -0.2998 -0.3506
  134MOL   O12629652   3.871   5.076   2.508  0.3012 -0.4362 -0.5088
  134MOL   C12729653   3.691   5.201   2.421  0.7857 -0.2427 -0.3353
  134MOL   H12829654   3.684   4.816   2.229 -0.6992 -0.1540  1.2232
  134MOL   H12929655   3.715   4.982   2.201 -0.0500 -1.6279 -1.2712
  134MOL   H13029656   3.589   4.969   2.414 -0.8151 -3.7657  1.0998
  134MOL   H13129657   3.722   5.262   2.337 -0.6462 -0.0852 -0.7640
  134MOL   H13229658   3.718   5.269   2.502  0.8181  0.0004 -0.5505
  134MOL   H13329659   3.582   5.192   2.423  0.8325 -0.8204  0.3013
  134MOL   C13429660   3.711   4.830   2.511 -0.0341  0.3737 -0.8543
  134MOL   C13529661   3.631   4.845   2.645 -0.0229 -0.1235  0.2709
  134MOL   C13629662   3.480   4.819   2.625  0.6011  0.8630 -0.0788
  134MOL   O13729663   3.444   4.740   2.538 -0.1124  0.0956 -0.4787
  134MOL   C13829664   3.393   4.873   2.731  0.5426 -0.4676  0.2638
  134MOL   H13929665   3.813   4.826   2.549 -0.6341 -1.8108  0.6001
  134MOL   H14029666   3.672   4.740   2.465  0.9845 -0.8320  0.5979
  134MOL   H14129667   3.623   4.947   2.682 -3.2605  0.3816 -1.6291
  134MOL   H14229668   3.308   4.807   2.749  1.0421 -1.9482 -2.5775
  134MOL   H14329669   3.356   4.967   2.690 -0.9970 -0.0375  2.5204
  134MOL   H14429670   3.457   4.889   2.818  0.4895  1.1029  0.0369
  134MOL   C14529671   3.689   4.759   2.754  0.1581  1.0721  0.0436
  134MOL   C14629672   3.829   4.808   2.814 -0.2866 -1.1046 -0.1467
  134MOL   C14729673   3.833   4.950   2.870 -0.7499  0.2027  0.3388
  134MOL   O14829674   3.740   4.997   2.933 -0.4281 -0.3566  0.3524
  134MOL   C14929675   3.966   5.024   2.836  0.3386  0.2985 -0.0816
  134MOL   H15029676   3.702   4.659   2.712 -0.6588  0.8825  0.2426
  134MOL   H15129677   3.612   4.753   2.830  1.8257 -1.1832  1.6150
  134MOL   H15229678   3.900   4.801   2.732  1.2147 -0.8465  1.1103
  134MOL   H15329679   4.010   4.999   2.740  1.4897 -0.9142  0.7334
  134MOL   H15429680   3.951   5.131   2.819  1.4508  0.6600  1.0678
  134MOL   H15529681   4.044   5.016   2.913  2.6858 -0.9788 -2.5047
  134MOL   C15629682   3.880   4.702   2.917 -0.0817 -0.2372  0.0250
  134MOL   C15729683   4.020   4.716   2.981  0.0791 -0.6536  0.1200
  134MOL   C15829684   4.134   4.722   2.878 -0.4661 -0.3561  0.4886
  134MOL   O15929685   4.123   4.660   2.770 -0.0700 -0.0660 -0.0803
  134MOL   C16029686   4.274   4.769   2.928 -0.6671  0.2903 -0.1360
  134MOL   H16129687   3.805   4.701   2.996 -1.0112 -1.9634 -0.8447
  134MOL   H16229688   3.878   4.600   2.879 -0.5275 -0.3557  0.3549
  134MOL   H16329689   4.028   4.797   3.054 -0.1629 -0.7968  0.3074
  134MOL   H16429690   4.289   4.876   2.913 -0.5305 -0.0980 -3.0437
  134MOL   H16529691   4.349   4.719   2.866 -1.7225 -0.3534 -0.8899
  134MOL   H16629692   4.297   4.750   3.033 -0.1012  0.8862 -0.1428
  134MOL   C16729693   4.043   4.582   3.069 -0.1984  0.1241 -0.5261
  134MOL   C16829694   3.970   4.578   3.205 -0.0134  0.0267  0.2231
  134MOL   C16929695   4.017   4.686   3.307  0.6040  0.2780  0.3842
  134MOL   O17029696   4.129   4.734   3.303  0.0793 -0.4771  0.2802
  134MOL   C17129697   3.929   4.713   3.430 -0.7524  0.1795  0.2391
  134MOL   H17229698   4.014   4.503   3.000 -3.6760  1.6122 -0.8794
  134MOL   H17329699   4.152   4.574   3.074 -0.1562  0.5261 -0.8368
  134MOL   H17429700   3.862   4.592   3.195 -0.2224 -1.6174 -0.0933
  134MOL   H17529701   3.934   4.648   3.517  1.0148  1.9763  1.5120
  134MOL   H17629702   3.823   4.729   3.415 -0.7574  0.4302  0.5341
  134MOL   H17729703   3.961   4.809   3.470 -0.3569  0.6279 -1.1254
  134MOL   C17829704   3.985   4.443   3.280  0.4017  0.4867  0.0043
  134MOL   C17929705   4.121   4.398   3.339  0.4415  0.1508 -1.0296
  134MOL   C18029706   4.229   4.359   3.228  0.4032 -0.0095  0.0713
  134MOL   O18129707   4.205   4.278   3.139  0.4860 -0.2007 -0.2231
  134MOL   C18229708   4.348   4.456   3.223 -0.2419  0.2009  0.3703
  134MOL   H18329709   3.901   4.434   3.349  2.0897 -3.7121  1.7286
  134MOL   H18429710   3.960   4.359   3.215 -0.1695 -1.2621  2.3831
  134MOL   H18529711   4.156   4.480   3.401 -1.1415 -0.3030  0.4941
  134MOL   H18629712   4.438   4.416   3.269  0.5408  2.4260  0.8613
  134MOL   H18729713   4.321   4.546   3.279 -1.4724 -0.6490  1.1736
  134MOL   H18829714   4.391   4.487   3.128 -0.0130 -0.0494  0.3941
  134MOL   C18929715   4.112   4.282   3.437  0.1618  0.1713 -0.1818
  134MOL   C19029716   4.073   4.310   3.586  0.7052  0.9819  0.2995
  134MOL   C19129717   4.175   4.402   3.652 -0.0072 -0.4622 -0.8116
  134MOL   O19229718   4.181   4.519   3.615 -0.1931  0.0669 -0.1196
  134MOL   C19329719   4.258   4.346   3.771  0.4174 -0.2868 -0.0050
  134MOL   H19429720   4.036   4.216   3.394  2.3780 -3.3597  1.1535
  134MOL   H19529721   4.203   4.222   3.443 -0.5656 -1.0698 -1.3236
  134MOL   H19629722   4.081   4.218   3.644  1.6883  2.2331  2.2066
  134MOL   H19729723   4.347   4.301   3.727 -0.4288 -1.4901 -0.5169
  134MOL   H19829724   4.284   4.428   3.839 -1.4038  0.6020 -0.3320
  134MOL   H19929725   4.201   4.266   3.819  2.0497  0.9678  4.3034
  134MOL   C20029726   3.929   4.357   3.603  0.1816  0.0187 -0.0194
  134MOL   C20129727   3.874   4.347   3.744  0.6990 -0.7303  0.5226
  134MOL   C20229728   3.851   4.213   3.802  0.1589 -0.0163  0.7518
  134MOL   O20329729   3.826   4.115   3.729  0.0279  0.8416 -0.0205
  134MOL   C20429730   3.860   4.194   3.950 -0.3788  0.1734 -0.7887
  134MOL   H20529731   3.915   4.459   3.568 -1.0535 -0.0707  0.1986
  134MOL   H20629732   3.867   4.292   3.542  1.1689  0.1371 -1.1683
  134MOL   H20729733   3.948   4.388   3.813 -1.4323  2.9862  0.7152
  134MOL   H20829734   3.903   4.095   3.966 -0.0046  0.4460 -0.0622
  134MOL   H20929735   3.929   4.269   3.989  0.7080 -0.2069 -1.9836
  134MOL   H21029736   3.761   4.204   3.995 -0.9409  0.0486 -1.9860
  134MOL   C21129737   3.761   4.450   3.779 -0.6144  0.7187 -0.4944
  134MOL   C21229738   3.637   4.430   3.695  0.3499  0.0057  0.3349
  134MOL   C21329739   3.632   4.516   3.572  0.1605  0.9727  0.0651
  134MOL   O21429740   3.637   4.464   3.457 -0.3549 -0.4797  0.4825
  134MOL   C21529741   3.617   4.670   3.592 -0.1614  0.6421  0.1505
  134MOL   H21629742   3.725   4.423   3.878 -0.3541 -2.1465 -1.1336
  134MOL   H21729743   3.799   4.552   3.778  0.2653  0.4197  1.2771
  134MOL   H21829744   3.550   4.460   3.753 -1.0925 -1.3806 -1.0711
  134MOL   H21929745   3.718   4.707   3.606  0.5834 -0.4848 -2.0847
  134MOL   H22029746   3.579   4.716   3.501  1.5781  0.1019 -0.8542
  134MOL   H22129747   3.548   4.679   3.677 -0.8379 -0.5469 -0.2506
  134MOL   H22229748   3.629   4.325   3.668 -0.4355  0.0152  0.5086
  135MOL     C129749   7.161   0.038   2.246 -0.7856  0.7661  0.2352
  135MOL     C229750   7.121   7.744   2.274  0.0700  0.6485 -0.0617
  135MOL     C329751   6.978   7.716   2.242  0.0033  0.0629  0.5823
  135MOL     O429752   6.914   7.773   2.154 -0.4773 -0.1862  0.3144
  135MOL     C529753   6.921   7.597   2.321  0.6099 -0.1660 -0.4453
  135MOL     H629754   7.091   0.098   2.304 -1.1365  1.2325 -0.6625
  135MOL     H729755   7.151   0.063   2.141 -2.7590  1.3153  0.5365
  135MOL     H829756   7.138   7.718   2.378 -0.1342  2.0327  0.3310
  135MOL     H929757   6.861   7.545   2.246  0.3309 -0.7216  0.1657
  135MOL    H1029758   7.004   7.540   2.361 -0.7986 -0.9609  1.4552
  135MOL    H1129759   6.849   7.638   2.393 -0.3133 -2.3777 -0.0618
  135MOL    H1229760   7.260   0.063   2.283  0.4894 -0.2864 -2.3672
  135MOL    C1329761   7.214   7.643   2.205 -0.6459  0.2582 -0.1944
  135MOL    C1429762   7.366   7.659   2.230 -0.4222  0.3668 -0.1505
  135MOL    C1529763   7.438   7.558   2.135  0.2648 -0.0365 -0.1060
  135MOL    O1629764   7.459   7.443   2.174  0.1425 -0.7256  0.0743
  135MOL    C1729765   7.492   7.606   1.998  0.2497 -0.6071 -0.5801
  135MOL    H1829766   7.187   7.551   2.257  1.6961  0.2075  1.0218
  135MOL    H1929767   7.188   7.626   2.101  2.1961 -0.0031 -0.9157
  135MOL    H2029768   7.412   7.746   2.183 -0.3392  0.4036 -0.0002
  135MOL    H2129769   7.449   7.701   1.965 -0.3232 -0.6841 -0.0733
  135MOL    H2229770   7.600   7.622   1.997  0.3240 -1.1052 -1.9046
  135MOL    H2329771   7.470   7.531   1.922 -1.7540 -3.5965  2.7705
  135MOL    C2429772   7.404   7.657   2.386 -0.3138 -0.2609  0.2618
  135MOL    C2529773   7.555   7.656   2.423  0.0225 -0.5658 -0.4304
  135MOL    C2629774   7.611   7.783   2.353  0.0666 -0.6052  0.0297
  135MOL    O2729775   7.547   0.031   2.345  0.3903  0.2452  0.0038
  135MOL    C2829776   7.753   7.778   2.294 -0.0351 -0.2556  0.0643
  135MOL    H2929777   7.358   7.748   2.423  1.4945  0.3320  1.1285
  135MOL    H3029778   7.340   7.586   2.437  0.2706  0.0048  1.3754
  135MOL    H3129779   7.603   7.568   2.381 -0.2162 -1.6939  1.5956
  135MOL    H3229780   7.824   7.710   2.340  1.4048  2.0134  1.3178
  135MOL    H3329781   7.765   7.750   2.190  1.2372  0.9964 -0.1426
  135MOL    H3429782   7.785   0.023   2.313  1.1194 -0.6603  0.3449
  135MOL    C3529783   7.586   7.668   2.575 -0.5777  0.0673 -0.0614
  135MOL    C3629784   7.530   7.547   2.651 -0.2993 -0.2033  0.8118
  135MOL    C3729785   7.616   7.419   2.613 -0.2086 -0.1504 -0.0313
  135MOL    O3829786   7.549   7.318   2.582 -0.0763 -0.2017 -0.1504
  135MOL    C3929787   7.763   7.413   2.576 -0.0439  0.2912  0.6106
  135MOL    H4029788   7.534   7.754   2.617  1.1488 -0.7497  3.9743
  135MOL    H4129789   7.691   7.685   2.600 -0.2756  0.2418 -1.4038
  135MOL    H4229790   7.429   7.516   2.622 -1.0818  1.5517  1.5833
  135MOL    H4329791   7.784   7.462   2.481  0.2638 -3.0508 -1.1041
  135MOL    H4429792   7.805   7.314   2.591  0.1343  0.2052 -0.4206
  135MOL    H4529793   7.823   7.470   2.647  0.3237  2.8059 -1.6050
  135MOL    C4629794   7.531   7.567   2.808 -0.7791 -0.2179 -0.0061
  135MOL    C4729795   7.418   7.661   2.862 -0.2210  0.1683  0.4575
  135MOL    C4829796   7.282   7.596   2.857  1.2740  0.0578  0.0093
  135MOL    O4929797   7.236   7.540   2.961  1.0027  0.4048 -0.3490
  135MOL    C5029798   7.191   7.624   2.743 -0.3713 -0.3346  0.5478
  135MOL    H5129799   7.631   7.603   2.834 -0.4038  0.7920 -2.6735
  135MOL    H5229800   7.528   7.472   2.861  3.6697 -0.2404  0.4033
  135MOL    H5329801   7.421   7.751   2.801  0.9357 -0.7141 -0.8345
  135MOL    H5429802   7.256   7.618   2.655  0.9057 -0.7190  1.5107
  135MOL    H5529803   7.113   7.548   2.745 -1.6691  0.9921  1.3652
  135MOL    H5629804   7.137   7.719   2.743 -1.4994 -0.9630  1.5801
  135MOL    C5729805   7.444   7.736   2.996 -0.2587  0.6101 -0.7003
  135MOL    C5829806   7.440   7.678   3.145 -0.7564 -0.4353  0.3171
  135MOL    C5929807   7.584   7.623   3.183 -0.3460 -0.5135 -0.5260
  135MOL    O6029808   7.683   7.636   3.110  0.9328 -0.2211  0.2705
  135MOL    C6129809   7.594   7.550   3.316  0.2953 -0.7040  0.3364
  135MOL    H6229810   7.364   7.809   2.989 -0.3535  0.5777  0.0132
  135MOL    H6329811   7.534   7.796   2.984  1.7493 -1.6248  2.1754
  135MOL    H6429812   7.377   7.589   3.146  2.8975 -3.1650  0.0870
  135MOL    H6529813   7.626   7.447   3.303  0.0348 -0.6274 -1.0105
  135MOL    H6629814   7.668   7.611   3.367 -0.4138  0.3115  0.1777
  135MOL    H6729815   7.498   7.562   3.367 -0.1446  2.0505 -1.0237
  135MOL    C6829816   7.390   7.779   3.246 -0.3499 -0.5268  0.2508
  135MOL    C6929817   7.280   7.724   3.331  0.8059 -0.5607 -0.1697
  135MOL    C7029818   7.141   7.738   3.264 -0.3503 -0.0588 -0.0963
  135MOL    O7129819   7.129   7.818   3.176  0.2945 -0.6326 -0.3083
  135MOL    C7229820   7.027   7.661   3.320  0.1146  0.8303 -0.1900
  135MOL    H7329821   7.466   7.809   3.318  0.0787  2.5448 -1.4083
  135MOL    H7429822   7.359   0.012   3.195  0.3461  1.1929  2.7679
  135MOL    H7529823   7.304   7.620   3.352  2.1086 -0.0960  0.7013
  135MOL    H7629824   6.964   7.613   3.245  2.1763  1.8214 -2.6284
  135MOL    H7729825   7.053   7.581   3.388  3.3608  0.2520 -2.0157
  135MOL    H7829826   6.965   7.730   3.378  1.8413  1.8967  0.4282
  135MOL    C7929827   7.282   7.776   3.476 -0.0823 -0.5980 -0.1841
  135MOL    C8029828   7.226   0.060   3.502  0.0349  1.1889  0.5658
  135MOL    C8129829   7.316   0.172   3.454 -0.1514  0.2128 -0.8334
  135MOL    O8229830   7.438   0.170   3.463  0.4039 -0.3565 -0.3887
  135MOL    C8329831   7.248   0.299   3.406 -0.4031 -0.2875  0.1062
  135MOL    H8429832   7.383   7.767   3.514 -0.3269 -1.7083  0.2249
  135MOL    H8529833   7.227   7.701   3.533  1.5007 -0.4598  1.5686
  135MOL    H8629834   7.131   0.065   3.448 -0.0328  0.1627  0.5887
  135MOL    H8729835   7.288   0.392   3.446 -3.4443  1.6475 -1.1794
  135MOL    H8829836   7.144   0.291   3.436 -0.4137  0.1564  0.1855
  135MOL    H8929837   7.267   0.310   3.299 -0.4669  0.5320  0.1767
  135MOL    C9029838   7.198   0.081   3.650 -0.2975 -0.1194 -0.0348
  135MOL    C9129839   7.088   0.175   3.680 -0.5175  0.9093 -0.8197
  135MOL    C9229840   6.955   0.141   3.615  0.2302  0.3055 -0.4976
  135MOL    O9329841   6.906   0.025   3.607 -0.0838 -0.1629  0.0912
  135MOL    C9429842   6.867   0.256   3.567  0.6135  0.6207 -0.0327
  135MOL    H9529843   7.167   7.841   3.690  0.7483  0.0256  1.1446
  135MOL    H9629844   7.293   0.103   3.698  0.0951 -1.2540 -0.2808
  135MOL    H9729845   7.122   0.267   3.632  0.2880  0.9229 -0.2346
  135MOL    H9829846   6.771   0.228   3.523  0.6929 -1.3022  0.9694
  135MOL    H9929847   6.838   0.326   3.645 -1.6353 -0.6819  0.3413
  135MOL   H10029848   6.922   0.317   3.495  0.1370 -1.1955 -1.9960
  135MOL   C10129849   7.083   0.209   3.834 -0.5959 -0.5947  0.2179
  135MOL   C10229850   7.075   0.360   3.870  0.1465  0.1821  0.3465
  135MOL   C10329851   7.211   0.426   3.853  0.6012  0.1645  0.2467
  135MOL   O10429852   7.322   0.371   3.858 -0.0736  0.1325 -0.0475
  135MOL   C10529853   7.206   0.581   3.838  0.5694  0.9303 -0.4586
  135MOL   H10629854   6.998   0.153   3.874 -0.8422 -0.9570 -0.7812
  135MOL   H10729855   7.168   0.162   3.884 -0.9167 -0.8337  0.5459
  135MOL   H10829856   7.012   0.412   3.798  0.0172  0.6178  0.7709
  135MOL   H10929857   7.307   0.620   3.849  1.2523 -0.2495 -2.2748
  135MOL   H11029858   7.165   0.599   3.738  0.8667  2.8860 -0.2427
  135MOL   H11129859   7.144   0.624   3.917  1.7094  2.5342 -0.4222
  135MOL   C11229860   7.030   0.391   4.017 -0.7349 -0.4460  0.3993
  135MOL   C11329861   6.874   0.408   4.028  0.2408 -0.2122 -0.4364
  135MOL   C11429862   6.811   0.527   3.951  0.1339 -0.5837  0.6579
  135MOL   O11529863   6.879   0.600   3.880  0.1364  0.4457  0.2055
  135MOL   C11629864   6.664   0.548   3.967  0.1442 -0.2844 -0.0426
  135MOL   H11729865   7.072   0.487   4.048 -1.1235 -0.7431  1.8606
  135MOL   H11829866   7.050   0.305   4.080 -0.8710 -1.0761 -0.4123
  135MOL   H11929867   6.824   0.325   3.979  1.2655 -0.4473 -1.1242
  135MOL   H12029868   6.626   0.607   3.883  0.9208 -2.4974 -2.0267
  135MOL   H12129869   6.615   0.451   3.976 -0.6509  0.0699 -0.4964
  135MOL   H12229870   6.646   0.601   4.060  0.2928  0.4957 -0.4533
  135MOL   C12329871   6.836   0.398   4.176  0.6832 -0.2922 -0.3394
  135MOL   C12429872   6.854   0.518   4.271 -0.1365  0.2295  0.2572
  135MOL   C12529873   6.999   0.546   4.306 -0.6468 -0.1158 -0.0045
  135MOL   O12629874   7.084   0.457   4.327 -0.0844  0.1539  0.5954
  135MOL   C12729875   7.043   0.689   4.327 -0.0036 -0.3899 -0.5654
  135MOL   H12829876   6.867   0.301   4.216 -2.3294 -1.5146 -0.8663
  135MOL   H12929877   6.728   0.385   4.178  0.4974  1.3212  0.9717
  135MOL   H13029878   6.809   0.598   4.212  0.7447  0.5377 -0.0030
  135MOL   H13129879   7.025   0.755   4.242 -1.6574 -0.0239  0.0548
  135MOL   H13229880   7.144   0.691   4.369 -0.6116  1.5873  0.9220
  135MOL   H13329881   6.984   0.729   4.410  1.3532 -0.1374  0.2908
  135MOL   C13429882   6.770   0.486   4.401 -0.4915 -0.8379  0.3458
  135MOL   C13529883   6.677   0.589   4.458  1.1192  0.4983 -0.4888
  135MOL   C13629884   6.558   0.608   4.364 -0.6068 -0.2372 -0.4621
  135MOL   O13729885   6.513   0.514   4.296 -0.8097  0.2696  0.1997
  135MOL   C13829886   6.491   0.743   4.369 -0.3265 -0.2179  0.1952
  135MOL   H13929887   6.839   0.467   4.484  2.4287  0.3923 -1.7138
  135MOL   H14029888   6.739   0.382   4.394  0.7419 -1.2216  0.2962
  135MOL   H14129889   6.733   0.683   4.451 -1.0498  1.9259  0.8849
  135MOL   H14229890   6.454   0.776   4.272  1.0793  1.2181  0.1167
  135MOL   H14329891   6.549   0.822   4.417  0.4080 -2.0401  2.3690
  135MOL   H14429892   6.396   0.738   4.422 -0.9306 -0.7026 -0.9258
  135MOL   C14529893   6.627   0.561   4.614 -0.8170 -0.3028 -0.1192
  135MOL   C14629894   6.581   0.681   4.691  0.2420 -0.2485 -0.6088
  135MOL   C14729895   6.519   0.630   4.828  0.2236  0.3151 -0.0166
  135MOL   O14829896   6.596   0.610   4.920 -0.0733  0.1618  0.5316
  135MOL   C14929897   6.372   0.608   4.842 -0.4261  0.4325 -0.2747
  135MOL   H15029898   6.713   0.516   4.664 -0.9157 -0.5472 -0.1692
  135MOL   H15129899   6.553   0.482   4.609  0.1303 -1.3579  2.1025
  135MOL   H15229900   6.492   0.727   4.647  0.2920 -0.0518 -0.5049
  135MOL   H15329901   6.345   0.604   4.947 -2.2964  0.3808 -0.7268
  135MOL   H15429902   6.321   0.700   4.813 -1.7725 -0.2678 -0.1579
  135MOL   H15529903   6.343   0.527   4.775  0.5622 -0.3468  0.2382
  135MOL   C15629904   6.690   0.784   4.710  0.8556  0.3779 -0.1482
  135MOL   C15729905   6.657   0.929   4.739  0.0116 -0.5374  0.6248
  135MOL   C15829906   6.563   0.984   4.625  0.0683  0.1710 -0.8563
  135MOL   O15929907   6.623   1.034   4.530  0.4343 -0.1256  0.0634
  135MOL   C16029908   6.412   0.989   4.638 -0.5852  0.7049  0.7994
  135MOL   H16129909   6.770   0.750   4.777  2.2048  3.8211  0.1254
  135MOL   H16229910   6.728   0.799   4.609 -2.6161 -0.2513 -1.6009
  135MOL   H16329911   6.607   0.928   4.835 -0.3189 -1.2176  0.4467
  135MOL   H16429912   6.393   1.095   4.629  1.7476  1.1972  1.2141
  135MOL   H16529913   6.394   0.952   4.739  1.6100 -2.7085  0.0754
  135MOL   H16629914   6.361   0.929   4.562  3.2671 -0.6847 -0.8244
  135MOL   C16729915   6.780   1.014   4.757  1.0721  0.4045  0.6303
  135MOL   C16829916   6.752   1.156   4.810  0.0095  0.2594 -0.2278
  135MOL   C16929917   6.842   1.261   4.741 -0.0368 -0.7774 -0.7091
  135MOL   O17029918   6.956   1.286   4.774  0.6520 -0.0081 -0.2797
  135MOL   C17129919   6.782   1.337   4.632  0.4020  0.3263  0.4885
  135MOL   H17229920   6.850   0.969   4.827 -0.5547  0.3329  2.2569
  135MOL   H17329921   6.846   1.007   4.671  0.5105 -1.0291  0.3165
  135MOL   H17429922   6.651   1.176   4.775 -0.5366  0.1232  1.2329
  135MOL   H17529923   6.845   1.426   4.626  1.4535 -0.5130 -1.5619
  135MOL   H17629924   6.678   1.366   4.638  0.7899  1.6015  1.2600
  135MOL   H17729925   6.798   1.299   4.531  1.4022 -0.7497  1.0384
  135MOL   C17829926   6.759   1.164   4.960 -0.3559 -0.2209 -0.1923
  135MOL   C17929927   6.708   1.293   5.025 -0.6487 -0.4452 -0.1769
  135MOL   C18029928   6.731   1.284   5.173  0.1960 -0.4175 -0.0365
  135MOL   O18129929   6.669   1.207   5.243  1.1611 -0.0045 -0.1773
  135MOL   C18229930   6.839   1.377   5.234  0.0986  0.0634  0.2381
  135MOL   H18329931   6.682   1.094   4.992 -1.6221  1.0577 -0.3929
  135MOL   H18429932   6.861   1.144   4.992 -0.7798  0.2534  1.4780
  135MOL   H18529933   6.764   1.373   4.977  1.8090 -0.7661  2.0729
  135MOL   H18629934   6.910   1.420   5.164 -0.4503  0.7147  0.0760
  135MOL   H18729935   6.902   1.307   5.290 -0.8839 -0.9198  0.1242
  135MOL   H18829936   6.792   1.451   5.299 -0.6726  0.2373 -0.5079
  135MOL   C18929937   6.555   1.320   5.001  0.4008  0.4068 -0.1586
  135MOL   C19029938   6.505   1.460   5.031 -0.3716  0.2316 -0.5822
  135MOL   C19129939   6.486   1.560   4.916 -0.1270 -0.3977  0.6274
  135MOL   O19229940   6.376   1.597   4.877  0.2608  0.1186  0.1575
  135MOL   C19329941   6.613   1.615   4.851 -0.6995  0.2581 -0.3223
  135MOL   H19429942   6.536   1.299   4.896 -0.0645  0.9467 -0.1846
  135MOL   H19529943   6.507   1.238   5.055 -0.5337  2.0194  1.4895
  135MOL   H19629944   6.595   1.495   5.082  0.4885 -1.5640 -0.8414
  135MOL   H19729945   6.654   1.692   4.916  0.9459 -1.7213  1.0619
  135MOL   H19829946   6.681   1.531   4.854  0.6757  1.3461 -0.7310
  135MOL   H19929947   6.588   1.654   4.753 -1.0897  1.2908  0.1738
  135MOL   C20029948   6.406   1.452   5.152 -0.2280  0.4824  0.2278
  135MOL   C20129949   6.356   1.584   5.217  0.3626 -0.1766 -0.0641
  135MOL   C20229950   6.481   1.659   5.265  0.0021 -0.6181  0.4154
  135MOL   O20329951   6.510   1.764   5.207 -0.5351 -0.0047  0.2154
  135MOL   C20429952   6.559   1.592   5.380  0.2527  0.2352  0.0535
  135MOL   H20529953   6.317   1.394   5.125 -0.5928  1.8357 -1.5931
  135MOL   H20629954   6.457   1.390   5.226  1.2171  1.6128  0.1952
  135MOL   H20729955   6.302   1.638   5.139 -1.5580 -1.3078  0.4536
  135MOL   H20829956   6.550   1.640   5.477 -0.2403 -0.9649  0.6055
  135MOL   H20929957   6.540   1.486   5.391  2.0987 -0.2211 -0.9746
  135MOL   H21029958   6.664   1.606   5.354 -0.6937  3.3943 -2.4423
  135MOL   C21129959   6.255   1.543   5.331 -0.4041  0.4686  0.0259
  135MOL   C21229960   6.188   1.665   5.391 -0.0876 -0.3838  0.6105
  135MOL   C21329961   6.116   1.635   5.523 -0.3484 -0.1340 -0.3500
  135MOL   O21429962   6.169   1.674   5.629 -0.0509  0.6537  0.0814
  135MOL   C21529963   5.978   1.564   5.531  0.7358 -0.4845 -0.5474
  135MOL   H21629964   6.176   1.479   5.293  2.3074 -2.0086 -1.7081
  135MOL   H21729965   6.302   1.487   5.413  0.0058  0.2687 -0.3439
  135MOL   H21829966   6.122   1.710   5.317  1.6194  0.4197 -0.4582
  135MOL   H21929967   5.888   1.618   5.501  0.1794 -1.2512 -0.2912
  135MOL   H22029968   5.984   1.480   5.461  1.5466 -0.4518 -0.5244
  135MOL   H22129969   5.967   1.521   5.630 -0.4704 -0.3749 -0.6305
  135MOL   H22229970   6.251   1.754   5.402 -0.5883  0.0512 -0.0165
  136MOL     C129971   2.749   2.401   7.262 -0.8627  0.4453  0.0991
  136MOL     C229972   2.900   2.351   7.232 -0.3316 -1.0622 -0.0880
  136MOL     C329973   2.974   2.345   7.362  0.7957 -0.5411  0.6165
  136MOL     O429974   2.962   2.257   7.446 -0.4420 -0.0020 -0.4065
  136MOL     C529975   3.039   2.473   7.410 -0.6826  0.2284 -0.0525
  136MOL     H629976   2.705   2.447   7.173 -1.5493  1.3862  0.9254
  136MOL     H729977   2.740   2.467   7.347  1.5020  0.3468  0.4702
  136MOL     H829978   2.939   2.433   7.171 -1.7270 -0.5296 -0.2896
  136MOL     H929979   2.969   2.505   7.488  0.5464 -1.5625  1.8408
  136MOL    H1029980   3.128   2.430   7.455  0.1674 -2.5633 -4.1478
  136MOL    H1129981   3.051   2.543   7.327  1.4593  0.0035  0.0621
  136MOL    H1229982   2.705   2.305   7.289  1.2155 -0.3675  0.6633
  136MOL    C1329983   2.900   2.215   7.153  0.2988  0.1691 -0.3913
  136MOL    C1429984   3.021   2.188   7.050  0.0929 -0.6173  0.0414
  136MOL    C1529985   3.029   2.301   6.941 -0.4692 -0.1050 -0.0308
  136MOL    O1629986   3.131   2.361   6.913 -0.5794 -0.1658  0.1430
  136MOL    C1729987   2.900   2.318   6.864 -0.0125  0.7378 -0.1156
  136MOL    H1829988   2.895   2.135   7.226  1.3421  1.3438  1.0084
  136MOL    H1929989   2.802   2.207   7.105 -0.3844  4.8033 -0.0922
  136MOL    H2029990   3.114   2.203   7.106  0.0532 -2.3027  0.6103
  136MOL    H2129991   2.830   2.385   6.914 -2.9692 -1.3231 -1.3639
  136MOL    H2229992   2.910   2.335   6.757 -0.1041 -1.4862 -0.5086
  136MOL    H2329993   2.848   2.222   6.862  2.1160 -0.4312 -0.0440
  136MOL    C2429994   3.019   2.055   6.981 -0.2649 -0.5187 -0.0580
  136MOL    C2529995   3.048   1.927   7.066 -0.7236 -0.4204  0.1011
  136MOL    C2629996   2.967   1.802   7.023  0.1522  1.1395 -0.2196
  136MOL    O2729997   3.013   1.697   6.992  1.2231  0.1219  0.3494
  136MOL    C2829998   2.816   1.812   7.050  0.4843 -0.0439  0.7628
  136MOL    H2929999   2.923   2.047   6.929  0.1405  0.1738 -0.9323
  136MOL    H3030000   3.095   2.053   6.903  0.2793  0.0491  0.4526
  136MOL    H3130001   3.018   1.951   7.168  0.7489 -0.0581  0.4602
  136MOL    H3230002   2.794   1.917   7.071 -0.8930 -0.6274  2.3062
  136MOL    H3330003   2.765   1.789   6.957 -0.4769  0.3004  1.2030
  136MOL    H3430004   2.776   1.746   7.127 -1.3843  0.4196  0.2138
  136MOL    C3530005   3.199   1.898   7.081  0.0905 -0.4562 -0.2116
  136MOL    C3630006   3.237   1.805   7.192  0.1242  0.3215  0.2368
  136MOL    C3730007   3.354   1.717   7.143 -0.2923  0.4076 -0.4949
  136MOL    O3830008   3.472   1.755   7.150 -0.0718  0.2021  0.5670
  136MOL    C3930009   3.320   1.593   7.072  0.2036 -0.8761  0.2985
  136MOL    H4030010   3.241   1.997   7.102  0.4593 -0.9096  1.2331
  136MOL    H4130011   3.236   1.877   6.980  2.1207  0.0142  0.4033
  136MOL    H4230012   3.152   1.742   7.219  0.3097  1.0541  2.6631
  136MOL    H4330013   3.294   1.600   6.967  0.2242 -1.1013  0.2771
  136MOL    H4430014   3.225   1.556   7.110 -1.3544  1.9855 -0.7074
  136MOL    H4530015   3.403   1.524   7.090  0.4361 -0.4369  0.9251
  136MOL    C4630016   3.272   1.862   7.331  0.5163  0.2915 -0.9847
  136MOL    C4730017   3.155   1.930   7.411  0.2485 -0.5884  0.1119
  136MOL    C4830018   3.030   1.844   7.435 -0.2806  0.5481  0.4290
  136MOL    O4930019   3.041   1.718   7.442  0.0870 -0.2458  0.4314
  136MOL    C5030020   2.889   1.902   7.449  0.5466 -0.8265  0.2042
  136MOL    H5130021   3.348   1.938   7.318 -1.2592  2.4391  0.7067
  136MOL    H5230022   3.306   1.778   7.391  0.1838 -0.3488 -1.6811
  136MOL    H5330023   3.120   2.014   7.351 -0.6311 -1.2694 -0.3428
  136MOL    H5430024   2.833   1.872   7.361 -2.5101 -1.5943  2.3512
  136MOL    H5530025   2.834   1.855   7.530  0.6692  0.5057  1.0840
  136MOL    H5630026   2.898   2.011   7.451  0.1531 -0.7572 -1.1761
  136MOL    C5730027   3.195   1.996   7.540 -0.1431  0.0884  0.6799
  136MOL    C5830028   3.250   1.914   7.658  0.4795  0.4558 -0.7740
  136MOL    C5930029   3.380   1.844   7.634  0.1626 -0.6915 -0.4063
  136MOL    O6030030   3.479   1.904   7.592 -0.1310 -0.1309  0.3060
  136MOL    C6130031   3.388   1.694   7.650 -0.2922  0.5957 -0.0670
  136MOL    H6230032   3.105   2.050   7.567 -0.0994  1.5363 -1.8906
  136MOL    H6330033   3.265   2.078   7.521 -1.0535  0.6338 -0.3912
  136MOL    H6430034   3.188   1.827   7.677 -0.1192  0.7453 -1.3845
  136MOL    H6530035   3.445   1.658   7.564  1.6322  2.7232  0.2681
  136MOL    H6630036   3.448   1.683   7.741 -0.1278  1.6735 -0.0392
  136MOL    H6730037   3.289   1.650   7.661 -0.7981  1.8900  0.6964
  136MOL    C6830038   3.253   2.010   7.782  0.0202 -0.8114 -0.0967
  136MOL    C6930039   3.337   1.962   0.043 -0.5508 -0.4198 -0.2727
  136MOL    C7030040   3.241   1.884   0.139  0.0168  0.1133  0.2103
  136MOL    O7130041   3.178   1.941   0.221  0.4345  0.3275 -0.5832
  136MOL    C7230042   3.230   1.732   0.124  0.1049  0.5385  0.0060
  136MOL    H7330043   3.290   2.106   7.746 -0.3803 -0.4907  0.3417
  136MOL    H7430044   3.148   2.018   7.810  0.2884 -1.8203  1.2215
  136MOL    H7530045   3.420   1.901   0.008 -0.2603 -0.8837  1.1792
  136MOL    H7630046   3.302   1.681   0.189  1.5340  0.8202 -1.3042
  136MOL    H7730047   3.129   1.694   0.140  0.4453  0.1154  1.1636
  136MOL    H7830048   3.255   1.714   0.019 -0.2071  0.2485 -0.0199
  136MOL    C7930049   3.395   2.089   0.113  0.4192 -0.9433 -0.4091
  136MOL    C8030050   3.487   2.062   0.235 -0.5906  0.0681 -0.2582
  136MOL    C8130051   3.484   2.185   0.332  0.3098  0.0729  0.0319
  136MOL    O8230052   3.564   2.277   0.321  0.3607 -0.1961  0.2764
  136MOL    C8330053   3.376   2.186   0.445  0.1862  0.4575  0.3241
  136MOL    H8430054   3.314   2.153   0.148 -0.0389  0.5935 -4.0288
  136MOL    H8530055   3.450   2.150   0.040  0.9019 -0.0280  0.7095
  136MOL    H8630056   3.445   1.978   0.290  0.5251 -0.9593 -0.9532
  136MOL    H8730057   3.394   2.258   0.525 -1.9808  2.1045 -0.6025
  136MOL    H8830058   3.353   2.094   0.497 -0.2707  0.8924  0.8955
  136MOL    H8930059   3.280   2.225   0.409 -0.0617  0.7151  1.2609
  136MOL    C9030060   3.633   2.031   0.184 -0.5771  0.3013 -0.3777
  136MOL    C9130061   3.720   1.971   0.293 -0.2189  0.1960  0.3500
  136MOL    C9230062   3.660   1.842   0.357  0.1833  0.3646 -0.1233
  136MOL    O9330063   3.603   1.755   0.292  0.3108  0.3536 -0.3299
  136MOL    C9430064   3.678   1.831   0.506  0.3956  0.0632  0.1346
  136MOL    H9530065   3.628   1.961   0.100 -1.4807  0.7057 -0.6655
  136MOL    H9630066   3.683   2.116   0.138 -0.7344  0.5955 -0.0011
  136MOL    H9730067   3.718   2.037   0.379 -2.4667  0.7692 -0.0961
  136MOL    H9830068   3.603   1.759   0.542  1.4068 -0.8370  0.4710
  136MOL    H9930069   3.782   1.800   0.517 -0.5535 -3.6287 -0.7029
  136MOL   H10030070   3.671   1.921   0.568  2.7027  0.3660 -0.0128
  136MOL   C10130071   3.871   1.954   0.252  0.0430  0.0207  0.0754
  136MOL   C10230072   3.972   2.070   0.268 -0.1446  0.0821 -0.4392
  136MOL   C10330073   4.108   2.044   0.201  0.3103 -0.1835  0.2884
  136MOL   O10430074   4.188   1.979   0.264 -0.1920 -0.4241  0.0253
  136MOL   C10530075   4.128   2.083   0.062 -0.2470  0.4040  0.4164
  136MOL   H10630076   3.914   1.874   0.313  0.0940 -0.6820 -0.8626
  136MOL   H10730077   3.884   1.902   0.157 -1.7002 -1.1518  0.4352
  136MOL   H10830078   3.920   2.154   0.223 -0.0540  0.4957  0.2296
  136MOL   H10930079   4.194   2.168   0.050 -0.8194  0.5535 -1.9334
  136MOL   H11030080   4.168   1.997   0.008 -0.6207  0.6430 -0.2477
  136MOL   H11130081   4.030   2.099   0.016  0.8790 -2.1496 -3.1151
  136MOL   C11230082   3.994   2.121   0.419  0.4522  0.0424 -0.1011
  136MOL   C11330083   4.007   2.271   0.433  0.2296  0.4321  0.0080
  136MOL   C11430084   4.109   2.293   0.546 -0.8295  0.9253  0.3141
  136MOL   O11530085   4.074   2.299   0.665  0.2572 -0.0192 -0.4313
  136MOL   C11630086   4.262   2.295   0.515 -0.6697  0.0734  0.5794
  136MOL   H11730087   4.078   2.071   0.467  0.9934  0.7964 -0.2517
  136MOL   H11830088   3.907   2.088   0.476 -0.2206 -0.3375 -1.3375
  136MOL   H11930089   4.060   2.310   0.346 -1.5056 -0.4945 -1.4852
  136MOL   H12030090   4.324   2.262   0.599 -0.1631 -1.2961 -0.3226
  136MOL   H12130091   4.292   2.233   0.430  1.2209  1.9471 -0.1675
  136MOL   H12230092   4.296   2.398   0.502  1.2035 -0.2115  2.8809
  136MOL   C12330093   3.867   2.332   0.439 -0.4023 -0.2052 -0.4920
  136MOL   C12430094   3.865   2.481   0.483 -0.0514  0.3556 -0.2883
  136MOL   C12530095   3.720   2.513   0.534  0.7580  0.1984 -0.5359
  136MOL   O12630096   3.642   2.589   0.482  0.8094  0.2138  0.3686
  136MOL   C12730097   3.688   2.451   0.669 -0.2611 -0.1273 -0.1218
  136MOL   H12830098   3.815   2.269   0.511  2.6252 -0.9362  1.1359
  136MOL   H12930099   3.815   2.313   0.345  0.9741  1.8313 -1.6974
  136MOL   H13030100   3.925   2.501   0.572 -0.4261  2.9336 -0.5618
  136MOL   H13130101   3.636   2.527   0.726  4.0573  1.2103  2.2317
  136MOL   H13230102   3.780   2.417   0.716  0.1999  0.8726 -0.2920
  136MOL   H13330103   3.620   2.367   0.657 -0.2264  0.0270 -1.5843
  136MOL   C13430104   3.907   2.563   0.364  0.1077  0.1794 -0.3048
  136MOL   C13530105   3.950   2.706   0.412  0.1956 -0.8866  0.4735
  136MOL   C13630106   4.075   2.708   0.498  0.1019  0.3396  0.3043
  136MOL   O13730107   4.157   2.618   0.495  0.2386  0.3912 -0.3487
  136MOL   C13830108   4.093   2.846   0.568  0.0998 -0.4541 -0.4315
  136MOL   H13930109   3.830   2.574   0.287  0.5335  1.4427 -0.5628
  136MOL   H14030110   3.988   2.516   0.308  0.5017  0.1960  0.2519
  136MOL   H14130111   3.869   2.745   0.474  1.1833  0.9197  0.6583
  136MOL   H14230112   4.004   2.871   0.627  0.5750  4.4898 -1.6009
  136MOL   H14330113   4.119   2.924   0.497 -0.5701 -0.7887 -1.0528
  136MOL   H14430114   4.181   2.841   0.633 -0.9769  1.7823  1.2767
  136MOL   C14530115   3.962   2.814   0.299  0.1594  0.6899 -0.4008
  136MOL   C14630116   3.826   2.856   0.235 -0.8723 -0.8095 -0.2772
  136MOL   C14730117   3.742   2.937   0.334 -0.3281 -0.0873 -0.4045
  136MOL   O14830118   3.797   3.007   0.424  0.2894 -0.0384  0.5956
  136MOL   C14930119   3.594   2.914   0.341  0.7390 -0.1908 -0.4651
  136MOL   H15030120   4.025   2.770   0.222 -0.4123  2.2376 -1.7700
  136MOL   H15130121   4.009   2.905   0.335  0.3111  0.2486  0.5340
  136MOL   H15230122   3.764   2.773   0.201  0.2462 -1.0287 -1.8560
  136MOL   H15330123   3.561   2.950   0.438  0.5530  1.2155 -1.0405
  136MOL   H15430124   3.531   2.965   0.268  2.9644  1.4565 -1.2840
  136MOL   H15530125   3.579   2.807   0.324  0.3210 -0.2295  0.1369
  136MOL   C15630126   3.876   2.939   0.117 -0.8160  0.3596 -0.0184
  136MOL   C15730127   3.778   2.966   0.005 -0.5313  0.1417  0.0845
  136MOL   C15830128   3.776   2.844   7.771  0.3735  0.3836  0.5815
  136MOL   O15930129   3.876   2.776   7.750  0.4603  0.0242  0.1309
  136MOL   C16030130   3.653   2.828   7.684 -0.2409 -0.0918 -0.3709
  136MOL   H16130131   3.910   3.034   0.157  1.4547 -0.7840  0.8695
  136MOL   H16230132   3.973   2.909   0.078  0.2028  2.4912  0.8165
  136MOL   H16330133   3.676   2.965   0.044 -0.3958  0.7280  0.4661
  136MOL   H16430134   3.566   2.803   7.744 -0.1764 -0.4888 -0.4433
  136MOL   H16530135   3.668   2.748   7.612  3.1529 -0.6447  0.8610
  136MOL   H16630136   3.630   2.922   7.634  1.0035  0.2306 -0.3598
  136MOL   C16730137   3.825   3.094   7.780 -0.5230  0.0041  0.5804
  136MOL   C16830138   3.734   3.216   7.806 -0.3693 -0.2042  0.3135
  136MOL   C16930139   3.592   3.206   7.754  0.0177 -0.2534 -0.0815
  136MOL   O17030140   3.573   3.222   7.636  0.3753 -0.0195 -0.0931
  136MOL   C17130141   3.473   3.159   7.846 -0.1037  0.8806  0.0088
  136MOL   H17230142   3.921   3.136   7.808 -0.9162  0.9564  0.5274
  136MOL   H17330143   3.828   3.072   7.673 -1.0204  1.3913  0.2632
  136MOL   H17430144   3.711   3.210   0.055  2.8041 -1.1279  0.9831
  136MOL   H17530145   3.454   3.242   0.057 -0.1261  0.7647  0.1424
  136MOL   H17630146   3.502   3.076   0.052 -1.3001 -0.5644 -1.2890
  136MOL   H17730147   3.390   3.141   7.778 -2.0094  2.6694  1.8047
  136MOL   C17830148   3.803   3.354   7.781 -0.1547 -0.6425  0.0486
  136MOL   C17930149   3.909   3.403   0.036  0.0968  0.8000  0.1728
  136MOL   C18030150   3.828   3.439   0.157 -0.1828  0.3097 -0.0638
  136MOL   O18130151   3.742   3.525   0.157 -0.1974  0.0570 -0.3757
  136MOL   C18230152   3.863   3.359   0.283 -0.0334  0.1498  0.6955
  136MOL   H18330153   3.840   3.350   7.679 -1.4447  2.5489 -0.5986
  136MOL   H18430154   3.723   3.425   7.761  0.0363 -1.1455 -2.7008
  136MOL   H18530155   3.965   3.312   0.060 -2.3145 -0.2998  1.9147
  136MOL   H18630156   3.930   3.274   0.270 -2.2273 -1.8361  1.9914
  136MOL   H18730157   3.770   3.315   0.319  0.6272 -3.0626 -1.3416
  136MOL   H18830158   3.897   3.424   0.363  1.7086  1.4026 -1.0053
  136MOL   C18930159   3.998   3.515   7.846 -0.3382  0.0738  0.0965
  136MOL   C19030160   4.090   3.575   0.091  0.0027  0.0639 -0.7099
  136MOL   C19130161   4.227   3.514   0.097  0.1984 -0.4836  0.2033
  136MOL   O19230162   4.302   3.520   7.854  0.4223  0.3145 -0.2721
  136MOL   C19330163   4.277   3.451   0.227  0.0327  0.1188 -0.3684
  136MOL   H19430164   4.060   3.492   7.759  1.0172  0.5451  0.9114
  136MOL   H19530165   3.926   3.594   7.824 -1.0756 -0.8901 -0.9886
  136MOL   H19630166   4.052   3.553   0.191  0.3402  2.5767  0.0301
  136MOL   H19730167   4.218   3.361   0.242  0.3040  0.2226  1.3574
  136MOL   H19830168   4.386   3.444   0.227  0.2501  2.7701  0.2549
  136MOL   H19930169   4.246   3.507   0.316 -2.8796 -0.9200 -0.6822
  136MOL   C20030170   4.102   3.727   0.089 -0.2105 -0.3512  0.4551
  136MOL   C20130171   4.127   3.806   7.809 -0.1639  0.2186  0.1030
  136MOL   C20230172   4.283   3.838   7.800 -0.6269 -0.5529 -0.4325
  136MOL   O20330173   4.343   3.883   0.041 -0.6287 -0.8484  0.5490
  136MOL   C20430174   4.354   3.821   7.668  0.7191 -0.0814 -0.1942
  136MOL   H20530175   4.006   3.759   0.130  0.0280 -0.3148  0.9898
  136MOL   H20630176   4.166   3.765   0.168 -0.6992  0.0751  0.6470
  136MOL   H20730177   4.112   3.748   7.718 -1.2714  0.5432  0.0708
  136MOL   H20830178   4.312   3.738   7.613  0.8459 -0.2593 -0.0233
  136MOL   H20930179   4.348   3.911   7.607  1.9487  1.1623  1.4532
  136MOL   H21030180   4.457   3.796   7.691  0.6076  0.1993  0.6345
  136MOL   C21130181   4.046   3.934   7.794 -0.2635  0.0757 -0.2740
  136MOL   C21230182   3.896   3.934   7.751  0.2285  0.2905  0.4838
  136MOL   C21330183   3.849   3.863   7.628  0.2217  0.2311  0.0705
  136MOL   O21430184   3.921   3.772   7.582  0.3134  0.0607  0.3939
  136MOL   C21530185   3.724   3.919   7.557  0.2822 -0.5284  0.0534
  136MOL   H21630186   4.050   3.986   0.032 -0.2372  1.9316 -1.2657
  136MOL   H21730187   4.103   4.000   7.729 -0.5085 -0.4027 -0.9772
  136MOL   H21830188   3.868   4.039   7.736  1.6842  0.4044 -1.6458
  136MOL   H21930189   3.749   3.951   7.456  0.0674  0.8963  0.4457
  136MOL   H22030190   3.643   3.846   7.557  1.1509 -1.4993 -0.8428
  136MOL   H22130191   3.676   4.001   7.611  0.3284 -2.0107  2.4332
  136MOL   H22230192   3.843   3.896   7.838  0.5723  1.7992  1.3742
  137MOL     C130193   4.538   5.982   3.463 -1.4039 -0.8677 -0.4749
  137MOL     C230194   4.397   5.936   3.490  0.1739 -0.6367  0.1409
  137MOL     C330195   4.359   5.836   3.381 -0.0705 -0.0182  0.3963
  137MOL     O430196   4.442   5.756   3.335  0.0756 -0.2267  0.2541
  137MOL     C530197   4.219   5.834   3.330  0.8665  0.2951 -0.5906
  137MOL     H630198   4.557   6.070   3.525 -3.7914 -0.6479 -0.0063
  137MOL     H730199   4.566   5.999   3.359  3.9282  0.9020  1.0825
  137MOL     H830200   4.336   6.021   3.459  0.3169 -0.7077 -0.3321
  137MOL     H930201   4.176   5.933   3.317  0.6447 -0.1229 -3.3086
  137MOL    H1030202   4.220   5.795   3.228  0.0098  1.0379 -0.8912
  137MOL    H1130203   4.166   5.768   3.399 -1.6129  1.8820 -0.9616
  137MOL    H1230204   4.608   5.906   3.499 -0.2233  0.0344 -0.8482
  137MOL    C1330205   4.343   5.904   3.633 -0.3132 -0.1704  0.1061
  137MOL    C1430206   4.243   6.001   3.700  0.0629  0.2451 -0.5979
  137MOL    C1530207   4.105   5.994   3.632  0.0609  0.3723 -0.2123
  137MOL    O1630208   4.063   6.087   3.554  0.1408 -0.1530  0.2302
  137MOL    C1730209   4.024   5.867   3.655 -0.5074 -0.7398 -0.4698
  137MOL    H1830210   4.310   5.800   3.636 -1.0161  0.0399 -0.3204
  137MOL    H1930211   4.425   5.910   3.704 -1.3607 -0.2472  1.3594
  137MOL    H2030212   4.237   5.951   3.797  1.2742  0.2029 -0.5344
  137MOL    H2130213   4.093   5.784   3.644 -1.6138 -2.1458  2.5070
  137MOL    H2230214   3.991   5.851   3.758 -2.6587  1.8294 -0.7119
  137MOL    H2330215   3.929   5.860   3.601 -0.9771 -0.3511  0.2929
  137MOL    C2430216   4.294   6.143   3.726  0.2727 -0.4066 -0.7146
  137MOL    C2530217   4.205   6.222   3.827  0.7072 -0.6578  0.0485
  137MOL    C2630218   4.282   6.276   3.946 -0.0169  0.4871  0.0725
  137MOL    O2730219   4.295   6.402   3.964 -0.0136  0.3286 -0.6292
  137MOL    C2830220   4.333   6.179   4.048  0.1179  0.1019 -0.4623
  137MOL    H2930221   4.394   6.126   3.767  0.1575 -1.5852 -0.9140
  137MOL    H3030222   4.301   6.202   3.635 -3.5366 -0.5351 -1.1839
  137MOL    H3130223   4.140   6.141   3.860 -1.1000 -0.6475 -3.2990
  137MOL    H3230224   4.287   6.081   4.042 -1.4575  0.7902 -0.0662
  137MOL    H3330225   4.442   6.182   4.045  0.0428  1.1359 -2.7366
  137MOL    H3430226   4.305   6.220   4.146  1.8086  1.4387 -0.5068
  137MOL    C3530227   4.124   6.335   3.755 -0.5456  0.4496  0.1720
  137MOL    C3630228   3.984   6.361   3.802  0.2451 -0.1208  0.2170
  137MOL    C3730229   3.894   6.238   3.782 -0.3607 -0.1110  0.4213
  137MOL    O3830230   3.906   6.138   3.850  1.0263 -0.0725  0.2451
  137MOL    C3930231   3.807   6.245   3.654 -0.1316  0.6091  0.2896
  137MOL    H4030232   4.122   6.306   3.650  1.3054 -3.6912  1.1802
  137MOL    H4130233   4.174   6.432   3.744  1.1165 -0.1826  1.8230
  137MOL    H4230234   3.940   6.432   3.733  0.7096  1.0323  1.0768
  137MOL    H4330235   3.780   6.142   3.630 -1.5634  0.5036  2.2097
  137MOL    H4430236   3.850   6.299   3.570 -0.8540 -1.2500 -1.3147
  137MOL    H4530237   3.710   6.289   3.679 -0.4245  0.2479 -0.2023
  137MOL    C4630238   3.976   6.416   3.945  0.2649 -0.3457  0.7545
  137MOL    C4730239   4.015   6.560   3.969  0.2809 -0.7487 -0.2667
  137MOL    C4830240   3.929   6.649   3.878  0.5918  0.6191 -0.0311
  137MOL    O4930241   3.807   6.675   3.909  0.4514  0.6233  0.6657
  137MOL    C5030242   3.984   6.700   3.744  0.2070 -0.2274  0.1946
  137MOL    H5130243   4.035   6.354   4.013  0.3258 -0.2322  0.8044
  137MOL    H5230244   3.879   6.395   3.990  1.6959 -3.2662  2.6219
  137MOL    H5330245   4.112   6.576   3.922 -0.4727 -0.5252 -1.7682
  137MOL    H5430246   4.069   6.765   3.769 -1.2015  2.1166 -0.9155
  137MOL    H5530247   4.004   6.615   3.679 -0.8800 -1.0489  0.9249
  137MOL    H5630248   3.915   6.764   3.689  3.0962  1.8769 -1.0937
  137MOL    C5730249   4.006   6.591   4.122 -0.4997 -0.3864 -0.1874
  137MOL    C5830250   4.058   6.729   4.163  0.0424 -0.2223 -0.1398
  137MOL    C5930251   4.209   6.743   4.135  0.5151 -0.2846  0.7334
  137MOL    O6030252   4.252   6.825   4.053  0.3033  0.4757  0.0674
  137MOL    C6130253   4.304   6.647   4.206 -0.0835 -0.3810  0.5667
  137MOL    H6230254   4.068   6.514   4.167  2.2486  0.9294 -1.5844
  137MOL    H6330255   3.908   6.571   4.164 -1.1160  0.1678 -1.3359
  137MOL    H6430256   4.051   6.729   4.272  3.0761 -0.1566  0.1155
  137MOL    H6530257   4.368   6.592   4.136 -3.2136 -2.2031 -0.9581
  137MOL    H6630258   4.361   6.716   4.269  0.8060 -0.5623 -0.0198
  137MOL    H6730259   4.250   6.576   4.269  0.8500 -1.6099  0.0018
  137MOL    C6830260   3.969   6.848   4.127  0.0877 -0.3355 -0.1096
  137MOL    C6930261   3.998   6.980   4.190 -0.1263  0.4518 -0.2107
  137MOL    C7030262   4.024   6.960   4.339 -0.0475  0.0288  0.4170
  137MOL    O7130263   3.937   6.903   4.410 -0.1403 -0.1083  0.0577
  137MOL    C7230264   4.158   7.006   4.390 -0.2654 -0.2954 -0.3722
  137MOL    H7330265   3.988   6.855   4.020 -0.2116 -1.2752 -0.2317
  137MOL    H7430266   3.864   6.826   4.145 -0.0568  0.5781  0.1785
  137MOL    H7530267   4.087   7.028   4.151  0.6506 -0.8333 -0.0390
  137MOL    H7630268   4.228   7.030   4.310  2.2583  0.0137  1.8700
  137MOL    H7730269   4.153   7.100   4.445  0.0003 -0.3716 -0.2177
  137MOL    H7830270   4.197   6.927   4.454  2.9614  2.0839  0.7314
  137MOL    C7930271   3.879   7.073   4.178  0.2419  0.7561  0.0474
  137MOL    C8030272   3.832   7.123   4.037 -0.8532  0.2335 -0.6698
  137MOL    C8130273   3.948   7.198   3.965  0.1585 -0.4387  0.5703
  137MOL    O8230274   4.017   7.280   4.026  0.4007  0.4511 -0.2789
  137MOL    C8330275   3.966   7.189   3.818  0.3351  0.7836  0.9552
  137MOL    H8430276   3.882   7.161   4.242 -0.6942 -0.3683  1.6498
  137MOL    H8530277   3.789   7.025   4.216  1.3698 -0.2929  1.4398
  137MOL    H8630278   3.814   7.032   3.979  2.0021 -2.6172  2.6915
  137MOL    H8730279   4.020   7.268   3.764  0.5642 -0.5585 -0.8381
  137MOL    H8830280   3.869   7.170   3.773 -0.0717  0.7053  1.8717
  137MOL    H8930281   4.025   7.100   3.797  0.2510  1.4387 -2.3335
  137MOL    C9030282   3.707   7.208   4.060 -0.1520 -0.0566  0.2568
  137MOL    C9130283   3.609   7.232   3.936 -0.0690  0.1825 -0.1034
  137MOL    C9230284   3.508   7.122   3.926 -0.2650 -0.4500  0.2118
  137MOL    O9330285   3.389   7.144   3.958  0.3063 -0.5841  0.2387
  137MOL    C9430286   3.550   6.987   3.873 -0.1218 -0.1134  0.7267
  137MOL    H9530287   3.648   7.160   4.138  1.9290 -3.2455 -0.0231
  137MOL    H9630288   3.746   7.299   4.104  0.9845 -0.6685  0.5335
  137MOL    H9730289   3.665   7.216   3.844  0.3233  1.0644 -0.0302
  137MOL    H9830290   3.603   6.927   3.947  0.3787  0.2796  0.6948
  137MOL    H9930291   3.461   6.934   3.841 -0.1792  0.6045 -0.3232
  137MOL   H10030292   3.614   6.993   3.785  1.4872 -1.4892  1.7635
  137MOL   C10130293   3.552   7.381   3.927 -0.3885  0.2479  0.3411
  137MOL   C10230294   3.513   7.424   3.784  0.0558 -0.9046 -0.2452
  137MOL   C10330295   3.617   7.520   3.714 -0.2553  0.6095  0.1237
  137MOL   O10430296   3.669   7.616   3.769  0.3289 -0.0994  0.3140
  137MOL   C10530297   3.637   7.500   3.564  0.1503 -0.0775 -0.2175
  137MOL   H10630298   3.471   7.390   4.000 -0.2857  1.1146  0.3438
  137MOL   H10730299   3.631   7.443   3.968  1.2078 -1.7684  0.4086
  137MOL   H10830300   3.516   7.341   3.713 -1.7554 -0.1949 -1.2030
  137MOL   H10930301   3.546   7.453   3.527 -0.0438 -0.3007  0.5258
  137MOL   H11030302   3.642   7.602   3.524  1.3702  0.1188  0.4263
  137MOL   H11130303   3.719   7.441   3.524  0.5695  0.4648 -0.1686
  137MOL   C11230304   3.368   7.486   3.778 -0.2501  0.4925  0.2528
  137MOL   C11330305   3.252   7.392   3.784  0.7898 -0.1781  0.2946
  137MOL   C11430306   3.250   7.288   3.670  0.6323  0.5698 -0.4377
  137MOL   O11530307   3.295   7.321   3.559 -0.3077  0.2802  0.5093
  137MOL   C11630308   3.184   7.156   3.693  0.2416  0.0160 -0.6045
  137MOL   H11730309   3.364   7.555   3.694  1.9165 -0.1660 -0.4439
  137MOL   H11830310   3.360   7.559   3.858 -1.1895 -1.2776  1.8131
  137MOL   H11930311   3.248   7.327   3.872 -1.6603  0.8467  0.9728
  137MOL   H12030312   3.161   7.137   3.798  2.8309 -1.0936 -0.2156
  137MOL   H12130313   3.082   7.162   3.654  0.9806  0.6043 -2.5040
  137MOL   H12230314   3.229   7.075   3.636 -2.0204 -0.3438 -1.9764
  137MOL   C12330315   3.117   7.468   3.795  0.5252  0.1088  0.4025
  137MOL   C12430316   3.064   7.536   3.665  1.0946  0.3727  0.0616
  137MOL   C12530317   3.110   7.681   3.633 -0.8725 -0.3516 -0.4958
  137MOL   O12630318   3.093   7.770   3.713 -0.8947  0.8692  0.2997
  137MOL   C12730319   3.190   7.698   3.507 -0.4240  0.2952 -0.2456
  137MOL   H12830320   3.124   7.528   3.885  1.3260 -1.1491  1.2027
  137MOL   H12930321   3.044   7.389   3.814 -0.6887  0.6822 -1.6736
  137MOL   H13030322   3.099   7.473   3.584  1.2949  0.8936 -0.2601
  137MOL   H13130323   3.277   7.633   3.517 -1.0230 -0.0542  3.3373
  137MOL   H13230324   3.231   7.799   3.506  0.2648  0.0077 -0.9763
  137MOL   H13330325   3.145   7.687   3.409 -1.3643 -1.8627  0.4055
  137MOL   C13430326   2.911   7.510   3.651 -0.2606 -0.5984  0.0512
  137MOL   C13530327   2.838   7.559   3.526  0.4206 -0.5018 -0.7331
  137MOL   C13630328   2.871   7.466   3.407  0.8704  0.2339 -0.2925
  137MOL   O13730329   2.883   7.350   3.419 -0.4480  0.3435  0.0765
  137MOL   C13830330   2.885   7.534   3.268  0.5091  0.2623  0.2476
  137MOL   H13930331   2.872   7.562   3.739 -1.9988  0.5030 -1.3474
  137MOL   H14030332   2.884   7.407   3.673 -2.6226 -0.1727 -0.8008
  137MOL   H14130333   2.881   7.656   3.502 -1.7310  0.5828 -0.3109
  137MOL   H14230334   2.859   7.472   3.182  0.9720  1.7102 -0.9569
  137MOL   H14330335   2.992   7.555   3.263  0.5535 -0.1647 -0.8341
  137MOL   H14430336   2.842   7.633   3.255 -0.3662 -0.1296  0.1122
  137MOL   C14530337   2.684   7.569   3.548  0.2684  0.2127 -0.2760
  137MOL   C14630338   2.631   7.695   3.628  0.2470  0.3869  0.5484
  137MOL   C14730339   2.686   7.825   3.566  0.3201 -0.2553  0.9275
  137MOL   O14830340   2.734   7.838   3.458 -0.3197 -0.0722  0.2520
  137MOL   C14930341   2.671   0.093   3.647 -0.1113  0.7085  0.0651
  137MOL   H15030342   2.657   7.469   3.581  0.8520  0.5367  1.1781
  137MOL   H15130343   2.634   7.579   3.451 -1.2822 -0.4520  0.4375
  137MOL   H15230344   2.673   7.676   3.727 -2.0179 -1.0870  1.2659
  137MOL   H15330345   2.587   0.149   3.608  0.5648  1.5408 -0.2151
  137MOL   H15430346   2.665   0.064   3.752 -0.7597  2.9092  0.6619
  137MOL   H15530347   2.761   0.153   3.632  0.9208 -0.8934 -0.4143
  137MOL   C15630348   2.475   7.698   3.637 -0.5947 -0.6290 -0.1673
  137MOL   C15730349   2.424   7.579   3.709 -0.2805 -0.7092  0.6062
  137MOL   C15830350   2.287   7.522   3.669 -0.5604  0.2855  0.0753
  137MOL   O15930351   2.184   7.561   3.728 -0.2315 -0.0385  0.3903
  137MOL   C16030352   2.283   7.439   3.545  0.6642 -0.1230 -0.3078
  137MOL   H16130353   2.442   7.791   3.684 -0.3173 -0.9293  0.6245
  137MOL   H16230354   2.424   7.705   3.541  0.4360  0.6673 -0.6514
  137MOL   H16330355   2.503   7.510   3.679 -0.9050 -0.8010 -0.9151
  137MOL   H16430356   2.183   7.395   3.544  0.3548  0.5882 -0.5050
  137MOL   H16530357   2.360   7.363   3.561  1.2694  0.6164  0.3238
  137MOL   H16630358   2.314   7.489   3.453  1.7125 -0.0615  0.0753
  137MOL   C16730359   2.444   7.601   3.857 -0.2103  0.6168 -0.6012
  137MOL   C16830360   2.483   7.479   3.951  0.2865  0.2092 -0.4849
  137MOL   C16930361   2.632   7.448   3.918 -0.2377 -0.0024  0.0765
  137MOL   O17030362   2.654   7.372   3.831  0.5965 -0.3700  0.5097
  137MOL   C17130363   2.740   7.524   3.991  0.1825  0.2282 -0.4370
  137MOL   H17230364   2.524   7.673   3.873  0.1250 -0.1383  1.2258
  137MOL   H17330365   2.358   7.652   3.901 -1.1864  0.4049 -2.2124
  137MOL   H17430366   2.494   7.519   4.052 -2.3052  0.8509 -0.4254
  137MOL   H17530367   2.762   7.609   3.928 -1.0285 -0.1818 -1.4307
  137MOL   H17630368   2.824   7.459   4.014  0.5301  0.0859 -2.0960
  137MOL   H17730369   2.706   7.561   4.088 -1.2275  1.2363 -1.3090
  137MOL   C17830370   2.390   7.353   3.960 -0.8385  0.3362  0.0751
  137MOL   C17930371   2.251   7.358   4.016 -0.6573  0.0987  0.1198
  137MOL   C18030372   2.234   7.427   4.155  0.9068 -0.0687 -0.1286
  137MOL   O18130373   2.284   7.389   4.260 -0.0619  0.4544  0.2046
  137MOL   C18230374   2.158   7.559   4.147 -0.8576  0.4256  0.4721
  137MOL   H18330375   2.398   7.290   3.872  0.1304 -1.2613  1.2860
  137MOL   H18430376   2.449   7.292   4.028  0.3444  0.7160 -0.5890
  137MOL   H18530377   2.198   7.422   3.945 -0.9130 -1.7180 -1.3828
  137MOL   H18630378   2.094   7.567   4.235 -1.4788  0.2213  0.0463
  137MOL   H18730379   2.090   7.562   4.062 -3.0644 -0.8061  2.1209
  137MOL   H18830380   2.237   7.634   4.142  0.1780 -0.7247 -0.9353
  137MOL   C18930381   2.179   7.215   4.005 -0.6521  0.6665  0.2778
  137MOL   C19030382   2.033   7.206   4.019 -0.0173  1.2320 -0.3192
  137MOL   C19130383   1.956   7.289   3.911 -0.1105 -0.4114  0.1956
  137MOL   O19230384   1.959   7.257   3.796  0.5891  0.6004 -0.0450
  137MOL   C19330385   1.861   7.399   3.965  0.2425  0.5577 -0.4172
  137MOL   H19430386   2.201   7.168   3.909  1.7945 -4.1067  2.9917
  137MOL   H19530387   2.234   7.147   4.069  0.7595 -0.3265 -1.9098
  137MOL   H19630388   2.007   7.256   4.113  0.8556  1.1480 -0.0284
  137MOL   H19730389   1.878   7.413   4.072 -2.0684 -0.5175  0.1449
  137MOL   H19830390   1.850   7.495   3.915 -1.7459  0.1912 -0.7454
  137MOL   H19930391   1.757   7.364   3.970 -0.3717  2.4544  0.5498
  137MOL   C20030392   1.996   7.055   4.024  0.5002  0.7589  0.7757
  137MOL   C20130393   1.849   7.013   4.052 -0.0653 -1.0433  0.1882
  137MOL   C20230394   1.811   7.054   4.198  0.4029  0.0877  0.2865
  137MOL   O20330395   1.857   6.996   4.290 -0.2268  0.3690  0.0546
  137MOL   C20430396   1.719   7.168   4.214 -0.3078  0.4351 -0.2808
  137MOL   H20530397   2.030   7.007   3.932  0.1916 -0.6524  1.3818
  137MOL   H20630398   2.057   6.999   4.094 -0.1333  1.6597  2.0614
  137MOL   H20730399   1.796   7.075   3.981  0.8018 -1.3467 -0.7226
  137MOL   H20830400   1.664   7.190   4.122 -0.7870  1.6086  0.2764
  137MOL   H20930401   1.658   7.172   4.304  0.3852  2.0632  0.1434
  137MOL   H21030402   1.788   7.251   4.229  0.1475 -0.4137  2.4709
  137MOL   C21130403   1.806   6.862   4.020 -0.4977  0.3852 -0.2137
  137MOL   C21230404   1.833   6.823   3.872  0.0437  0.2546 -0.7420
  137MOL   C21330405   1.742   6.894   3.766 -0.3163 -0.1026  0.8002
  137MOL   O21430406   1.630   6.925   3.801  0.3639 -0.4374  0.0164
  137MOL   C21530407   1.798   6.933   3.632  0.2876  0.0861  0.5186
  137MOL   H21630408   1.883   6.805   4.074 -1.9650 -0.7541  0.7212
  137MOL   H21730409   1.708   6.840   4.062 -0.3568 -0.3217 -0.2433
  137MOL   H21830410   1.802   6.720   3.854  3.8263 -1.1029  0.0467
  137MOL   H21930411   1.905   6.908   3.635  0.3108 -0.2690 -1.9320
  137MOL   H22030412   1.749   6.889   3.546 -0.1216 -0.9361  1.2683
  137MOL   H22130413   1.787   7.041   3.630 -1.9233 -0.1505 -1.2712
  137MOL   H22230414   1.941   6.828   3.854  0.2510  0.3794  0.5260
  138MOL     C130415   4.280   1.304   0.231 -0.0735 -0.3371  0.4456
  138MOL     C230416   4.155   1.386   0.189  0.5510 -0.2138  0.1425
  138MOL     C330417   4.157   1.419   0.038  0.1686  0.2949 -0.2639
  138MOL     O430418   4.131   1.338   7.809 -0.4441  0.0844 -0.5324
  138MOL     C530419   4.196   1.565   0.005 -0.0806 -0.0649  0.0362
  138MOL     H630420   4.269   1.297   0.339 -0.2708  2.4336  0.6216
  138MOL     H730421   4.369   1.360   0.202 -0.5714  0.3056  0.1595
  138MOL     H830422   4.169   1.484   0.234  1.1615  0.5254 -1.6065
  138MOL     H930423   4.107   1.627   0.008 -0.3519 -0.5124  1.8934
  138MOL    H1030424   4.288   1.598   0.053 -0.4029  0.8070  0.0603
  138MOL    H1130425   4.237   1.565   7.761  0.7727  1.6672  0.3623
  138MOL    H1230426   4.283   1.206   0.182 -2.4929 -1.6369  2.7919
  138MOL    C1330427   4.031   1.309   0.236  0.4610 -0.7035  0.1348
  138MOL    C1430428   3.894   1.355   0.177  0.3216  0.1596 -0.0824
  138MOL    C1530429   3.867   1.499   0.232 -0.0422 -0.5939  0.6008
  138MOL    O1630430   3.829   1.520   0.352  0.1687 -0.4648 -0.3327
  138MOL    C1730431   3.896   1.619   0.137 -0.2499 -0.5333  0.6073
  138MOL    H1830432   4.045   1.208   0.197 -1.7114 -0.1863 -2.1216
  138MOL    H1930433   4.033   1.308   0.345  1.4453 -1.0985  0.1224
  138MOL    H2030434   3.892   1.347   0.068  1.1236 -2.5174  0.0675
  138MOL    H2130435   3.821   1.699   0.145 -2.7896 -2.6603 -0.9594
  138MOL    H2230436   3.988   1.665   0.171 -0.9009  2.4825 -1.4546
  138MOL    H2330437   3.897   1.590   0.032 -0.9401  4.9047 -1.0977
  138MOL    C2430438   3.782   1.258   0.220 -0.0867  0.4912  0.6661
  138MOL    C2530439   3.640   1.296   0.187 -0.3120 -0.1324 -0.2797
  138MOL    C2630440   3.616   1.349   0.039 -0.1198 -0.4054  0.2921
  138MOL    O2730441   3.691   1.317   7.800  0.5155 -0.0857 -0.6388
  138MOL    C2830442   3.492   1.436   0.021  0.3632 -0.3597  1.4523
  138MOL    H2930443   3.802   1.166   0.164  2.1214  1.0908  0.4064
  138MOL    H3030444   3.802   1.236   0.325 -0.0657  0.2970  0.6211
  138MOL    H3130445   3.600   1.386   0.233 -0.7494 -0.0257 -0.8599
  138MOL    H3230446   3.415   1.396   0.086 -0.3567  0.7103  1.2779
  138MOL    H3330447   3.508   1.541   0.044 -0.5707  0.3656 -0.9683
  138MOL    H3430448   3.449   1.436   7.778 -0.8897 -2.2339  1.9772
  138MOL    C3530449   3.536   1.189   0.231 -0.1200  0.0897  0.2068
  138MOL    C3630450   3.481   1.205   0.374 -0.3866 -0.2126  0.4743
  138MOL    C3730451   3.423   1.346   0.402 -0.3755 -0.1495 -1.5925
  138MOL    O3830452   3.319   1.380   0.349  0.3121  0.2619  0.2154
  138MOL    C3930453   3.499   1.451   0.489  0.2674 -0.0100  0.4055
  138MOL    H4030454   3.574   1.087   0.223  1.2335  0.5471  0.5511
  138MOL    H4130455   3.451   1.181   0.163 -0.2618  0.2531  0.3644
  138MOL    H4230456   3.567   1.189   0.439  0.5565  0.0032 -0.7013
  138MOL    H4330457   3.440   1.485   0.575 -0.7677 -0.7479 -0.0047
  138MOL    H4430458   3.524   1.538   0.428 -2.4421 -0.4954 -1.4892
  138MOL    H4530459   3.594   1.419   0.533  0.4908 -0.8128 -0.6404
  138MOL    C4630460   3.379   1.093   0.402  0.2917  0.7776 -0.4120
  138MOL    C4730461   3.426   0.947   0.413 -0.5665 -0.5393 -0.2131
  138MOL    C4830462   3.533   0.935   0.523 -0.1664 -0.0097 -0.3182
  138MOL    O4930463   3.511   0.982   0.635 -0.2629  0.1702 -0.0459
  138MOL    C5030464   3.670   0.888   0.488 -0.2049  0.0020  1.0000
  138MOL    H5130465   3.311   1.098   0.316 -2.5709 -1.0257  1.6406
  138MOL    H5230466   3.317   1.115   0.490  0.7930 -1.2807  0.4669
  138MOL    H5330467   3.462   0.910   0.318  1.7539  0.2050  0.3496
  138MOL    H5430468   3.759   0.940   0.524  2.5095 -4.1854  0.7118
  138MOL    H5530469   3.674   0.790   0.534 -0.8339 -0.3838  0.2437
  138MOL    H5630470   3.679   0.884   0.379 -2.3334 -3.0002  0.9028
  138MOL    C5730471   3.302   0.853   0.443 -0.3766  0.0151  0.0189
  138MOL    C5830472   3.349   0.702   0.442  0.1405 -0.4302 -0.1849
  138MOL    C5930473   3.263   0.622   0.542  0.4390 -0.6402 -0.6902
  138MOL    O6030474   3.315   0.581   0.645 -0.5376 -0.2035 -0.5485
  138MOL    C6130475   3.114   0.581   0.498 -0.5951  0.8229 -0.4632
  138MOL    H6230476   3.222   0.861   0.370  2.0940 -0.4952 -2.8791
  138MOL    H6330477   3.264   0.877   0.542 -1.7777 -1.6584 -0.0768
  138MOL    H6430478   3.450   0.696   0.481 -0.0476  1.5461  0.6393
  138MOL    H6530479   3.079   0.617   0.401 -1.6806 -0.8876 -0.7252
  138MOL    H6630480   3.104   0.473   0.498  0.1140  0.7585 -0.5748
  138MOL    H6730481   3.045   0.610   0.578  1.0062  1.1521  0.8267
  138MOL    C6830482   3.359   0.647   0.296  0.0999  0.0076  0.5255
  138MOL    C6930483   3.443   0.515   0.275 -1.0520 -0.2854 -0.3124
  138MOL    C7030484   3.585   0.530   0.330  0.4394  0.5942 -0.1155
  138MOL    O7130485   3.649   0.628   0.305 -0.3736 -0.1055 -0.1175
  138MOL    C7230486   3.638   0.410   0.420  0.4183 -0.3590 -0.2049
  138MOL    H7330487   3.262   0.628   0.251  0.3581  0.0543 -0.0663
  138MOL    H7430488   3.412   0.722   0.238 -1.5871 -0.9774 -2.4027
  138MOL    H7530489   3.411   0.433   0.339 -1.5580  0.2699  0.1467
  138MOL    H7630490   3.665   0.432   0.523  1.3740  1.4762 -0.8188
  138MOL    H7730491   3.566   0.335   0.451  1.1468 -0.5924  0.9265
  138MOL    H7830492   3.715   0.353   0.369  0.8341 -0.6805  0.7696
  138MOL    C7930493   3.454   0.469   0.128 -0.6777 -0.1655  0.2045
  138MOL    C8030494   3.367   0.351   0.091 -0.0970 -0.8392 -0.3305
  138MOL    C8130495   3.411   0.213   0.162 -0.7688 -0.1750 -0.6349
  138MOL    O8230496   3.484   0.134   0.100  0.0829 -0.5247  0.2021
  138MOL    C8330497   3.353   0.171   0.299 -0.4868 -0.0109  0.3446
  138MOL    H8430498   3.556   0.433   0.111 -0.2311 -0.7963  3.8021
  138MOL    H8530499   3.433   0.556   0.067 -1.0503 -0.2720  0.1785
  138MOL    H8630500   3.266   0.372   0.123  0.7314  4.3176 -0.7147
  138MOL    H8730501   3.248   0.199   0.302 -0.7178 -0.6871 -1.1471
  138MOL    H8830502   3.405   0.211   0.386 -0.9569  1.9815 -0.2640
  138MOL    H8930503   3.357   0.062   0.301 -0.4369  0.0047  1.4219
  138MOL    C9030504   3.366   0.332   7.797  0.2113 -0.0794 -0.0799
  138MOL    C9130505   3.272   0.221   7.742 -0.4056 -0.2454 -0.0429
  138MOL    C9230506   3.128   0.251   7.792 -0.4141 -0.6241 -0.2382
  138MOL    O9330507   3.082   0.361   7.793 -0.2848  0.1755 -0.6562
  138MOL    C9430508   3.042   0.133   7.830 -0.5163  0.8530  0.1918
  138MOL    H9530509   3.342   0.423   7.744  0.9997  1.2087  1.7357
  138MOL    H9630510   3.467   0.309   7.763  0.4051 -1.0053  1.0984
  138MOL    H9730511   3.312   0.128   7.781 -1.5579  0.0782  2.0325
  138MOL    H9830512   3.024   0.062   7.748  0.7874 -0.5310  1.0795
  138MOL    H9930513   3.103   0.066   0.032  1.0553  1.5771 -0.5830
  138MOL   H10030514   2.959   0.171   0.032 -2.4217 -1.9681 -0.5522
  138MOL   C10130515   3.272   0.207   7.584  0.5270  0.4729 -0.1764
  138MOL   C10230516   3.213   0.325   7.498 -0.3863 -0.5050  0.3263
  138MOL   C10330517   3.061   0.318   7.482  0.1040 -0.5889 -0.3958
  138MOL   O10430518   3.008   0.213   7.484 -0.5124 -0.1681  0.3353
  138MOL   C10530519   2.976   0.444   7.465  0.0785  0.3973 -0.0632
  138MOL   H10630520   3.372   0.184   7.547  0.3892 -4.4780  2.1568
  138MOL   H10730521   3.218   0.117   7.552 -0.9508  0.3596  2.5424
  138MOL   H10830522   3.248   0.416   7.547  1.2295 -0.4639 -0.8748
  138MOL   H10930523   2.909   0.429   7.380 -2.1071  1.7960  1.3419
  138MOL   H11030524   2.923   0.467   7.558 -0.4728  0.7923 -0.4728
  138MOL   H11130525   3.043   0.528   7.451 -0.7244  1.1694  0.6515
  138MOL   C11230526   3.278   0.316   7.357  0.5766 -0.0152 -0.4392
  138MOL   C11330527   3.413   0.389   7.332 -0.3739 -0.3878 -0.3305
  138MOL   C11430528   3.383   0.538   7.329  0.0507 -0.2560 -0.5206
  138MOL   O11530529   3.342   0.602   7.234  0.1197 -0.2772 -0.1204
  138MOL   C11630530   3.403   0.614   7.460 -0.0486  0.3728 -0.4617
  138MOL   H11730531   3.214   0.344   7.274  1.3835 -1.2436 -1.4870
  138MOL   H11830532   3.300   0.211   7.342 -0.8397 -0.8117  2.5573
  138MOL   H11930533   3.490   0.376   7.408  0.6413  3.8517 -0.5074
  138MOL   H12030534   3.312   0.631   7.517  0.3218 -2.5792  1.0988
  138MOL   H12130535   3.478   0.579   7.530 -0.9487  0.9039  0.7763
  138MOL   H12230536   3.433   0.717   7.441  3.0925 -0.7392 -2.0355
  138MOL   C12330537   3.489   0.347   7.200  1.1321  0.0155 -0.0440
  138MOL   C12430538   3.628   0.420   7.167  0.4721 -0.3399  0.2918
  138MOL   C12530539   3.723   0.411   7.287 -0.0207  0.0775  0.8488
  138MOL   O12630540   3.718   0.499   7.371  0.2912  0.0892 -0.4071
  138MOL   C12730541   3.831   0.305   7.284  0.1097  0.4409 -0.1729
  138MOL   H12830542   3.412   0.361   7.124  1.0287  0.9557  0.2267
  138MOL   H12930543   3.509   0.240   7.200 -1.1380 -0.4478 -2.2025
  138MOL   H13030544   3.671   0.346   7.099  2.6881  1.1718  0.0010
  138MOL   H13130545   3.825   0.246   7.192 -0.3705  1.8962 -1.0814
  138MOL   H13230546   3.823   0.234   7.367 -2.1404 -0.0729 -0.7679
  138MOL   H13330547   3.925   0.358   7.278  0.0164  0.7080  0.6949
  138MOL   C13430548   3.620   0.563   7.103  0.6959 -0.9114 -0.0047
  138MOL   C13530549   3.753   0.609   7.033 -0.2585  0.1756  0.7064
  138MOL   C13630550   3.787   0.531   6.905  0.2282  0.3820 -0.2782
  138MOL   O13730551   3.698   0.497   6.830 -0.1834  0.4869  0.8179
  138MOL   C13830552   3.927   0.479   6.880  0.3075 -0.1693 -0.4455
  138MOL   H13930553   3.580   0.642   7.167 -0.7014 -2.0817  0.5917
  138MOL   H14030554   3.544   0.554   7.026 -1.4910  2.2480  1.6813
  138MOL   H14130555   3.833   0.591   7.105 -0.1023 -0.9838  0.2393
  138MOL   H14230556   3.953   0.494   6.776  1.4482 -0.0393 -0.1481
  138MOL   H14330557   3.928   0.370   6.889 -1.6963 -0.0154  2.4338
  138MOL   H14430558   4.002   0.523   6.945  0.8396 -0.5847 -0.7801
  138MOL   C14530559   3.734   0.757   7.006  0.5032  0.0033  1.0337
  138MOL   C14630560   3.847   0.830   6.939 -0.5296  0.4162  0.1053
  138MOL   C14730561   3.802   0.974   6.923  0.8280 -0.1216  0.9259
  138MOL   O14830562   3.762   1.035   7.019 -0.4760 -0.2471  0.5373
  138MOL   C14930563   3.813   1.035   6.785 -0.2121 -0.2016 -0.6806
  138MOL   H15030564   3.717   0.805   7.103 -0.2864  1.4846  0.1739
  138MOL   H15130565   3.645   0.769   6.944  0.6853  0.4353  0.8566
  138MOL   H15230566   3.866   0.777   6.845 -0.7950 -3.8163  2.3413
  138MOL   H15330567   3.816   0.958   6.708  0.1578 -1.9400  1.0437
  138MOL   H15430568   3.734   1.109   6.768  0.0403 -0.4407 -3.0864
  138MOL   H15530569   3.905   1.090   6.768 -0.7599  0.1275 -2.6599
  138MOL   C15630570   3.981   0.831   7.015  0.6630 -0.1598  0.1674
  138MOL   C15730571   4.102   0.904   6.956  0.2681 -0.4034 -0.2463
  138MOL   C15830572   4.145   0.843   6.823  0.8216  0.2328 -0.0459
  138MOL   O15930573   4.159   0.725   6.808 -0.3930 -0.2376  0.1387
  138MOL   C16030574   4.175   0.950   6.716 -1.0271 -0.0395  0.0447
  138MOL   H16130575   3.966   0.846   7.122  0.1111  2.1354 -0.2073
  138MOL   H16230576   4.018   0.729   7.026  1.2830  0.2686  2.2487
  138MOL   H16330577   4.076   1.008   6.937  1.2109 -0.2074 -0.4789
  138MOL   H16430578   4.254   0.916   6.649  1.7736  1.4449  2.4846
  138MOL   H16530579   4.214   1.039   6.764  1.0735 -0.3254 -1.0826
  138MOL   H16630580   4.096   0.986   6.651  0.0167  0.2851 -1.0648
  138MOL   C16730581   4.223   0.901   7.051 -0.2417 -0.7340 -0.5167
  138MOL   C16830582   4.217   1.006   7.166  0.4267  0.7174  0.4193
  138MOL   C16930583   4.209   1.148   7.119 -0.0999 -0.6939  0.1450
  138MOL   O17030584   4.264   1.187   7.017 -0.2562  0.7978  0.1413
  138MOL   C17130585   4.117   1.245   7.199  0.0790  0.6562  0.1211
  138MOL   H17230586   4.214   0.804   7.101 -0.3712 -0.0067  0.9120
  138MOL   H17330587   4.323   0.919   7.011 -0.6426 -1.5262 -1.9006
  138MOL   H17430588   4.132   0.974   7.226  0.4880 -1.6405 -0.7117
  138MOL   H17530589   4.015   1.207   7.200 -0.1437  1.2171 -1.0653
  138MOL   H17630590   4.122   1.344   7.154  0.8873  0.7107  0.3286
  138MOL   H17730591   4.149   1.270   7.300 -0.7847  1.8083  0.1214
  138MOL   C17830592   4.342   0.984   7.259  0.3580  0.6843  0.7537
  138MOL   C17930593   4.307   1.041   7.406 -0.5224  0.0037  0.1422
  138MOL   C18030594   4.364   1.184   7.425  0.1681  0.0857 -0.1737
  138MOL   O18130595   4.428   1.249   7.342  0.3109 -0.0123 -0.6944
  138MOL   C18230596   4.312   1.249   7.561 -0.2930  0.9657 -0.6939
  138MOL   H18330597   4.368   0.879   7.268  0.1703  0.7048  1.5224
  138MOL   H18430598   4.423   1.045   7.219  0.3656  0.3720  0.2842
  138MOL   H18530599   4.199   1.048   7.413 -0.6102  0.9200 -1.8102
  138MOL   H18630600   4.233   1.193   7.610  2.1226 -0.0926  2.1072
  138MOL   H18730601   4.274   1.350   7.542  1.1019  1.3056 -1.8388
  138MOL   H18830602   4.390   1.264   7.635 -1.3730  2.2232  0.2093
  138MOL   C18930603   4.348   0.944   7.520  0.2761  0.2956 -0.4027
  138MOL   C19030604   4.290   0.800   7.514  0.7187  0.4623  0.4479
  138MOL   C19130605   4.352   0.724   7.634  0.2020  0.2836  0.1018
  138MOL   O19230606   4.405   0.616   7.616 -0.3620 -0.1371 -0.1889
  138MOL   C19330607   4.320   0.769   7.778  0.2680  0.2680 -0.0385
  138MOL   H19430608   4.455   0.948   7.542 -0.3970  3.8614  2.7298
  138MOL   H19530609   4.301   0.984   7.610  0.4334  1.7741 -0.9679
  138MOL   H19630610   4.327   0.741   7.430 -0.5020 -2.6312  1.9758
  138MOL   H19730611   4.361   0.702   7.854  1.2411 -0.6850 -1.3719
  138MOL   H19830612   4.372   0.863   7.792  0.7213  0.0944 -0.5404
  138MOL   H19930613   4.215   0.769   7.807  0.6447 -3.0341  1.6693
  138MOL   C20030614   4.134   0.805   7.518 -0.2041  0.8309  0.0632
  138MOL   C20130615   4.052   0.677   7.554 -0.2237 -0.0070 -0.0922
  138MOL   C20230616   4.063   0.552   7.465  0.1882  0.3700  0.1970
  138MOL   O20330617   4.049   0.568   7.344  0.1158 -0.5196 -0.0700
  138MOL   C20430618   4.101   0.423   7.531 -0.1805 -1.1672 -0.5623
  138MOL   H20530619   4.107   0.879   7.594  0.7202  0.6671  0.5602
  138MOL   H20630620   4.098   0.843   7.423 -1.9120 -1.9982 -0.4675
  138MOL   H20730621   4.079   0.649   7.656 -1.7023  0.6931  0.5075
  138MOL   H20830622   4.193   0.389   7.483  0.8753  0.2005  0.4598
  138MOL   H20930623   4.116   0.443   7.637 -0.5606  1.8320 -1.0414
  138MOL   H21030624   4.022   0.349   7.515 -2.2875  1.1191 -1.0171
  138MOL   C21130625   3.901   0.718   7.566  0.5309  0.2911  0.8107
  138MOL   C21230626   3.805   0.621   7.635 -0.2495  0.0359 -0.1807
  138MOL   C21330627   3.821   0.630   7.781 -0.3689  0.0714  0.3820
  138MOL   O21430628   3.918   0.575   7.836  0.2786  0.1352 -0.0367
  138MOL   C21530629   3.702   0.689   0.001 -0.3659 -0.3466 -0.0504
  138MOL   H21630630   3.891   0.813   7.619 -0.6437 -0.2686  1.6086
  138MOL   H21730631   3.869   0.743   7.465 -1.0945  0.0878  1.2755
  138MOL   H21830632   3.815   0.514   7.614 -0.1191 -0.4242  2.0815
  138MOL   H21930633   3.636   0.757   7.804  2.5409  1.4090 -1.5265
  138MOL   H22030634   3.639   0.624   0.062 -0.7372  1.2404  1.3103
  138MOL   H22130635   3.738   0.760   0.075 -3.1608  1.1014 -0.0016
  138MOL   H22230636   3.701   0.633   7.606 -0.5221  0.5229  0.9537
  139MOL     C130637   6.977   0.038   1.209 -0.9907 -0.3934  0.6824
  139MOL     C230638   6.874   0.126   1.138  0.8177 -0.8276  0.0540
  139MOL     C330639   6.746   0.038   1.105 -1.3487 -0.3559 -0.0209
  139MOL     O430640   6.651   0.039   1.181  0.2218 -0.2364  0.1997
  139MOL     C530641   6.748   7.805   0.981  0.1440 -0.6330 -1.0863
  139MOL     H630642   7.002   7.815   1.140 -0.7611  0.7716 -0.6218
  139MOL     H730643   6.941   7.844   1.298  1.6711 -0.1740  1.9445
  139MOL     H830644   6.910   0.172   1.046 -0.0158  0.3202  0.2874
  139MOL     H930645   6.654   7.750   0.981  0.5607 -1.5230  2.8607
  139MOL    H1030646   6.773   0.002   0.890  0.8971 -1.6070 -1.4778
  139MOL    H1130647   6.829   7.736   1.003 -0.1572 -0.2887  1.2982
  139MOL    H1230648   7.070   0.093   1.228 -0.0812 -1.6188 -0.1924
  139MOL    C1330649   6.852   0.262   1.219 -0.6926  0.3214  0.2972
  139MOL    C1430650   6.755   0.360   1.167  1.0814 -0.3583  0.1245
  139MOL    C1530651   6.782   0.389   1.011 -0.7317 -0.0306  0.1907
  139MOL    O1630652   6.883   0.447   0.977 -0.6494 -0.3701 -0.4694
  139MOL    C1730653   6.686   0.335   0.902  0.1518  0.1486 -0.2001
  139MOL    H1830654   6.836   0.236   1.324  0.6437 -1.8050 -0.0050
  139MOL    H1930655   6.947   0.315   1.223 -0.7240  0.4364 -0.4876
  139MOL    H2030656   6.658   0.311   1.164  0.1817  1.2360  1.5690
  139MOL    H2130657   6.729   0.366   0.807  0.4003 -1.3109 -0.5814
  139MOL    H2230658   6.684   0.226   0.899 -2.9802  0.1874 -1.4276
  139MOL    H2330659   6.589   0.378   0.926  0.0802 -0.1786  0.1061
  139MOL    C2430660   6.759   0.487   1.257  0.0469 -0.5067  0.2582
  139MOL    C2530661   6.656   0.602   1.227 -0.3393 -0.3780  0.1991
  139MOL    C2630662   6.504   0.560   1.246  0.5809 -0.2821 -0.0258
  139MOL    O2730663   6.467   0.471   1.321 -0.7824  0.1788 -0.0854
  139MOL    C2830664   6.413   0.613   1.141 -0.5999  0.3694  0.5515
  139MOL    H2930665   6.751   0.444   1.357  0.1626  0.7140  0.7981
  139MOL    H3030666   6.858   0.531   1.247  0.2008 -1.1154 -0.9072
  139MOL    H3130667   6.670   0.620   1.120 -0.4788  0.5792  0.3415
  139MOL    H3230668   6.403   0.722   1.137  1.7898  0.5377 -4.2470
  139MOL    H3330669   6.445   0.579   1.043  3.0144  2.9604  0.7249
  139MOL    H3430670   6.312   0.576   1.159 -0.1664 -1.4233 -0.5492
  139MOL    C3530671   6.698   0.738   1.286 -0.6744 -0.6498 -0.3450
  139MOL    C3630672   6.734   0.732   1.435 -0.0835 -0.4557 -0.3085
  139MOL    C3730673   6.794   0.875   1.470  0.1715  0.2573 -0.5506
  139MOL    O3830674   6.717   0.970   1.490 -0.1196  0.1659 -0.2854
  139MOL    C3930675   6.945   0.897   1.482 -0.6035 -0.1359 -0.2810
  139MOL    H4030676   6.629   0.821   1.271 -0.0524 -0.2330 -0.9041
  139MOL    H4130677   6.787   0.768   1.232 -0.0452 -0.4228  0.7912
  139MOL    H4230678   6.813   0.657   1.441 -0.3289 -0.6947 -0.0485
  139MOL    H4330679   6.993   0.853   1.569 -3.4399 -0.5304  1.1321
  139MOL    H4430680   6.969   1.004   1.482  0.0265 -0.2704  0.8174
  139MOL    H4530681   6.990   0.857   1.391  1.6713 -2.3664  1.7434
  139MOL    C4630682   6.607   0.709   1.527  0.5675 -0.3229 -0.1872
  139MOL    C4730683   6.648   0.652   1.661  0.0483 -0.0514 -0.4469
  139MOL    C4830684   6.579   0.745   1.775 -0.1033  1.0741 -0.2252
  139MOL    O4930685   6.475   0.705   1.823  0.4717 -0.4699 -0.1733
  139MOL    C5030686   6.646   0.861   1.827  0.2146 -0.2146 -0.0493
  139MOL    H5130687   6.540   0.635   1.482 -0.7593  1.2668 -0.8646
  139MOL    H5230688   6.548   0.801   1.529  0.3735 -0.4532  3.7469
  139MOL    H5330689   6.757   0.659   1.668 -0.0598  0.1056  1.4793
  139MOL    H5430690   6.592   0.887   1.919  0.6614 -0.4408  0.2770
  139MOL    H5530691   6.746   0.833   1.859 -0.7773 -1.0848  2.4035
  139MOL    H5630692   6.659   0.942   1.756  0.2332 -1.0850 -1.0468
  139MOL    C5730693   6.631   0.497   1.682  0.2605  0.5720  0.7212
  139MOL    C5830694   6.759   0.436   1.745  0.1759 -0.1852  0.1876
  139MOL    C5930695   6.730   0.306   1.821 -0.1298 -0.4291 -0.4682
  139MOL    O6030696   6.780   0.291   1.932  0.2007 -0.1018 -0.6575
  139MOL    C6130697   6.651   0.197   1.748  0.2971  1.8423 -0.6974
  139MOL    H6230698   6.608   0.453   1.585  0.4445  2.5214 -0.2237
  139MOL    H6330699   6.542   0.478   1.742  0.4570  0.7770  1.0794
  139MOL    H6430700   6.802   0.498   1.824 -0.8504  0.1641  0.4811
  139MOL    H6530701   6.676   0.097   1.784  0.7846  1.9114 -0.8406
  139MOL    H6630702   6.542   0.195   1.749  0.2763  2.8210 -0.8532
  139MOL    H6730703   6.679   0.198   1.643  1.0710 -1.3170 -0.6016
  139MOL    C6830704   6.873   0.407   1.635  0.5496  0.1152 -0.5153
  139MOL    C6930705   7.018   0.399   1.682  0.5923 -0.0334 -0.0113
  139MOL    C7030706   7.069   0.522   1.757 -0.4856  0.3540  0.5543
  139MOL    O7130707   7.007   0.625   1.755 -0.2286 -0.3049 -0.2616
  139MOL    C7230708   7.188   0.500   1.848  0.6746  0.1820 -0.2803
  139MOL    H7330709   6.841   0.323   1.573 -0.6541 -0.9194  1.4488
  139MOL    H7430710   6.859   0.495   1.571 -0.8589  0.2728 -0.0121
  139MOL    H7530711   7.020   0.321   1.758  3.0692 -1.5224 -1.5493
  139MOL    H7630712   7.163   0.560   1.935  1.0243  0.7368 -0.5607
  139MOL    H7730713   7.197   0.398   1.885  0.3886  0.2848  0.0653
  139MOL    H7830714   7.281   0.548   1.817 -0.4421  3.6211  1.4560
  139MOL    C7930715   7.122   0.368   1.576 -0.8745  0.9942 -0.1693
  139MOL    C8030716   7.213   0.243   1.604  0.0752 -0.1632 -0.1104
  139MOL    C8130717   7.350   0.236   1.531 -0.0455 -0.1095 -0.5373
  139MOL    O8230718   7.365   0.169   1.431  0.2739 -0.1444 -0.2484
  139MOL    C8330719   7.467   0.303   1.602 -0.3253 -0.1221  0.6180
  139MOL    H8430720   7.192   0.450   1.560  0.8733 -0.6327 -1.0236
  139MOL    H8530721   7.072   0.354   1.480 -0.2044 -1.1834 -0.2194
  139MOL    H8630722   7.254   0.241   1.705  0.0096  0.7230 -0.0621
  139MOL    H8730723   7.502   0.258   1.695  1.0998  3.5395  1.9425
  139MOL    H8830724   7.424   0.402   1.614 -0.1060  0.1675 -0.9626
  139MOL    H8930725   7.548   0.304   1.529 -1.0073  0.1900 -0.1270
  139MOL    C9030726   7.120   0.125   1.579 -0.5036  0.0120  0.4390
  139MOL    C9130727   7.171   7.841   1.618 -0.4750  1.3596 -0.6133
  139MOL    C9230728   7.194   7.823   1.777  0.1684 -0.6538  0.2005
  139MOL    O9330729   7.308   7.840   1.819  0.0869  0.6121 -0.3124
  139MOL    C9430730   7.090   7.776   1.869 -0.5037 -0.1755 -0.6505
  139MOL    H9530731   7.019   0.141   1.616 -1.0561 -0.1746 -0.9531
  139MOL    H9630732   7.110   0.112   1.471  0.6237 -0.0505  0.3319
  139MOL    H9730733   7.266   7.818   1.569  0.5655  2.3166  0.8908
  139MOL    H9830734   7.001   7.838   1.858  0.9196  1.5251 -2.9152
  139MOL    H9930735   7.066   7.670   1.858 -3.2795  0.3985 -0.5063
  139MOL   H10030736   7.133   7.784   1.969 -2.0380 -0.0208  0.0061
  139MOL   C10130737   7.079   7.732   1.564 -0.7868  0.5372  0.0457
  139MOL   C10230738   7.100   7.579   1.595 -0.0402  0.4192 -0.2890
  139MOL   C10330739   7.204   7.509   1.510  0.5917  0.4965 -0.0267
  139MOL   O10430740   7.209   7.519   1.387  0.1103 -0.1815  0.9660
  139MOL   C10530741   7.319   7.433   1.577 -0.0667  0.1631 -0.4821
  139MOL   H10630742   6.975   7.757   1.586 -0.7216  0.5956  0.2917
  139MOL   H10730743   7.083   7.745   1.456  0.5747 -0.3711 -0.0225
  139MOL   H10830744   7.138   7.571   1.697 -2.1589  0.8952  0.5671
  139MOL   H10930745   7.340   7.340   1.525  0.2908 -0.2853  0.4378
  139MOL   H11030746   7.406   7.498   1.583 -0.4108  0.5326  0.7666
  139MOL   H11130747   7.292   7.413   1.681 -1.0147  0.0575 -0.7464
  139MOL   C11230748   6.962   7.512   1.580 -0.3984  0.3895 -0.2641
  139MOL   C11330749   6.874   7.509   1.712  0.1351 -0.6408 -0.6030
  139MOL   C11430750   6.942   7.440   1.833  0.3634  0.2032  0.0019
  139MOL   O11530751   7.039   7.363   1.826  0.2715  0.1343 -0.2163
  139MOL   C11630752   6.877   7.485   1.968 -0.1942 -0.2544  0.0276
  139MOL   H11730753   6.977   7.406   1.564 -0.8258  0.1701  0.7465
  139MOL   H11830754   6.912   7.540   1.487 -1.3918  2.2650  0.7905
  139MOL   H11930755   6.862   7.614   1.741  0.1688 -1.0824  1.0555
  139MOL   H12030756   6.851   7.591   1.964 -1.0314 -0.4810 -0.9921
  139MOL   H12130757   6.788   7.426   1.986 -2.0811  1.9828 -1.5776
  139MOL   H12230758   6.953   7.466   2.043  0.4921 -2.5740 -1.2153
  139MOL   C12330759   6.738   7.439   1.686 -0.1612  0.0607 -0.0086
  139MOL   C12430760   6.658   7.502   1.572  0.2120  0.5082 -0.5158
  139MOL   C12530761   6.638   7.656   1.586 -0.0275 -0.6441  0.2441
  139MOL   O12630762   6.609   7.717   1.690 -0.7092  0.4345  0.7060
  139MOL   C12730763   6.691   7.744   1.474  0.5768  0.0974 -0.3670
  139MOL   H12830764   6.677   7.436   1.776 -0.3188 -3.2387 -0.1545
  139MOL   H12930765   6.755   7.334   1.662  1.0635  0.6007 -1.5713
  139MOL   H13030766   6.715   7.487   1.480 -1.5900  2.2511 -1.9898
  139MOL   H13130767   6.617   7.760   1.395  1.7599 -1.1464 -1.7579
  139MOL   H13230768   6.773   7.696   1.422  1.2164 -0.8510  1.4840
  139MOL   H13330769   6.723   7.835   1.524 -2.0126  0.6445  0.3651
  139MOL   C13430770   6.530   7.424   1.548  0.0894  0.1086 -0.7224
  139MOL   C13530771   6.443   7.444   1.424  0.0653  0.2013 -0.6851
  139MOL   C13630772   6.526   7.392   1.311 -0.7602 -0.1684  0.6420
  139MOL   O13730773   6.515   7.275   1.272 -0.0180  0.2693 -0.7282
  139MOL   C13830774   6.604   7.498   1.230  0.2506  0.2456  0.1652
  139MOL   H13930775   6.471   7.441   1.638  0.8966 -1.6198  0.1531
  139MOL   H14030776   6.546   7.318   1.567 -0.1980  0.1668 -0.1493
  139MOL   H14130777   6.442   7.552   1.410 -0.9217  0.0265 -1.9713
  139MOL   H14230778   6.542   7.530   1.147 -0.2758  0.7335  0.7415
  139MOL   H14330779   6.697   7.453   1.194 -0.1384  0.0988 -0.6693
  139MOL   H14430780   6.635   7.588   1.283  1.9447  0.4730 -1.1738
  139MOL   C14530781   6.306   7.372   1.439 -0.5317 -0.4201 -0.2745
  139MOL   C14630782   6.210   7.365   1.314 -0.0806 -0.6109  0.3018
  139MOL   C14730783   6.097   7.260   1.326 -0.9820 -0.2629 -0.2446
  139MOL   O14830784   5.981   7.292   1.333  0.1129 -0.2808 -0.1667
  139MOL   C14930785   6.124   7.110   1.313 -0.1159  0.2644 -0.4971
  139MOL   H15030786   6.254   7.421   1.522 -1.7521 -0.5231 -0.9646
  139MOL   H15130787   6.322   7.271   1.475 -2.3505 -0.0120  1.7576
  139MOL   H15230788   6.267   7.320   1.233 -1.4603  2.3937 -2.4826
  139MOL   H15330789   6.073   7.086   1.220  2.0311 -0.0511 -1.6274
  139MOL   H15430790   6.229   7.083   1.310  0.6428  3.1619 -1.1722
  139MOL   H15530791   6.071   7.044   1.383  1.3020  1.8309  2.1397
  139MOL   C15630792   6.157   7.503   1.273  0.6555 -0.5258  0.1828
  139MOL   C15730793   6.074   7.509   1.148  0.3103 -0.3305  0.0505
  139MOL   C15830794   6.149   7.464   1.022 -0.6974 -0.1842 -0.0357
  139MOL   O15930795   6.259   7.513   0.996  0.6645 -0.4969  0.2287
  139MOL   C16030796   6.099   7.354   0.936 -0.1639  0.0315  0.6146
  139MOL   H16130797   6.100   7.545   1.355  2.2223 -0.4503  1.2435
  139MOL   H16230798   6.243   7.570   1.265  1.2524 -1.3293 -0.2452
  139MOL   H16330799   5.984   7.448   1.157 -0.0683  0.5161  2.3442
  139MOL   H16430800   6.169   7.298   0.873 -0.7734 -0.1763  0.1131
  139MOL   H16530801   6.012   7.381   0.876 -1.3169 -1.6679  1.4730
  139MOL   H16630802   6.069   7.273   1.003 -0.3142 -1.1149 -0.8071
  139MOL   C16730803   6.013   7.646   1.120 -0.6644 -0.5124  0.3551
  139MOL   C16830804   6.113   7.765   1.073  0.7398 -0.6502 -0.1658
  139MOL   C16930805   6.188   7.827   1.192  0.1238  0.1435 -0.2527
  139MOL   O17030806   6.129   0.032   1.281 -0.3901  0.6391  0.3099
  139MOL   C17130807   6.337   7.788   1.203  0.1708 -0.2518  0.1025
  139MOL   H17230808   5.937   7.634   1.043 -0.3777 -2.7739  0.3824
  139MOL   H17330809   5.948   7.682   1.199 -3.3536  0.9143 -2.3801
  139MOL   H17430810   6.179   7.715   1.002  1.5224 -0.0099  0.1074
  139MOL   H17530811   6.354   7.696   1.147  0.0098 -0.1659 -0.0860
  139MOL   H17630812   6.360   7.780   1.309 -1.6835 -1.2467  0.4515
  139MOL   H17730813   6.406   7.857   1.156  0.4112 -0.0958  0.6779
  139MOL   C17830814   6.042   0.008   0.987  0.3801  0.4174 -0.2638
  139MOL   C17930815   6.139   0.092   0.903 -0.3276 -0.6937  0.6179
  139MOL   C18030816   6.073   0.220   0.854 -0.2939 -0.5830  0.2913
  139MOL   O18130817   6.014   0.230   0.749  0.0629 -0.0862  0.6435
  139MOL   C18230818   6.074   0.339   0.949 -0.0732  0.0976  0.7694
  139MOL   H18330819   5.986   7.810   0.911  0.5190 -0.4979  0.2914
  139MOL   H18430820   5.971   0.071   1.040  0.7261 -0.8736  1.7760
  139MOL   H18530821   6.227   0.127   0.958 -0.5085  0.3762  0.2484
  139MOL   H18630822   6.178   0.355   0.975  0.1249 -1.9327  1.3135
  139MOL   H18730823   6.008   0.329   1.035 -1.0849 -0.1732 -0.0289
  139MOL   H18830824   6.050   0.432   0.897 -0.4582  0.2186  1.1569
  139MOL   C18930825   6.191   0.009   0.781 -0.6823 -0.5890  0.5998
  139MOL   C19030826   6.283   0.076   0.674  0.2146  0.1429  0.4811
  139MOL   C19130827   6.421   0.102   0.724 -0.7185 -0.4045  0.3866
  139MOL   O19230828   6.440   0.204   0.788 -0.5578 -0.3486 -0.0088
  139MOL   C19330829   6.535   0.004   0.708 -0.5535  0.5648 -0.0119
  139MOL   H19430830   6.237   7.773   0.812  0.1591 -0.3892 -0.0016
  139MOL   H19530831   6.106   7.821   0.731  0.1518 -1.3207 -0.1649
  139MOL   H19630832   6.236   0.174   0.665 -2.0260 -0.9562 -0.1525
  139MOL   H19730833   6.636   0.043   0.717  0.0720 -0.5131 -2.0243
  139MOL   H19830834   6.506   7.780   0.774 -0.6099 -0.2169 -0.9866
  139MOL   H19930835   6.541   7.812   0.611 -2.8491 -1.5466  0.8508
  139MOL   C20030836   6.285   7.851   0.545 -0.2641 -0.2358 -0.1173
  139MOL   C20130837   6.352   0.057   0.416  0.1943  0.3915 -0.4657
  139MOL   C20230838   6.294   0.197   0.388  0.4072 -0.3920  0.5096
  139MOL   O20330839   6.175   0.224   0.406 -0.0955 -0.2744  0.9337
  139MOL   C20430840   6.391   0.302   0.333 -0.5717 -0.2802  0.3463
  139MOL   H20530841   6.323   7.751   0.569  2.1285  1.3553  3.1619
  139MOL   H20630842   6.180   7.830   0.524 -0.6617 -0.0072  1.5476
  139MOL   H20730843   6.459   0.066   0.434  0.1221  1.6467 -0.6606
  139MOL   H20830844   6.435   0.346   0.423 -1.7003  0.8613  0.3467
  139MOL   H20930845   6.466   0.260   0.266 -1.7084 -1.4118 -0.2314
  139MOL   H21030846   6.333   0.389   0.301 -1.5734 -0.5453  1.4150
  139MOL   C21130847   6.333   7.820   0.296 -0.2172  0.2143 -0.2667
  139MOL   C21230848   6.387   0.009   0.161 -0.0128  0.1410 -0.4569
  139MOL   C21330849   6.366   7.782   0.041 -0.3004  0.2195 -0.5600
  139MOL   O21430850   6.298   7.681   0.039  0.2376  0.4222  0.5168
  139MOL   C21530851   6.450   7.827   7.782 -0.2555 -0.1661 -0.2527
  139MOL   H21630852   6.378   7.731   0.339  1.0618  1.0178  0.1066
  139MOL   H21730853   6.226   7.804   0.284 -0.4368  2.5414 -1.7726
  139MOL   H21830854   6.495   0.011   0.178 -0.0656  2.1469 -0.1623
  139MOL   H21930855   6.458   7.748   7.707  0.3582 -1.4359  1.1182
  139MOL   H22030856   6.414   0.057   7.729  0.4188 -1.6799 -3.3149
  139MOL   H22130857   6.551   7.846   7.817 -0.9768  2.0810  0.7073
  139MOL   H22230858   6.347   0.109   0.142  1.3154  1.2558  2.2792
  140MOL     C130859   6.657   4.075   2.147 -0.5492  0.8245 -0.2814
  140MOL     C230860   6.786   4.055   2.230 -0.7478  0.0474 -0.7596
  140MOL     C330861   6.915   4.026   2.153 -0.9582 -0.1845  0.7633
  140MOL     O430862   6.932   4.070   2.034  0.0803  0.5019  0.2850
  140MOL     C530863   7.015   3.928   2.213 -0.2939 -0.5531 -0.7017
  140MOL     H630864   6.643   4.183   2.141 -2.0853  0.7094  0.9402
  140MOL     H730865   6.565   4.033   2.187 -0.3728  0.3516 -0.3646
  140MOL     H830866   6.771   3.963   2.286  1.2163  0.9960  1.4104
  140MOL     H930867   7.097   3.913   2.142  0.2926 -0.4478 -0.0555
  140MOL    H1030868   7.064   3.964   2.303  0.7410  1.4842 -2.0242
  140MOL    H1130869   6.966   3.832   2.228  0.6332 -1.2987 -2.2690
  140MOL    H1230870   6.673   4.051   2.042 -3.1209 -1.2196 -0.2639
  140MOL    C1330871   6.796   4.161   2.340 -0.2687  0.2766 -0.9053
  140MOL    C1430872   6.899   4.144   2.455 -0.0174 -0.6277  1.0888
  140MOL    C1530873   6.899   4.008   2.526 -0.6196 -0.3354 -0.6874
  140MOL    O1630874   6.999   3.934   2.535  0.0559 -0.2724 -0.2518
  140MOL    C1730875   6.770   3.965   2.593  0.1067 -0.2581 -0.3355
  140MOL    H1830876   6.822   4.255   2.291 -1.1668  1.7128  1.3137
  140MOL    H1930877   6.697   4.173   2.384 -0.2614 -2.3938 -0.1039
  140MOL    H2030878   7.001   4.157   2.418  0.0671  0.3874  1.6558
  140MOL    H2130879   6.735   4.044   2.660  0.6029  2.2876 -2.9461
  140MOL    H2230880   6.697   3.948   2.514 -0.3527 -0.7943  0.2020
  140MOL    H2330881   6.784   3.867   2.638  0.2752 -0.3651 -0.6205
  140MOL    C2430882   6.886   4.265   2.553 -0.2918 -0.2876  0.1171
  140MOL    C2530883   6.997   4.277   2.665  0.3675  0.2109 -0.2021
  140MOL    C2630884   7.047   4.425   2.674 -0.6659  0.8962  0.2362
  140MOL    O2730885   6.979   4.507   2.738 -0.6393 -0.0818  0.0104
  140MOL    C2830886   7.176   4.451   2.602 -0.4262  0.4816 -0.7363
  140MOL    H2930887   6.871   4.355   2.493 -1.5450 -0.7580 -0.3053
  140MOL    H3030888   6.790   4.263   2.605  1.0204 -0.2336  2.6030
  140MOL    H3130889   7.085   4.219   2.638  0.6706  1.1162 -1.2179
  140MOL    H3230890   7.262   4.453   2.668  0.7830 -2.4955 -2.1505
  140MOL    H3330891   7.193   4.395   2.511  0.0670  2.0972 -1.6516
  140MOL    H3430892   7.195   4.553   2.571 -0.2503  1.5260  2.5813
  140MOL    C3530893   6.950   4.223   2.805 -0.0852  0.8705  0.3821
  140MOL    C3630894   7.048   4.237   2.925  0.8313  0.7547 -0.0522
  140MOL    C3730895   6.970   4.176   3.045  0.0992 -0.2562 -0.1572
  140MOL    O3830896   7.005   4.072   3.093  0.0754  0.1826  0.1141
  140MOL    C3930897   6.851   4.255   3.097  0.6765  0.6782  0.8060
  140MOL    H4030898   6.923   4.118   2.793  2.1598  0.1993  0.9530
  140MOL    H4130899   6.856   4.269   2.834 -0.8704 -1.2739  1.3477
  140MOL    H4230900   7.063   4.344   2.934 -0.8146  1.1278 -1.3583
  140MOL    H4330901   6.849   4.255   3.206 -0.7917  0.8899  0.7827
  140MOL    H4430902   6.760   4.212   3.054  1.5835  1.3841 -1.9694
  140MOL    H4530903   6.855   4.358   3.062  0.7724  0.4142  0.0224
  140MOL    C4630904   7.190   4.178   2.905  0.0467  0.1177 -0.0341
  140MOL    C4730905   7.295   4.249   2.996  0.3376  0.6165 -0.0081
  140MOL    C4830906   7.422   4.158   3.015 -0.5424 -0.9342 -0.5069
  140MOL    O4930907   7.489   4.120   2.920 -0.4376 -0.1645  0.2562
  140MOL    C5030908   7.466   4.136   3.155  0.4285 -0.1391 -0.4749
  140MOL    H5130909   7.224   4.185   2.802  0.0476  0.0339 -0.0397
  140MOL    H5230910   7.190   4.070   2.916 -2.7117  0.1424  0.8153
  140MOL    H5330911   7.261   4.286   3.093 -1.8069 -0.5360 -0.3053
  140MOL    H5430912   7.495   4.032   3.166 -2.4803 -1.0230 -0.7692
  140MOL    H5530913   7.552   4.199   3.175 -0.1507  0.8645 -1.0725
  140MOL    H5630914   7.386   4.151   3.228  1.6613  0.2660  0.8100
  140MOL    C5730915   7.342   4.381   2.930 -0.4461 -0.4149  0.3318
  140MOL    C5830916   7.460   4.457   2.992  0.9476 -0.3811 -0.2713
  140MOL    C5930917   7.528   4.546   2.881  0.4443 -0.9582 -0.4625
  140MOL    O6030918   7.502   4.663   2.866  0.0296 -0.4159  0.6157
  140MOL    C6130919   7.658   4.489   2.818 -0.4119  0.5858 -0.3367
  140MOL    H6230920   7.259   4.447   2.904  0.4788  0.5500 -0.2693
  140MOL    H6330921   7.370   4.335   2.835  0.3413 -0.5334  0.6176
  140MOL    H6430922   7.532   4.385   3.030  2.5330  0.7934 -0.9821
  140MOL    H6530923   7.748   4.541   2.851  1.1580 -1.4669 -1.3261
  140MOL    H6630924   7.673   4.385   2.843  1.4149  1.6476  3.2850
  140MOL    H6730925   7.649   4.492   2.709  1.3581 -2.5335 -0.6091
  140MOL    C6830926   7.413   4.543   3.112 -0.4688  0.4478  1.0190
  140MOL    C6930927   7.532   4.600   3.190  0.1382 -0.8764 -1.3364
  140MOL    C7030928   7.615   4.486   3.251 -0.0276 -0.2832  0.2140
  140MOL    O7130929   7.571   4.417   3.339 -0.0214  0.0766 -0.0013
  140MOL    C7230930   7.747   4.445   3.195 -0.1432 -0.0549  0.3258
  140MOL    H7330931   7.358   4.630   3.076 -1.3892 -0.0536  1.1925
  140MOL    H7430932   7.334   4.490   3.166 -0.7142 -0.6336 -0.3570
  140MOL    H7530933   7.604   4.652   3.126 -1.1724  0.7677 -1.5093
  140MOL    H7630934   7.741   4.352   3.139 -0.2485  0.4322 -0.4860
  140MOL    H7730935   7.778   4.532   3.137  1.1815 -1.2204 -0.7505
  140MOL    H7830936   7.824   4.438   3.272  1.0544  0.9163 -0.7547
  140MOL    C7930937   7.483   4.707   3.292 -0.8183  0.3975  0.4946
  140MOL    C8030938   7.468   4.846   3.240  0.4703  0.0565  0.1494
  140MOL    C8130939   7.604   4.909   3.234 -0.4912 -0.8306 -0.0212
  140MOL    O8230940   7.666   4.939   3.334  0.6567  0.0588  0.0692
  140MOL    C8330941   7.662   4.947   3.090  0.6642  0.0486 -0.5207
  140MOL    H8430942   7.559   4.720   3.369 -1.9505  0.7607  1.5676
  140MOL    H8530943   7.396   4.674   3.350 -1.1987  1.3238  0.4577
  140MOL    H8630944   7.425   4.834   3.140  0.2884  2.0247 -0.0292
  140MOL    H8730945   7.614   5.030   3.038 -0.3977 -0.5626 -0.5161
  140MOL    H8830946   7.631   4.862   3.030 -2.4102  0.1221  0.8703
  140MOL    H8930947   7.771   4.950   3.090  0.6325  2.0359 -1.3896
  140MOL    C9030948   7.361   4.923   3.325  0.0797 -0.6487 -0.8166
  140MOL    C9130949   7.249   4.999   3.244 -0.5564  0.0149 -0.1898
  140MOL    C9230950   7.169   5.083   3.347  0.4628 -0.7610 -0.5324
  140MOL    O9330951   7.223   5.176   3.413 -0.3220 -0.0661  0.6104
  140MOL    C9430952   7.014   5.065   3.346 -0.5459  0.4150  0.6922
  140MOL    H9530953   7.306   4.857   3.391  0.3702 -2.2500 -2.1485
  140MOL    H9630954   7.419   4.989   3.390  0.0364 -0.1828 -1.2437
  140MOL    H9730955   7.179   4.932   3.193 -0.1687 -0.2829 -0.3325
  140MOL    H9830956   6.982   5.007   3.259  1.7499  2.5268 -1.6346
  140MOL    H9930957   6.976   5.011   3.432 -2.4461  1.4535  0.5367
  140MOL   H10030958   6.964   5.162   3.344 -0.3642  0.5104  0.7624
  140MOL   C10130959   7.302   5.101   3.140  0.4477 -0.1101 -0.0724
  140MOL   C10230960   7.197   5.196   3.069  0.2288  0.0825 -0.7892
  140MOL   C10330961   7.093   5.119   2.980  0.1322  0.2547  0.4344
  140MOL   O10430962   7.095   4.995   2.983 -0.0015 -0.6034  0.4452
  140MOL   C10530963   6.994   5.203   2.899 -0.6882 -0.3698 -0.1106
  140MOL   H10630964   7.375   5.158   3.196 -0.1829 -0.1025  0.7473
  140MOL   H10730965   7.364   5.056   3.062 -1.4575 -0.2219 -1.5739
  140MOL   H10830966   7.136   5.240   3.149  1.8911  0.2441  0.4117
  140MOL   H10930967   7.053   5.245   2.818  0.3763 -3.9166 -1.2742
  140MOL   H11030968   6.908   5.157   2.851 -0.9446  2.2296 -2.2837
  140MOL   H11130969   6.964   5.285   2.964 -0.5819  2.5513 -3.6080
  140MOL   C11230970   7.270   5.308   2.988  0.5272 -0.4007 -0.0636
  140MOL   C11330971   7.381   5.392   3.067  0.0819 -0.5901  0.5127
  140MOL   C11430972   7.347   5.540   3.081  0.0647 -0.1783 -0.2815
  140MOL   O11530973   7.421   5.628   3.032 -0.1658  0.1909 -0.3457
  140MOL   C11630974   7.221   5.580   3.168 -0.5301  0.2598 -0.2338
  140MOL   H11730975   7.207   5.385   2.944 -0.3675 -0.6190  0.8213
  140MOL   H11830976   7.326   5.265   2.904  0.4089  0.4142 -0.5609
  140MOL   H11930977   7.381   5.356   3.170 -0.7888 -1.5890  0.1753
  140MOL   H12030978   7.154   5.495   3.162 -1.4376  0.8504  1.3609
  140MOL   H12130979   7.255   5.586   3.271 -0.5133 -1.6711 -0.0986
  140MOL   H12230980   7.157   5.659   3.130 -1.8300 -0.2387  0.9164
  140MOL   C12330981   7.527   5.369   3.011  0.3064  0.5136  0.3900
  140MOL   C12430982   7.644   5.406   3.108 -0.2101 -0.3432 -0.9597
  140MOL   C12530983   7.763   5.458   3.020  0.9786  0.3031 -1.3277
  140MOL   O12630984   0.005   5.388   2.992  0.1652 -0.0201  0.6645
  140MOL   C12730985   7.769   5.607   2.974 -0.1367 -0.6680  0.5097
  140MOL   H12830986   7.533   5.418   2.914 -0.2194 -0.6149 -0.2181
  140MOL   H12930987   7.534   5.263   2.991 -2.2090 -0.0350  2.2368
  140MOL   H13030988   7.609   5.486   3.174  2.6318 -1.2988  1.8115
  140MOL   H13130989   7.824   5.619   2.881  3.1601 -2.5984  2.1060
  140MOL   H13230990   7.824   5.653   3.056  1.8196  0.1996 -1.2690
  140MOL   H13330991   7.670   5.653   2.979 -0.1351 -0.6468  0.3585
  140MOL   C13430992   7.680   5.300   3.211  0.2102  0.4959 -0.0522
  140MOL   C13530993   7.778   5.345   3.316 -0.4789 -0.1005 -0.8752
  140MOL   C13630994   7.732   5.459   3.400 -0.0156  0.1814 -0.5140
  140MOL   O13730995   7.801   5.552   3.424 -0.2421 -0.1454 -0.1150
  140MOL   C13830996   7.585   5.453   3.445  0.3714  0.6664  0.3195
  140MOL   H13930997   7.706   5.218   3.144  0.2134  0.6622 -0.2531
  140MOL   H14030998   7.588   5.267   3.261 -0.0933  0.6997 -0.4761
  140MOL   H14130999   0.001   5.396   3.263 -0.9711 -0.4013 -1.9295
  140MOL   H14231000   7.527   5.488   3.359  0.2614 -0.1913  0.0433
  140MOL   H14331001   7.566   5.523   3.526 -1.2499  2.1006 -1.2385
  140MOL   H14431002   7.560   5.350   3.470 -0.0476  1.1590  1.9831
  140MOL   C14531003   7.831   5.233   3.398 -0.5741 -0.2712 -0.9261
  140MOL   C14631004   0.073   5.256   3.515 -0.5872  0.4165 -0.2966
  140MOL   C14731005   0.084   5.129   3.597 -0.0047 -0.1968  0.8611
  140MOL   O14831006   0.135   5.032   3.544 -0.2598 -0.0054  0.0130
  140MOL   C14931007   0.030   5.118   3.742 -0.3882  0.3924  0.0940
  140MOL   H15031008   0.020   5.160   3.332 -1.8585 -0.0081 -2.1285
  140MOL   H15131009   7.744   5.180   3.436 -0.3450 -0.1962 -0.2807
  140MOL   H15231010   0.035   5.325   3.591  0.1723 -2.2527  2.6449
  140MOL   H15331011   0.099   5.081   3.818 -0.0641  1.5560  0.3845
  140MOL   H15431012   0.004   5.218   3.778  0.9913  1.1753 -1.0132
  140MOL   H15531013   7.804   5.050   3.727 -0.1600 -0.0347  0.7246
  140MOL   C15631014   0.211   5.322   3.475 -0.4184  0.1479  0.5615
  140MOL   C15731015   0.312   5.352   3.591 -0.1765  0.0376  0.4027
  140MOL   C15831016   0.247   5.431   3.697  0.1224  0.3087 -0.4710
  140MOL   O15931017   0.157   5.511   3.674 -0.0009 -0.4858  0.1147
  140MOL   C16031018   0.305   5.411   3.831  0.0939 -0.4540 -0.6470
  140MOL   H16131019   0.252   5.247   3.407 -0.6305 -0.9467  1.6152
  140MOL   H16231020   0.186   5.413   3.421 -1.6102  0.2258  1.2428
  140MOL   H16331021   0.332   5.254   3.636 -2.0745 -1.2112 -1.3923
  140MOL   H16431022   0.338   5.507   3.870 -0.6869  0.1618 -1.4724
  140MOL   H16531023   0.389   5.343   3.839 -0.3569 -0.7139  2.5203
  140MOL   H16631024   0.227   5.377   3.899 -0.6237 -0.4821 -1.4716
  140MOL   C16731025   0.436   5.431   3.545 -0.2928 -0.0442  0.5354
  140MOL   C16831026   0.521   5.367   3.444 -0.2894  0.4839  0.2864
  140MOL   C16931027   0.592   5.237   3.491 -0.1183 -0.3772 -0.1000
  140MOL   O17031028   0.578   5.205   3.609  0.1026 -0.4438  1.3714
  140MOL   C17131029   0.677   5.162   3.392  0.3638 -0.1901  0.0825
  140MOL   H17231030   0.399   5.518   3.491 -0.4368  0.5466  1.5684
  140MOL   H17331031   0.503   5.475   3.618  0.1002 -0.0168  0.1584
  140MOL   H17431032   0.462   5.322   3.364 -1.2079  0.3077  1.0543
  140MOL   H17531033   0.772   5.215   3.394  1.9150 -2.6465 -3.6802
  140MOL   H17631034   0.637   5.163   3.291  1.7454  0.1569 -0.4741
  140MOL   H17731035   0.674   5.061   3.434 -3.2123 -0.3182 -0.2767
  140MOL   C17831036   0.620   5.468   3.380  0.3851 -0.2661  0.0856
  140MOL   C17931037   0.539   5.565   3.280  0.5569 -0.1235  0.4023
  140MOL   C18031038   0.584   5.544   3.134  0.0903 -0.0590  0.6713
  140MOL   O18131039   0.697   5.509   3.104 -0.7312 -0.3252 -0.0239
  140MOL   C18231040   0.474   5.572   3.028 -0.5551  0.6891  0.0233
  140MOL   H18331041   0.685   5.528   3.445  1.1437 -0.2540 -0.6824
  140MOL   H18431042   0.685   5.401   3.325  1.1839  1.0463 -0.6020
  140MOL   H18531043   0.433   5.541   3.274 -0.0299  2.7795 -1.4919
  140MOL   H18631044   0.487   5.669   2.979  3.1844  0.4373  0.3519
  140MOL   H18731045   0.377   5.579   3.078 -1.3814 -1.2139 -1.2273
  140MOL   H18831046   0.478   5.497   2.949 -1.1564  0.1030  0.5465
  140MOL   C18931047   0.547   5.711   3.325 -0.3830 -0.2287  0.4861
  140MOL   C19031048   0.451   5.812   3.257 -0.1275  0.1332  0.1355
  140MOL   C19131049   0.300   5.791   3.273 -0.6202 -0.1808  0.4135
  140MOL   O19231050   0.233   5.797   3.175 -0.0929  0.0059  0.3760
  140MOL   C19331051   0.235   5.757   3.406  0.4125 -0.9655 -0.5213
  140MOL   H19431052   0.518   5.715   3.430 -3.2712  0.0174 -0.2832
  140MOL   H19531053   0.648   5.749   3.309  0.7685 -1.4933  4.1413
  140MOL   H19631054   0.484   5.808   3.153 -0.8886 -1.7403 -0.0464
  140MOL   H19731055   0.163   5.679   3.382  0.2285 -0.9510 -0.0297
  140MOL   H19831056   0.294   5.723   3.491  1.7454  1.3737 -0.4725
  140MOL   H19931057   0.175   5.844   3.433  1.8645 -0.5840  1.6566
  140MOL   C20031058   0.484   5.958   3.309 -0.0035 -0.5644 -0.6597
  140MOL   C20131059   0.465   6.070   3.201  0.1915  0.1039  0.3594
  140MOL   C20231060   0.535   6.032   3.071 -0.1703 -0.5123 -0.3818
  140MOL   O20331061   0.648   5.996   3.067 -0.1399  0.0281  0.7775
  140MOL   C20431062   0.459   6.052   2.944 -0.0777 -0.4006 -0.3041
  140MOL   H20531063   0.421   5.975   3.397 -1.4979 -1.4992 -1.5291
  140MOL   H20631064   0.588   5.967   3.341 -0.1156  1.8058 -0.8667
  140MOL   H20731065   0.360   6.085   3.177  0.0445 -2.9672 -1.0697
  140MOL   H20831066   0.432   5.961   2.891  0.4059  0.7240 -2.5210
  140MOL   H20931067   0.367   6.109   2.952  0.5948  0.3510  2.7837
  140MOL   H21031068   0.528   6.100   2.875 -0.1505  0.9569  0.5489
  140MOL   C21131069   0.508   6.209   3.245 -0.8709 -0.3177 -0.3669
  140MOL   C21231070   0.656   6.216   3.273  0.6331 -0.7061 -0.3761
  140MOL   C21331071   0.713   6.354   3.322  0.0785  0.1370  0.1099
  140MOL   O21431072   0.647   6.458   3.327  0.7163 -0.6925 -0.0599
  140MOL   C21531073   0.855   6.357   3.359  0.5189  0.2987 -0.4594
  140MOL   H21631074   0.495   6.276   3.161  0.6434  1.0520  0.4645
  140MOL   H21731075   0.442   6.248   3.322 -0.7486 -0.4840 -0.1755
  140MOL   H21831076   0.703   6.196   3.177 -1.7671 -0.2990 -1.6781
  140MOL   H21931077   0.914   6.349   3.268 -0.9883  2.4650 -1.6755
  140MOL   H22031078   0.886   6.456   3.394  1.8554 -0.2100 -0.1802
  140MOL   H22131079   0.894   6.289   3.435  1.1747  2.1678  0.9086
  140MOL   H22231080   0.686   6.143   3.348 -1.8554 -1.7856 -0.3717
  141MOL     C131081   2.722   5.444   1.926 -0.5353  0.5747  0.0997
  141MOL     C231082   2.674   5.307   1.974 -0.1794  0.2477  0.4765
  141MOL     C331083   2.678   5.202   1.856  0.0909 -0.1875 -0.3086
  141MOL     O431084   2.754   5.104   1.852 -0.2896 -0.0010  0.6524
  141MOL     C531085   2.572   5.207   1.756 -0.6561  0.5730  0.0008
  141MOL     H631086   2.697   5.474   1.824  1.4093  0.9561 -0.2719
  141MOL     H731087   2.829   5.456   1.940 -0.4894  0.0489  0.2049
  141MOL     H831088   2.568   5.313   1.995 -0.0193 -0.8798  1.7475
  141MOL     H931089   2.595   5.147   1.668  0.5841 -2.4880  2.3438
  141MOL    H1031090   2.482   5.168   1.803  0.3152  1.9860  3.1379
  141MOL    H1131091   2.545   5.310   1.729 -1.3565  0.5572  0.6331
  141MOL    H1231092   2.672   5.520   1.987 -1.8778 -0.2486  0.0399
  141MOL    C1331093   2.747   5.257   2.100  0.5093 -0.8864  0.4437
  141MOL    C1431094   2.705   5.134   2.177 -0.2173 -0.5334 -0.4934
  141MOL    C1531095   2.570   5.166   2.247 -0.0204 -0.4099  0.5627
  141MOL    O1631096   2.574   5.199   2.365  0.4467  0.1255 -0.6493
  141MOL    C1731097   2.440   5.142   2.167  0.7947 -0.3493  0.0077
  141MOL    H1831098   2.848   5.238   2.063  0.7016 -0.1183  0.5574
  141MOL    H1931099   2.754   5.337   2.174 -0.0836 -0.3826 -0.0488
  141MOL    H2031100   2.697   5.042   2.118 -0.2065 -0.9450  0.1408
  141MOL    H2131101   2.457   5.087   2.075 -2.3299 -0.5809 -0.4847
  141MOL    H2231102   2.370   5.096   2.237  1.8301 -0.4265  1.0092
  141MOL    H2331103   2.394   5.236   2.139  0.2668  0.3646  3.0171
  141MOL    C2431104   2.814   5.089   2.276  0.2508 -0.2602 -0.3679
  141MOL    C2531105   2.786   4.970   2.365 -0.2435  0.2236  0.6234
  141MOL    C2631106   2.780   4.839   2.287  0.1267 -0.2300 -0.0620
  141MOL    O2731107   2.871   4.807   2.208 -0.1492 -0.3270  0.7319
  141MOL    C2831108   2.676   4.734   2.322  0.2033  0.3024 -0.5074
  141MOL    H2931109   2.906   5.073   2.220  0.2289  1.6086 -0.9653
  141MOL    H3031110   2.837   5.178   2.335  1.5478  1.9293 -4.0162
  141MOL    H3131111   2.685   4.967   2.406  0.3185 -0.8214  2.0090
  141MOL    H3231112   2.711   4.637   2.288 -0.0833  0.3174 -0.8405
  141MOL    H3331113   2.666   4.716   2.429  1.2394  1.2664 -0.2360
  141MOL    H3431114   2.575   4.764   2.294 -0.4351  0.2572  1.6669
  141MOL    C3531115   2.886   4.948   2.479 -0.0844  0.3724  0.0839
  141MOL    C3631116   2.875   5.030   2.609  0.1137  0.1734  0.2218
  141MOL    C3731117   2.746   4.991   2.676 -0.7220 -1.0210  0.6462
  141MOL    O3831118   2.722   4.869   2.695 -0.1298  0.1901 -0.0102
  141MOL    C3931119   2.641   5.105   2.711 -0.4429  0.3012  0.5971
  141MOL    H4031120   2.988   4.965   2.445 -0.3754 -0.0456 -1.0349
  141MOL    H4131121   2.883   4.846   2.514 -1.0719  0.7068  0.9927
  141MOL    H4231122   2.877   5.133   2.574  1.3996 -0.0004 -0.2327
  141MOL    H4331123   2.540   5.087   2.673 -0.2943 -0.7752  0.7024
  141MOL    H4431124   2.667   5.195   2.656  3.0517 -2.1906 -2.0481
  141MOL    H4531125   2.641   5.112   2.820  1.6769 -1.2999  0.7287
  141MOL    C4631126   2.998   5.005   2.701  0.0711  0.1642  0.4530
  141MOL    C4731127   3.016   5.124   2.802 -0.0524 -0.6809  0.5694
  141MOL    C4831128   3.105   5.092   2.924 -0.2122  0.0737 -0.2470
  141MOL    O4931129   3.203   5.026   2.917  0.0978 -0.2516 -0.1834
  141MOL    C5031130   3.060   5.163   3.055 -0.1781 -0.0200  0.4582
  141MOL    H5131131   3.085   4.984   2.639  0.5309 -0.0040  1.1454
  141MOL    H5231132   2.982   4.913   2.757  0.1685 -0.5874 -0.7462
  141MOL    H5331133   2.918   5.147   2.843  1.0044  1.9748  1.7352
  141MOL    H5431134   3.089   5.102   3.141 -1.6525  0.0981  1.0406
  141MOL    H5531135   3.090   5.268   3.063 -0.5405  0.0006  1.6499
  141MOL    H5631136   2.952   5.169   3.060 -0.2571 -1.1029  0.0338
  141MOL    C5731137   3.056   5.259   2.739 -1.0115  0.2186 -0.5558
  141MOL    C5831138   3.196   5.253   2.656  0.1564 -0.6741 -0.2916
  141MOL    C5931139   3.170   5.228   2.506  0.0654  0.0739 -0.3049
  141MOL    O6031140   3.067   5.271   2.449 -0.2357  0.9540 -0.2954
  141MOL    C6131141   3.274   5.150   2.431 -1.0176 -0.3147 -0.4242
  141MOL    H6231142   3.080   5.328   2.820 -1.4412 -1.0742  0.6752
  141MOL    H6331143   2.974   5.306   2.685 -0.9104  1.5196  0.4001
  141MOL    H6431144   3.255   5.173   2.700  0.2986  0.8120  2.3538
  141MOL    H6531145   3.284   5.051   2.477 -0.9724 -0.0178  0.2106
  141MOL    H6631146   3.247   5.136   2.327 -2.6797 -1.2234  0.1217
  141MOL    H6731147   3.366   5.205   2.413 -3.5789  4.3409  0.1647
  141MOL    C6831148   3.287   5.388   2.675  0.0716 -0.2145  0.1877
  141MOL    C6931149   3.392   5.394   2.789 -0.8350  0.0841 -0.2339
  141MOL    C7031150   3.507   5.282   2.759  0.3422 -0.0599 -0.0551
  141MOL    O7131151   3.489   5.184   2.685  0.1295 -0.4188  0.1083
  141MOL    C7231152   3.645   5.312   2.810  0.1626 -0.1821  0.1246
  141MOL    H7331153   3.335   5.415   2.582  1.4717  0.2123  1.0271
  141MOL    H7431154   3.218   5.471   2.688  0.2115  0.0013 -0.4472
  141MOL    H7531155   3.445   5.488   2.773 -1.1054  1.0271  3.9292
  141MOL    H7631156   3.675   5.235   2.882 -0.6427 -2.2753 -1.7026
  141MOL    H7731157   3.715   5.323   2.727  1.1793 -1.7479  0.7483
  141MOL    H7831158   3.647   5.406   2.865 -3.1049 -0.6908  1.2060
  141MOL    C7931159   3.332   5.383   2.927 -0.3043  0.2474 -0.4004
  141MOL    C8031160   3.386   5.457   3.052 -0.2886 -0.2758 -0.1859
  141MOL    C8131161   3.425   5.606   3.018 -0.1254  0.1552  0.6246
  141MOL    O8231162   3.543   5.646   3.026  0.1675 -0.1264  0.0776
  141MOL    C8331163   3.317   5.700   2.966  0.3151  0.0761 -0.3515
  141MOL    H8431164   3.294   5.286   2.959 -3.0883  1.2042 -0.6355
  141MOL    H8531165   3.238   5.438   2.922 -0.5015  0.0968  1.2543
  141MOL    H8631166   3.296   5.464   3.113 -0.0179  0.2971  0.1454
  141MOL    H8731167   3.214   5.666   2.972  0.8565 -1.5763  0.0997
  141MOL    H8831168   3.337   5.705   2.859  1.4167  0.1022 -0.1561
  141MOL    H8931169   3.330   5.794   3.018  1.7293 -0.6619  0.6807
  141MOL    C9031170   3.506   5.384   3.125 -0.2827  0.1161  0.3899
  141MOL    C9131171   3.479   5.255   3.208  0.4954  0.0577  0.2729
  141MOL    C9231172   3.370   5.285   3.307  0.5345  0.2534 -0.0404
  141MOL    O9331173   3.250   5.264   3.291  0.2125  0.1826  0.0575
  141MOL    C9431174   3.410   5.370   3.422  0.0394  0.2234 -0.1617
  141MOL    H9531175   3.592   5.366   3.061  1.2614  0.8521  2.2218
  141MOL    H9631176   3.540   5.450   3.205  1.9179 -0.6055  0.0705
  141MOL    H9731177   3.566   5.226   3.266 -0.1649  1.6721  2.1441
  141MOL    H9831178   3.518   5.374   3.440  0.4189 -3.3253 -1.2623
  141MOL    H9931179   3.372   5.472   3.417 -0.4921  0.0077 -0.5675
  141MOL   H10031180   3.368   5.322   3.509  1.5690  1.0556  1.0646
  141MOL   C10131181   3.458   5.123   3.126 -0.5404  0.8135 -0.2834
  141MOL   C10231182   3.473   4.983   3.204  0.2962 -0.4649 -0.1229
  141MOL   C10331183   3.599   4.972   3.290 -0.1242  0.3557  0.7971
  141MOL   O10431184   3.591   4.963   3.409 -0.5822  0.0095 -0.1232
  141MOL   C10531185   3.744   4.968   3.232  0.0381 -0.2200  0.5002
  141MOL   H10631186   3.356   5.118   3.089 -1.0267 -1.7362  1.2389
  141MOL   H10731187   3.525   5.120   3.041 -1.5361 -1.9665 -1.0175
  141MOL   H10831188   3.392   4.992   3.275  0.4044  1.7945 -0.2638
  141MOL   H10931189   3.760   4.875   3.178 -1.6944 -1.1232  1.4884
  141MOL   H11031190   3.746   5.053   3.163 -2.5844 -0.0995  0.5055
  141MOL   H11131191   3.821   4.978   3.308  0.3162  3.2965 -0.1344
  141MOL   C11231192   3.452   4.859   3.108 -0.3398 -0.9426 -0.4008
  141MOL   C11331193   3.483   4.716   3.158 -0.0034 -0.3223  0.7907
  141MOL   C11431194   3.497   4.617   3.044  0.3699 -0.9936  0.9314
  141MOL   O11531195   3.429   4.633   2.943 -0.1779 -0.8316 -0.5422
  141MOL   C11631196   3.588   4.494   3.064 -0.4838 -0.4806 -0.2449
  141MOL   H11731197   3.507   4.874   3.015 -2.9037 -0.3439 -1.8621
  141MOL   H11831198   3.353   4.876   3.066 -0.4196  1.4419  0.7162
  141MOL   H11931199   3.588   4.722   3.189  0.3397 -2.1625  0.0699
  141MOL   H12031200   3.586   4.415   2.988  2.5140 -2.3337  1.5201
  141MOL   H12131201   3.689   4.533   3.064 -0.3846 -0.6889  1.5828
  141MOL   H12231202   3.566   4.450   3.161  1.4838  0.4797  0.6637
  141MOL   C12331203   3.390   4.668   3.271 -0.0770  0.2825 -0.4269
  141MOL   C12431204   3.250   4.616   3.235  0.0440 -0.0289 -0.0514
  141MOL   C12531205   3.150   4.735   3.208  0.0469 -0.2118 -0.3194
  141MOL   O12631206   3.172   4.853   3.246  0.3471 -0.1026  0.3026
  141MOL   C12731207   3.023   4.708   3.124 -0.4244 -0.0929 -0.3822
  141MOL   H12831208   3.394   4.742   3.350  1.0377  0.7950 -0.9497
  141MOL   H12931209   3.434   4.583   3.323 -0.8769  0.0118 -0.1806
  141MOL   H13031210   3.248   4.567   3.137  0.8313 -0.0844 -0.0413
  141MOL   H13131211   2.972   4.802   3.107  2.0756  1.1423 -1.2127
  141MOL   H13231212   2.966   4.637   3.185 -0.4305 -0.9917 -1.4145
  141MOL   H13331213   3.049   4.682   3.021  0.4652  1.7067 -0.6243
  141MOL   C13431214   3.185   4.528   3.342  0.1334 -0.3677 -0.3883
  141MOL   C13531215   3.222   4.379   3.333 -0.1426  0.6905 -0.8718
  141MOL   C13631216   3.198   4.307   3.470  0.1294  0.8811 -0.1380
  141MOL   O13731217   3.084   4.276   3.507  0.2328 -0.7389 -0.2335
  141MOL   C13831218   3.317   4.278   3.563 -0.7966  0.3277 -0.0632
  141MOL   H13931219   3.079   4.541   3.364  0.2604 -0.9424  0.6188
  141MOL   H14031220   3.222   4.569   3.436 -1.1037 -1.5980  0.6755
  141MOL   H14131221   3.329   4.372   3.314  0.1207  0.1687  0.7166
  141MOL   H14231222   3.389   4.360   3.558 -0.5033  0.0357 -0.6205
  141MOL   H14331223   3.372   4.191   3.527  0.7774  0.7614  1.2510
  141MOL   H14431224   3.281   4.259   3.665 -1.7234  0.0320 -0.4371
  141MOL   C14531225   3.145   4.307   3.222  0.5077  0.8768  0.0538
  141MOL   C14631226   3.182   4.154   3.216  1.1023  0.7651  0.2996
  141MOL   C14731227   3.075   4.085   3.119 -0.2636  0.3628  0.1951
  141MOL   O14831228   3.101   4.076   3.002 -0.0606 -0.1746  0.4883
  141MOL   C14931229   2.934   4.055   3.174  0.2675  0.1315  0.1502
  141MOL   H15031230   3.167   4.350   3.125  0.2448 -0.7720 -0.7468
  141MOL   H15131231   3.040   4.319   3.247  0.2239 -0.5820 -0.4118
  141MOL   H15231232   3.168   4.103   3.311  0.6755  1.2447  0.4975
  141MOL   H15331233   2.928   4.114   3.265  5.0888  0.5543  0.3303
  141MOL   H15431234   2.865   4.087   3.095 -0.1601  2.3862  1.3869
  141MOL   H15531235   2.928   3.949   3.194 -0.6062  0.2350  0.4314
  141MOL   C15631236   3.321   4.124   3.165  0.2707 -0.2523 -0.0475
  141MOL   C15731237   3.364   3.978   3.137 -0.4357 -0.3635 -0.6836
  141MOL   C15831238   3.332   3.864   3.242 -0.1885 -0.4959 -0.0307
  141MOL   O15931239   3.378   3.863   3.357 -0.7464 -0.0925 -0.3669
  141MOL   C16031240   3.244   3.745   3.182 -0.9147 -0.3036 -0.5772
  141MOL   H16131241   3.327   4.191   3.079  0.7416  2.2870  1.8781
  141MOL   H16231242   3.397   4.174   3.226  1.7100 -1.1521 -1.0682
  141MOL   H16331243   3.305   3.937   3.056 -1.1209  0.0057 -0.3733
  141MOL   H16431244   3.255   3.737   3.073  0.2367 -1.6870 -0.3706
  141MOL   H16531245   3.139   3.767   3.201 -0.9495 -0.9809  0.0323
  141MOL   H16631246   3.270   3.659   3.243  0.2033  0.3531 -0.1146
  141MOL   C16731247   3.498   3.953   3.059  0.2400  0.2304 -0.1435
  141MOL   C16831248   3.635   3.947   3.136  0.6266  0.4465 -0.0735
  141MOL   C16931249   3.680   4.094   3.159  0.2528 -0.5638  0.3360
  141MOL   O17031250   3.699   4.177   3.072  0.1062 -0.1594  0.0074
  141MOL   C17131251   3.705   4.131   3.306  0.0529  0.0257 -0.2479
  141MOL   H17231252   3.471   3.863   3.004 -2.0758 -0.0886  1.4074
  141MOL   H17331253   3.503   4.023   2.976 -2.8712  0.6419 -0.0555
  141MOL   H17431254   3.609   3.893   3.228  0.6358  1.8596  0.7835
  141MOL   H17531255   3.685   4.236   3.327 -0.3379 -0.3098  1.1468
  141MOL   H17631256   3.808   4.103   3.328  0.4166 -0.2993 -2.3275
  141MOL   H17731257   3.629   4.072   3.358  0.9975  0.3178  1.5129
  141MOL   C17831258   3.746   3.869   3.059  0.1249  0.7237 -0.1742
  141MOL   C17931259   3.881   3.857   3.135 -0.2445 -0.3374 -0.2042
  141MOL   C18031260   4.003   3.851   3.035 -0.4270  0.4872  0.5162
  141MOL   O18131261   4.034   3.747   2.984 -0.3747 -0.5037  0.0709
  141MOL   C18231262   4.069   3.983   2.993 -0.6985 -0.3658 -0.9402
  141MOL   H18331263   3.700   3.773   3.039  2.0757 -0.2193 -0.2678
  141MOL   H18431264   3.750   3.914   2.959 -3.1890 -0.8934 -1.1109
  141MOL   H18531265   3.896   3.954   3.181 -1.7181 -0.3544  0.3152
  141MOL   H18631266   4.166   3.967   2.946 -0.3063  2.2280 -1.1313
  141MOL   H18731267   4.086   4.038   3.085 -1.4538 -1.6615 -0.0125
  141MOL   H18831268   4.008   4.048   2.929 -0.1654  2.1435  1.0347
  141MOL   C18931269   3.873   3.749   3.245 -0.5013 -1.1411 -0.5828
  141MOL   C19031270   4.006   3.716   3.316 -1.0582  0.0019 -0.2590
  141MOL   C19131271   4.056   3.841   3.387  0.0587  0.3655 -0.9904
  141MOL   O19231272   4.169   3.885   3.361  0.0208 -0.1405 -0.3602
  141MOL   C19331273   3.971   3.908   3.498  0.5011  0.6206  0.6272
  141MOL   H19431274   3.794   3.768   3.318 -1.3680 -1.4286 -1.4314
  141MOL   H19531275   3.833   3.659   3.200 -2.5168  0.3811 -1.9282
  141MOL   H19631276   4.068   3.694   3.229  0.3833  0.3321  0.6770
  141MOL   H19731277   3.869   3.870   3.496  0.5023  0.5458  1.8934
  141MOL   H19831278   4.020   3.875   3.590  0.4912  0.8007  0.6964
  141MOL   H19931279   3.967   4.017   3.494 -0.2970  0.5571 -0.8574
  141MOL   C20031280   3.990   3.588   3.408  0.5645 -0.9596  0.3444
  141MOL   C20131281   4.117   3.530   3.474 -0.2369 -0.0763 -0.6015
  141MOL   C20231282   4.211   3.482   3.365 -0.5941  0.0326 -0.1583
  141MOL   O20331283   4.171   3.415   3.275 -0.3045 -0.4024  0.7470
  141MOL   C20431284   4.353   3.532   3.361  0.2108  0.4649  0.0403
  141MOL   H20531285   3.918   3.613   3.486  0.1615 -0.6569 -0.1203
  141MOL   H20631286   3.944   3.512   3.346 -2.6939  1.4763 -0.3668
  141MOL   H20731287   4.175   3.608   3.522  0.6653 -0.8670 -0.3759
  141MOL   H20831288   4.347   3.618   3.295 -0.7340  0.1127 -0.3287
  141MOL   H20931289   4.385   3.547   3.465 -0.9342  2.3856  0.1324
  141MOL   H21031290   4.416   3.462   3.307  2.2962  2.0754  0.3009
  141MOL   C21131291   4.076   3.412   3.574 -0.2431 -0.2877  0.1517
  141MOL   C21231292   4.203   3.339   3.641 -0.0963 -0.1186 -0.2008
  141MOL   C21331293   4.256   3.413   3.762 -0.5925  0.5210 -0.3147
  141MOL   O21431294   4.242   3.536   3.764  0.5695 -0.8198  0.1978
  141MOL   C21531295   4.309   3.329   3.880 -0.9133  0.1218  0.1265
  141MOL   H21631296   3.999   3.439   3.647 -2.0573 -1.0695 -1.4256
  141MOL   H21731297   4.023   3.344   3.508 -1.4132  1.5575 -0.8482
  141MOL   H21831298   4.284   3.341   3.568 -1.1688 -0.3725 -1.4071
  141MOL   H21931299   4.406   3.289   3.848 -0.8784 -1.1091  1.7127
  141MOL   H22031300   4.324   3.402   3.960  0.3334  1.1908 -1.0548
  141MOL   H22131301   4.239   3.250   3.909  1.0006 -1.4323  0.6788
  141MOL   H22231302   4.176   3.237   3.669 -1.4674  0.3247  0.1366
  142MOL     C131303   6.230   6.022   0.396  0.3486  0.6165  0.5852
  142MOL     C231304   6.346   5.995   0.498 -0.3547 -0.0724 -0.0571
  142MOL     C331305   6.411   5.862   0.491 -0.2962  0.5747  0.0619
  142MOL     O431306   6.447   5.808   0.385  0.5170  0.3021  0.4880
  142MOL     C531307   6.423   5.778   0.620  0.2353 -0.1143  0.0766
  142MOL     H631308   6.264   6.060   0.299  0.0418 -1.9957 -0.5898
  142MOL     H731309   6.168   6.102   0.435 -0.7398  1.5836 -2.9151
  142MOL     H831310   6.296   5.983   0.594  0.1007 -0.0118  0.1862
  142MOL     H931311   6.374   5.834   0.700  1.0782  1.6355 -0.5994
  142MOL    H1031312   6.399   5.672   0.623  0.8496 -0.2327  1.7028
  142MOL    H1131313   6.526   5.782   0.655  0.3868 -2.3804 -0.0701
  142MOL    H1231314   6.157   5.941   0.388 -0.1634  0.9929  1.4455
  142MOL    C1331315   6.451   6.101   0.516  0.2534 -0.6923 -0.0337
  142MOL    C1431316   6.413   6.242   0.571 -0.3187 -0.0372  0.4774
  142MOL    C1531317   6.377   6.242   0.723 -1.2270 -0.5926 -0.6877
  142MOL    O1631318   6.287   6.312   0.763  0.4111  0.1630 -0.1613
  142MOL    C1731319   6.453   6.153   0.814 -0.1151 -0.5602 -0.3218
  142MOL    H1831320   6.528   6.057   0.579 -0.0520 -0.8961  0.1976
  142MOL    H1931321   6.508   6.112   0.424 -0.0654 -3.7353 -0.6484
  142MOL    H2031322   6.506   6.298   0.578  0.7156 -1.8418  1.4789
  142MOL    H2131323   6.561   6.160   0.799 -0.2514  0.0759 -1.0208
  142MOL    H2231324   6.423   6.162   0.918 -1.2753  0.9748 -0.7693
  142MOL    H2331325   6.418   6.053   0.786 -1.6927 -0.2938  0.6357
  142MOL    C2431326   6.312   6.328   0.489  0.1876 -0.7925  0.1951
  142MOL    C2531327   6.351   6.477   0.460 -0.0675 -0.1382  1.4726
  142MOL    C2631328   6.355   6.557   0.593  0.5887 -0.0265  0.1467
  142MOL    O2731329   6.466   6.583   0.642  0.1047 -0.0932  0.8142
  142MOL    C2831330   6.223   6.590   0.668 -0.2540 -0.4743  0.0017
  142MOL    H2931331   6.304   6.280   0.391  1.0724 -0.5010 -0.0170
  142MOL    H3031332   6.211   6.327   0.532  0.8491 -1.0419  1.7719
  142MOL    H3131333   6.273   6.525   0.400 -0.9274 -3.8114 -0.4809
  142MOL    H3231334   6.153   6.506   0.664 -2.0595  1.0056 -0.1840
  142MOL    H3331335   6.243   6.608   0.773 -1.7553  1.3071  0.0071
  142MOL    H3431336   6.179   6.682   0.631 -0.1013 -0.2015  0.5024
  142MOL    C3531337   6.481   6.499   0.376  0.3150  0.0704 -0.7817
  142MOL    C3631338   6.492   6.447   0.233 -0.5561 -0.5178  1.1905
  142MOL    C3731339   6.423   6.530   0.117 -0.4205 -0.1322  0.0563
  142MOL    O3831340   6.420   6.650   0.109 -0.2170  0.0849 -0.1223
  142MOL    C3931341   6.335   6.448   0.021  0.4306  0.3800  0.0759
  142MOL    H4031342   6.567   6.461   0.431  0.3196  0.8629 -0.2314
  142MOL    H4131343   6.491   6.607   0.368 -0.8683  0.1032 -2.0487
  142MOL    H4231344   6.458   6.343   0.229  2.4073 -1.4692 -0.6356
  142MOL    H4331345   6.243   6.423   0.072  0.2405 -0.2061 -0.5394
  142MOL    H4431346   6.382   6.350   0.008 -0.6030 -0.0767 -0.2874
  142MOL    H4531347   6.321   6.491   7.779 -2.1381  0.0131  0.2448
  142MOL    C4631348   6.642   6.427   0.190  0.8412  0.6228  0.3706
  142MOL    C4731349   6.734   6.546   0.208 -0.0780 -0.4287  0.2170
  142MOL    C4831350   6.796   6.550   0.347 -0.4962 -0.9029  0.2553
  142MOL    O4931351   6.872   6.468   0.387  0.0161 -0.2449  0.0059
  142MOL    C5031352   6.773   6.673   0.435 -0.3379  0.1634  0.9535
  142MOL    H5131353   6.653   6.381   0.092  2.6327  0.8446  0.4496
  142MOL    H5231354   6.670   6.351   0.262  2.7971 -0.8219 -1.8430
  142MOL    H5331355   6.684   6.642   0.197 -2.4789 -1.5842  0.8296
  142MOL    H5431356   6.786   6.765   0.378  1.0910  0.5902  1.9485
  142MOL    H5531357   6.669   6.669   0.466  0.0769 -0.9944  2.2219
  142MOL    H5631358   6.845   6.665   0.516  1.1694  3.4682  0.0350
  142MOL    C5731359   6.846   6.549   0.103 -0.1192 -0.1059 -0.6120
  142MOL    C5831360   6.801   6.616   7.826 -0.1395  0.0179  0.1585
  142MOL    C5931361   6.828   6.771   7.823 -0.0898  0.0703 -0.0464
  142MOL    O6031362   6.917   6.819   7.755 -0.4885  0.4505  0.0903
  142MOL    C6131363   6.753   6.854   0.065 -0.7088 -0.2819  0.3301
  142MOL    H6231364   6.893   6.452   0.090 -1.0669 -0.5488 -0.7880
  142MOL    H6331365   6.936   6.595   0.143 -0.2954  0.0923 -0.4372
  142MOL    H6431366   6.693   6.601   7.817 -0.2922  2.0428 -1.7963
  142MOL    H6531367   6.781   6.954   0.032 -1.3825 -0.1317  0.2128
  142MOL    H6631368   6.647   6.829   0.058 -0.8683  0.4130  0.2663
  142MOL    H6731369   6.790   6.842   0.167  0.3373 -1.3170 -0.1476
  142MOL    C6831370   6.865   6.531   7.708 -0.2469  0.4023  0.1904
  142MOL    C6931371   6.803   6.554   7.571  0.2337 -0.5588  0.0481
  142MOL    C7031372   6.653   6.514   7.563 -0.7305 -0.2051 -0.3198
  142MOL    O7131373   6.607   6.403   7.583  0.0680  0.5298 -0.1969
  142MOL    C7231374   6.571   6.632   7.510  0.2018 -0.2724 -0.6327
  142MOL    H7331375   6.965   6.570   7.691 -0.0823 -0.6719 -1.4506
  142MOL    H7431376   6.873   6.425   7.733 -0.3639  0.6215  1.1888
  142MOL    H7531377   6.802   6.662   7.554  1.8099 -0.3740  1.0604
  142MOL    H7631378   6.463   6.620   7.507  0.1701  0.4593 -2.8694
  142MOL    H7731379   6.567   6.715   7.581  2.2375 -0.9952  0.3573
  142MOL    H7831380   6.596   6.665   7.410 -1.1107 -2.7991 -1.8393
  142MOL    C7931381   6.891   6.483   7.456 -0.7481  0.3031  0.7434
  142MOL    C8031382   6.934   6.335   7.467  0.1407 -0.2725  0.2664
  142MOL    C8131383   7.083   6.326   7.475  0.2404  0.6258 -0.6026
  142MOL    O8231384   7.158   6.310   7.379  0.5622  0.2546 -0.0898
  142MOL    C8331385   7.150   6.354   7.608  0.0696  0.3595  0.0556
  142MOL    H8431386   6.981   6.538   7.430 -1.7849  0.2535 -3.1676
  142MOL    H8531387   6.839   6.491   7.361  1.9219  2.4514 -0.5896
  142MOL    H8631388   6.894   6.292   7.559 -0.1396  1.5294  1.0215
  142MOL    H8731389   7.205   6.448   7.606 -1.3227  1.1449 -2.1114
  142MOL    H8831390   7.218   6.276   7.642  0.5096  0.5026 -0.5083
  142MOL    H8931391   7.072   6.364   7.685 -2.9651  2.3877 -3.1489
  142MOL    C9031392   6.887   6.247   7.352  0.6016 -0.5995 -0.2457
  142MOL    C9131393   6.918   6.097   7.377  0.0049  0.1631 -0.2800
  142MOL    C9231394   6.819   6.032   7.476 -0.7883 -0.1267 -0.2752
  142MOL    O9331395   6.860   5.987   7.581  0.6181  0.1737 -0.0265
  142MOL    C9431396   6.673   6.021   7.433  0.0787  0.4454  0.2922
  142MOL    H9531397   6.778   6.259   7.355  0.7370  0.4658  1.1188
  142MOL    H9631398   6.921   6.278   7.254  1.5084  0.8800  0.5197
  142MOL    H9731399   7.015   6.086   7.425  0.3276 -0.2272 -1.0037
  142MOL    H9831400   6.639   5.925   7.392 -1.9096  0.6576  1.3921
  142MOL    H9931401   6.611   6.049   7.518  0.2997 -1.2405  1.0334
  142MOL   H10031402   6.659   6.085   7.346 -0.7563 -1.9370 -1.4090
  142MOL   C10131403   6.919   6.025   7.239 -0.5413 -0.2338  0.0378
  142MOL   C10231404   6.958   5.876   7.233  0.1815 -0.5352  0.1292
  142MOL   C10331405   7.102   5.847   7.282 -0.0363  0.4199 -0.2403
  142MOL   O10431406   7.121   5.751   7.360  0.0903 -0.7431  0.0888
  142MOL   C10531407   7.215   5.934   7.222  0.0481 -0.7254 -0.2036
  142MOL   H10631408   6.815   6.036   7.209 -1.1629  1.1826  2.5864
  142MOL   H10731409   6.986   6.067   7.163 -2.2161  0.8287 -0.8710
  142MOL   H10831410   6.892   5.825   7.303 -0.9069 -0.8785 -1.1181
  142MOL   H10931411   7.258   5.894   7.131 -0.0056  0.6382 -0.8445
  142MOL   H11031412   7.197   6.041   7.211  2.1050 -0.3254  0.1849
  142MOL   H11131413   7.295   5.925   7.295 -2.1532  2.5185  2.8273
  142MOL   C11231414   6.940   5.815   7.095 -0.2342  0.6565  0.2643
  142MOL   C11331415   6.861   5.688   7.080  0.0895 -0.1762  0.4246
  142MOL   C11431416   6.720   5.710   7.130  0.2962  1.0477  0.2846
  142MOL   O11531417   6.679   5.665   7.232  0.2991 -0.2885  0.4573
  142MOL   C11631418   6.624   5.762   7.031 -0.1563  0.1944  0.1423
  142MOL   H11731419   7.027   5.819   7.030 -0.9768  1.0139 -0.7364
  142MOL   H11831420   6.887   5.897   7.045 -0.6832 -0.2156 -0.7052
  142MOL   H11931421   6.857   5.680   6.971 -0.0118  0.3126  0.3911
  142MOL   H12031422   6.615   5.674   6.968  0.4264  0.1642  0.1020
  142MOL   H12131423   6.531   5.792   7.081 -1.4771 -2.7606 -0.4065
  142MOL   H12231424   6.663   5.835   6.961 -0.1791  0.7028  0.6542
  142MOL   C12331425   6.918   5.555   7.135 -0.4706  0.6855  0.3761
  142MOL   C12431426   6.858   5.428   7.076 -0.9353 -0.1394  0.0128
  142MOL   C12531427   6.868   5.304   7.162 -0.6450 -0.2476  0.1442
  142MOL   O12631428   6.944   5.209   7.145  0.4488  0.2006  0.2006
  142MOL   C12731429   6.774   5.298   7.275  0.3852 -0.2795  0.0785
  142MOL   H12831430   6.900   5.536   7.240 -0.1550  1.0040  0.4881
  142MOL   H12931431   7.024   5.558   7.112 -0.9323  1.3249 -1.7913
  142MOL   H13031432   6.750   5.431   7.060 -1.2744 -0.7251  2.0854
  142MOL   H13131433   6.819   5.286   7.373 -0.3038 -1.7629  0.2362
  142MOL   H13231434   6.700   5.218   7.267  0.6827 -0.5071 -0.5054
  142MOL   H13331435   6.719   5.391   7.283  0.9239 -0.1082  1.8448
  142MOL   C13431436   6.923   5.396   6.935 -0.5393 -0.6016 -0.5121
  142MOL   C13531437   6.835   5.316   6.834 -0.3541  0.5971  0.2124
  142MOL   C13631438   6.733   5.403   6.755  0.0092 -0.3578  1.2797
  142MOL   O13731439   6.729   5.524   6.761  0.2457 -0.3427  0.6819
  142MOL   C13831440   6.635   5.318   6.664 -0.6404  0.5479  0.4784
  142MOL   H13931441   7.021   5.352   6.955 -1.3094 -1.8523  0.5838
  142MOL   H14031442   6.952   5.490   6.887 -2.7293  1.7998  2.6150
  142MOL   H14131443   6.775   5.240   6.885 -1.1457 -0.0357 -1.6112
  142MOL   H14231444   6.651   5.212   6.686 -1.9471  0.3474  0.5344
  142MOL   H14331445   6.641   5.342   6.558  1.5593 -1.1479  0.1780
  142MOL   H14431446   6.534   5.342   6.698  0.1257 -1.0664  4.2133
  142MOL   C14531447   6.931   5.238   6.736 -0.2195 -0.0482  0.0543
  142MOL   C14631448   6.985   5.100   6.789 -0.3183 -0.0205 -0.1074
  142MOL   C14731449   6.879   4.991   6.818  0.1279  0.3771  0.1506
  142MOL   O14831450   6.786   4.968   6.737  0.4006  0.3637  0.2224
  142MOL   C14931451   6.888   4.919   6.952  0.6139 -0.3827 -0.7581
  142MOL   H15031452   7.013   5.310   6.727 -1.0594  0.7542 -1.2661
  142MOL   H15131453   6.889   5.227   6.636 -0.5902  0.8401  0.1067
  142MOL   H15231454   7.039   5.119   6.882 -2.0617 -1.4116  1.2214
  142MOL   H15331455   6.935   4.821   6.943 -0.1971 -0.9454  0.8881
  142MOL   H15431456   6.929   4.979   7.034 -2.7081  2.4952 -1.0738
  142MOL   H15531457   6.784   4.899   6.976  0.9301 -0.3906  0.6418
  142MOL   C15631458   7.105   5.054   6.699  0.2862  0.4792  0.4696
  142MOL   C15731459   7.203   4.950   6.767  0.7492 -0.3546  0.0286
  142MOL   C15831460   7.284   4.993   6.883  0.4788 -0.0151  0.2087
  142MOL   O15931461   7.256   4.948   6.994  0.6053  0.3454 -0.4212
  142MOL   C16031462   7.405   5.083   6.866  0.1137 -0.7606 -0.5932
  142MOL   H16131463   7.059   5.018   6.607  0.7353 -1.0377  0.8180
  142MOL   H16231464   7.168   5.131   6.655  0.9039 -1.0447 -1.3816
  142MOL   H16331465   7.127   4.890   6.817 -1.9547  1.4061 -1.8424
  142MOL   H16431466   7.379   5.161   6.794  3.1273  1.7757  1.0115
  142MOL   H16531467   7.483   5.017   6.830  3.0043  0.5944  2.9556
  142MOL   H16631468   7.450   5.122   6.957  1.4605  0.2693 -1.6943
  142MOL   C16731469   7.273   4.862   6.665  0.1271  0.6286 -0.2013
  142MOL   C16831470   7.295   4.712   6.715 -0.0906 -0.6484 -0.0617
  142MOL   C16931471   7.424   4.702   6.804  0.0281 -0.1864  1.0027
  142MOL   O17031472   7.529   4.731   6.754 -0.1722 -0.2257  0.4378
  142MOL   C17131473   7.415   4.681   6.956  0.1017 -0.2644 -0.5713
  142MOL   H17231474   7.218   4.865   6.571 -1.6650 -0.4393  0.7849
  142MOL   H17331475   7.371   4.908   6.655 -1.5663  4.5347  0.2686
  142MOL   H17431476   7.204   4.693   6.772 -1.9180  2.6704 -1.7529
  142MOL   H17531477   7.452   4.771   7.006  2.8865  0.4223 -3.6640
  142MOL   H17631478   7.479   4.599   6.989  0.2366 -0.6886 -1.8637
  142MOL   H17731479   7.315   4.662   6.995  0.7029 -0.5003  0.9025
  142MOL   C17831480   7.297   4.616   6.587 -0.2327  0.4815  0.5604
  142MOL   C17931481   7.310   4.467   6.614 -0.0446 -0.3730 -0.1889
  142MOL   C18031482   7.379   4.396   6.493 -0.3357 -0.0008 -0.3113
  142MOL   O18131483   7.319   4.383   6.386  0.2796 -0.0370  0.4250
  142MOL   C18231484   7.519   4.333   6.514 -0.7081 -0.3261  0.6710
  142MOL   H18331485   7.203   4.628   6.534 -0.2367  0.3505  0.5400
  142MOL   H18431486   7.373   4.645   6.515  0.4637  1.3339  1.5983
  142MOL   H18531487   7.381   4.472   6.696  1.1089  1.1884 -1.2476
  142MOL   H18631488   7.517   4.232   6.555 -0.0724 -0.0957  1.2899
  142MOL   H18731489   7.575   4.385   6.592  1.0464  0.4083 -1.0179
  142MOL   H18831490   7.567   4.335   6.416 -2.4366 -0.0988 -0.1872
  142MOL   C18931491   7.178   4.388   6.658 -0.5372 -0.5311  0.0138
  142MOL   C19031492   7.212   4.249   6.712  0.2372  0.7104  0.2009
  142MOL   C19131493   7.274   4.251   6.854  0.6957  0.0623  0.3560
  142MOL   O19231494   7.386   4.203   6.872  0.0195 -0.5849 -0.0628
  142MOL   C19331495   7.188   4.285   6.976  0.2239  0.2449 -0.0908
  142MOL   H19431496   7.123   4.450   6.729 -0.5333 -1.7066  1.0726
  142MOL   H19531497   7.117   4.368   6.570  0.8798 -2.3189 -0.5784
  142MOL   H19631498   7.285   4.208   6.642  0.8714  0.2302  1.1312
  142MOL   H19731499   7.118   4.202   6.967  0.0340  0.2035  1.7085
  142MOL   H19831500   7.241   4.277   7.070 -0.2291  1.0072  0.2339
  142MOL   H19931501   7.119   4.370   6.972  1.8191  1.6143  0.5635
  142MOL   C20031502   7.097   4.151   6.687  0.3395 -0.0777 -0.0099
  142MOL   C20131503   7.109   4.005   6.731 -0.4202 -0.3713 -0.4371
  142MOL   C20231504   7.194   3.917   6.642  0.3310 -0.1741  0.4081
  142MOL   O20331505   7.158   3.799   6.631 -0.0300  0.3041  0.4333
  142MOL   C20431506   7.328   3.969   6.588  0.6140 -0.3319 -0.8376
  142MOL   H20531507   7.007   4.187   6.736 -1.2408 -2.0677 -1.3814
  142MOL   H20631508   7.075   4.146   6.580  2.2932  1.9870 -0.5663
  142MOL   H20731509   7.148   4.016   6.832 -0.5425  3.3620 -0.6969
  142MOL   H20831510   7.378   4.038   6.656 -1.7929  1.4342 -0.7944
  142MOL   H20931511   7.396   3.885   6.571  0.5657 -1.1421  2.6586
  142MOL   H21031512   7.308   4.018   6.493  1.1492 -0.9806 -1.2958
  142MOL   C21131513   6.973   3.946   6.748 -0.6371 -0.3304 -0.1898
  142MOL   C21231514   6.889   3.922   6.619 -0.0512 -0.1605  0.4145
  142MOL   C21331515   6.753   3.870   6.653 -0.4582 -0.5489  0.4328
  142MOL   O21431516   6.693   3.918   6.750 -0.1810  0.0004 -0.0022
  142MOL   C21531517   6.700   3.756   6.573 -0.0425  0.0333  0.2079
  142MOL   H21631518   6.990   3.858   6.809 -0.5510  0.9990  1.7600
  142MOL   H21731519   6.921   4.025   6.804  4.1924  2.3752  0.7797
  142MOL   H21831520   6.939   3.857   6.548 -0.0770  0.1339  0.1195
  142MOL   H21931521   6.742   3.661   6.606 -0.1494  0.0789  0.4674
  142MOL   H22031522   6.591   3.756   6.576 -0.0158 -1.7336  2.0784
  142MOL   H22131523   6.724   3.782   6.470  0.3203 -0.0697  0.2655
  142MOL   H22231524   6.875   4.016   6.565  0.1144  0.9476  2.2751
  143MOL     C131525   4.735   6.163   6.937 -0.0802 -0.1318 -0.0274
  143MOL     C231526   4.604   6.217   7.003 -0.3973 -0.2885  0.0243
  143MOL     C331527   4.532   6.109   7.085  0.3916  0.1405 -0.1529
  143MOL     O431528   4.484   6.125   7.199 -0.8500  0.1991  0.0329
  143MOL     C531529   4.517   5.969   7.027 -0.3217 -0.3563  0.0559
  143MOL     H631530   4.758   6.229   6.853  0.8723 -0.8693 -0.3677
  143MOL     H731531   4.731   6.063   6.892 -0.6666  0.3649 -1.1080
  143MOL     H831532   4.535   6.240   6.922  1.4476  2.4081 -0.8749
  143MOL     H931533   4.583   5.905   7.085  0.8782  0.5668 -0.2540
  143MOL    H1031534   4.417   5.935   7.053  0.4203 -2.2497  0.4780
  143MOL    H1131535   4.541   5.953   6.922 -1.7585  1.5544 -0.6096
  143MOL    H1231536   4.825   6.167   6.999  0.5681 -1.1818 -0.8707
  143MOL    C1331537   4.643   6.352   7.075 -1.0753 -0.4830 -0.5542
  143MOL    C1431538   4.520   6.424   7.141 -0.7114  0.2564 -0.5221
  143MOL    C1531539   4.443   6.490   7.030 -0.4302  0.4728  1.0760
  143MOL    O1631540   4.488   6.587   6.968 -0.7295 -0.2473 -0.0121
  143MOL    C1731541   4.306   6.432   6.986 -0.6236 -0.9212  0.2380
  143MOL    H1831542   4.719   6.337   7.151 -1.5205 -3.0337 -0.5621
  143MOL    H1931543   4.679   6.417   6.995 -1.6617  0.7199  0.1384
  143MOL    H2031544   4.450   6.360   7.196 -0.3513  0.2203 -0.0995
  143MOL    H2131545   4.298   6.421   6.877  2.2694  2.4364 -0.3829
  143MOL    H2231546   4.293   6.335   7.035  4.0244 -1.4091  0.7405
  143MOL    H2331547   4.224   6.496   7.019 -1.0701 -1.6130  0.5009
  143MOL    C2431548   4.578   6.537   7.241 -0.4643  0.1536 -0.5701
  143MOL    C2531549   4.467   6.640   7.290  0.4603 -0.4579 -0.0904
  143MOL    C2631550   4.367   6.565   7.377  0.0790  0.0496  0.2757
  143MOL    O2731551   4.400   6.524   7.488 -0.3018 -0.6097 -0.0182
  143MOL    C2831552   4.222   6.535   7.334  0.4895 -0.3962  0.1247
  143MOL    H2931553   4.629   6.488   7.323 -1.5053 -1.0423 -0.6219
  143MOL    H3031554   4.657   6.592   7.190  1.2039 -2.3075 -0.6650
  143MOL    H3131555   4.425   6.666   7.193  1.8322  0.4605 -0.4573
  143MOL    H3231556   4.182   6.613   7.270  0.1011 -0.6244  0.0851
  143MOL    H3331557   4.205   6.441   7.282 -1.4292  0.0499 -0.1132
  143MOL    H3431558   4.154   6.537   7.420  1.2910  0.5960  0.7369
  143MOL    C3531559   4.535   6.759   7.364 -0.6760  0.0042 -0.0223
  143MOL    C3631560   4.455   6.896   7.355  0.1729  0.7673  0.1733
  143MOL    C3731561   4.451   6.942   7.208 -0.1700  0.1837 -0.9095
  143MOL    O3831562   4.343   6.953   7.146 -0.0071  0.1524 -0.0449
  143MOL    C3931563   4.580   6.945   7.128  0.3402 -0.0590 -0.6796
  143MOL    H4031564   4.639   6.769   7.334 -0.8322  1.0934 -0.2245
  143MOL    H4131565   4.544   6.741   7.471  1.1590  0.0476 -0.1585
  143MOL    H4231566   4.516   6.962   7.417  1.8284  0.0295 -0.6144
  143MOL    H4331567   4.657   6.950   7.205 -1.7009  1.7499  1.3318
  143MOL    H4431568   4.592   7.039   7.073 -0.9257  0.8664  0.5613
  143MOL    H4531569   4.585   6.871   7.048 -1.6053  2.7107 -3.5273
  143MOL    C4631570   4.317   6.909   7.423 -0.8071 -0.5025  0.5166
  143MOL    C4731571   4.273   7.056   7.442  0.3907  0.4272  0.2281
  143MOL    C4831572   4.116   7.059   7.451  0.2457 -0.3867 -0.4664
  143MOL    O4931573   4.059   6.988   7.535 -0.1361  0.3175 -1.1631
  143MOL    C5031574   4.036   7.138   7.346  0.7241 -0.0406  0.8957
  143MOL    H5131575   4.321   6.856   7.518  3.0473 -0.8973  0.2311
  143MOL    H5231576   4.249   6.855   7.357  0.0499 -0.7616 -0.1634
  143MOL    H5331577   4.300   7.111   7.352  1.3071 -0.5760 -0.1063
  143MOL    H5431578   4.007   7.073   7.264 -1.2058  0.5500  1.0703
  143MOL    H5531579   3.949   7.181   7.398  1.7656  2.0670  0.9377
  143MOL    H5631580   4.085   7.226   7.305 -0.2428  1.2545  2.4277
  143MOL    C5731581   4.340   7.123   7.571  0.3897 -0.3377  0.1681
  143MOL    C5831582   4.307   7.273   7.607 -0.1308 -0.3726  0.3982
  143MOL    C5931583   4.406   7.310   7.728 -0.0109  0.4922  0.4539
  143MOL    O6031584   4.500   7.384   7.702  0.1288  0.3126 -0.3494
  143MOL    C6131585   4.388   7.254   0.008 -0.6609  0.3019  0.1523
  143MOL    H6231586   4.448   7.119   7.562  0.2624 -1.1150 -1.3274
  143MOL    H6331587   4.320   7.060   7.658  0.4900 -0.4474  0.1131
  143MOL    H6431588   4.207   7.274   7.650 -0.4954  1.1161 -0.4615
  143MOL    H6531589   4.486   7.241   0.053  0.2421  1.8520 -1.2867
  143MOL    H6631590   4.332   7.327   0.068 -2.3680  0.0347 -1.0691
  143MOL    H6731591   4.352   7.151   0.006 -1.1396  0.4511  0.8942
  143MOL    C6831592   4.317   7.363   7.482  0.1925  0.0728 -0.5558
  143MOL    C6931593   4.267   7.511   7.500 -0.2019 -0.5779 -0.6959
  143MOL    C7031594   4.124   7.525   7.549 -0.2221  0.1747  0.1994
  143MOL    O7131595   4.030   7.490   7.476 -0.5057 -0.1332  0.6893
  143MOL    C7231596   4.106   7.553   7.698 -0.0700  0.2362  0.4735
  143MOL    H7331597   4.413   7.355   7.431  0.6066  0.9892  0.0815
  143MOL    H7431598   4.255   7.323   7.401 -0.0466 -0.0149 -0.3306
  143MOL    H7531599   4.328   7.555   7.578  1.6184 -1.5153 -1.5650
  143MOL    H7631600   4.023   7.502   7.749 -0.7905  1.7333  0.8153
  143MOL    H7731601   4.195   7.520   7.751 -0.2051  1.5990  1.5604
  143MOL    H7831602   4.088   7.660   7.709  2.6148  0.8662 -0.9683
  143MOL    C7931603   4.304   7.605   7.380  0.6354 -0.5497 -0.5174
  143MOL    C8031604   4.342   7.749   7.419 -1.0105  0.4450 -0.0860
  143MOL    C8131605   4.280   0.003   7.328  0.6494 -0.1793  0.7100
  143MOL    O8231606   4.248   7.838   7.203 -0.1379 -0.2077  0.1333
  143MOL    C8331607   4.247   0.130   7.401 -0.0572  0.1745 -0.6446
  143MOL    H8431608   4.222   7.621   7.310 -0.0492 -0.5334  0.2783
  143MOL    H8531609   4.388   7.562   7.325  2.3935  0.6800  1.1301
  143MOL    H8631610   4.300   7.780   7.515 -0.2139 -1.8105  1.0403
  143MOL    H8731611   4.215   0.208   7.332 -0.4048  2.4007  1.9410
  143MOL    H8831612   4.334   0.183   7.441  1.1203 -1.4900 -0.9061
  143MOL    H8931613   4.172   0.128   7.480  1.4416  2.0095  0.8960
  143MOL    C9031614   4.490   7.776   7.441 -0.4228 -0.3766  0.0937
  143MOL    C9131615   4.542   7.743   7.581  0.5109  0.2633 -0.1938
  143MOL    C9231616   4.695   7.722   7.591  0.7963 -0.4436 -0.0231
  143MOL    O9331617   4.766   7.815   7.629  0.1429  0.5800 -0.7606
  143MOL    C9431618   4.764   7.602   7.530  0.4912 -0.1312  0.1471
  143MOL    H9531619   4.557   7.731   7.368  1.2698  1.4529  0.4571
  143MOL    H9631620   4.505   0.025   7.424  0.1520 -0.4054  0.4222
  143MOL    H9731621   4.502   7.649   7.618  0.7077  0.6632  1.0840
  143MOL    H9831622   4.794   7.622   7.427  1.4991  0.3805  0.5257
  143MOL    H9931623   4.848   7.556   7.583 -0.8546 -1.2236  1.3829
  143MOL   H10031624   4.697   7.517   7.514 -1.1066  0.9627  0.9673
  143MOL   C10131625   4.493   7.845   7.693  0.2156 -0.1454 -0.8050
  143MOL   C10231626   4.531   7.824   7.844 -0.3668 -0.0405 -0.1292
  143MOL   C10331627   4.471   7.688   0.036  0.4569  0.4616 -0.1672
  143MOL   O10431628   4.372   7.640   7.839 -0.1264  0.1827  0.5824
  143MOL   C10531629   4.541   7.613   0.145  0.9911 -0.2053  0.4438
  143MOL   H10631630   4.521   0.087   7.658  0.2443  0.1332 -0.0014
  143MOL   H10731631   4.384   7.848   7.691  0.1475 -0.6573  1.0418
  143MOL   H10831632   4.640   7.819   7.849 -0.2588  1.2538 -0.9545
  143MOL   H10931633   4.610   7.666   0.211 -0.9770  1.5902  1.1089
  143MOL   H11031634   4.463   7.567   0.206  0.9470 -0.8150 -0.0736
  143MOL   H11131635   4.597   7.527   0.107 -0.4710 -0.7900 -0.4189
  143MOL   C11231636   4.495   0.081   0.079 -0.1910 -0.3453  0.3997
  143MOL   C11331637   4.345   0.122   0.095 -0.6449  0.0694  0.9913
  143MOL   C11431638   4.299   0.247   0.016  0.1154  0.2666 -0.7752
  143MOL   O11531639   4.220   0.231   7.779 -0.4966  0.5396 -0.4537
  143MOL   C11631640   4.354   0.382   0.058  0.5104 -0.9697  0.6661
  143MOL   H11731641   4.567   0.161   0.060  0.3082 -0.1569  2.8508
  143MOL   H11831642   4.523   0.040   0.176  0.4952 -1.8374 -0.4121
  143MOL   H11931643   4.284   0.045   0.048 -0.5273  0.6500 -0.1089
  143MOL   H12031644   4.432   0.371   0.134 -0.9197 -0.5676  2.2253
  143MOL   H12131645   4.409   0.426   7.832  0.3052 -0.7695  0.6345
  143MOL   H12231646   4.282   0.455   0.094  1.6859 -0.4571  2.0432
  143MOL   C12331647   4.311   0.134   0.242 -0.2997  0.5206 -0.5170
  143MOL   C12431648   4.160   0.119   0.272 -0.3471  0.3609  0.1526
  143MOL   C12531649   4.131   0.161   0.417 -0.6451 -0.4763 -0.0105
  143MOL   O12631650   4.100   0.079   0.500 -0.8492 -0.3579  0.0634
  143MOL   C12731651   4.134   0.306   0.449 -0.5962  0.1489  0.0994
  143MOL   H12831652   4.358   0.219   0.290 -1.5205  0.8272  0.1817
  143MOL   H12931653   4.365   0.056   0.296 -1.9300 -0.5383 -0.3708
  143MOL   H13031654   4.114   0.190   0.203 -0.1858 -0.9849 -1.3699
  143MOL   H13131655   4.060   0.338   0.522 -0.9577  0.7975 -0.5484
  143MOL   H13231656   4.124   0.369   0.361 -0.3896 -1.8862 -1.4208
  143MOL   H13331657   4.235   0.317   0.489  0.2753  1.7682 -2.3774
  143MOL   C13431658   4.088   7.839   0.240 -0.7436  0.0341 -0.1194
  143MOL   C13531659   3.947   7.856   0.176  0.7215  0.4265  0.7733
  143MOL   C13631660   3.842   0.069   0.264  0.0256  0.0074 -0.5030
  143MOL   O13731661   3.828   0.192   0.268 -0.2433  0.4298  0.2926
  143MOL   C13831662   3.770   7.848   0.372 -0.8746 -0.2359 -0.4743
  143MOL   H13931663   4.080   7.770   0.324 -1.4830 -0.3136 -0.4649
  143MOL   H14031664   4.146   7.780   0.169  0.3607  2.6498 -1.4430
  143MOL   H14131665   3.906   7.755   0.181  0.8053  0.2148 -2.1948
  143MOL   H14231666   3.693   7.790   0.322  0.1438 -1.6226 -0.4640
  143MOL   H14331667   3.714   0.050   0.443  0.9301  0.0135  0.7906
  143MOL   H14431668   3.835   7.773   0.417  0.9079  1.7529  0.3509
  143MOL   C14531669   3.947   0.048   0.033  0.4308  0.1748  0.2417
  143MOL   C14631670   3.822   0.020   7.804  0.0547  0.3056  0.7484
  143MOL   C14731671   3.811   0.136   7.704 -0.7539  1.2692  0.2355
  143MOL   O14831672   3.820   0.115   7.586 -0.1713  0.1190 -0.7017
  143MOL   C14931673   3.802   0.277   7.755 -0.1870  0.6001  0.0848
  143MOL   H15031674   4.031   0.014   7.829 -0.2456 -0.6779 -0.2233
  143MOL   H15131675   3.988   0.148   0.040 -1.9171  0.9763  3.6335
  143MOL   H15231676   3.739   0.044   0.013  1.5311  3.2823  1.6413
  143MOL   H15331677   3.893   0.336   7.743  1.8406 -2.0520  1.8337
  143MOL   H15431678   3.719   0.327   7.706 -0.5647 -0.0208  0.0851
  143MOL   H15531679   3.780   0.271   0.004 -2.0945  1.7724 -0.2280
  143MOL   C15631680   3.817   7.739   7.749 -0.2387 -0.0971  0.2957
  143MOL   C15731681   3.670   7.691   7.734  0.0927 -0.4261 -0.1064
  143MOL   C15831682   3.606   7.648   0.014 -0.1184 -0.3459  0.1657
  143MOL   O15931683   3.680   7.650   0.113  0.8121  0.5412 -0.3491
  143MOL   C16031684   3.458   7.608   0.022 -0.4195  0.3272  0.0392
  143MOL   H16131685   3.866   7.738   7.651 -0.6144 -0.8671  0.1111
  143MOL   H16231686   3.876   7.672   7.812 -2.1803 -1.1344  1.0380
  143MOL   H16331687   3.621   7.780   7.694 -0.3435 -0.0024  1.3334
  143MOL   H16431688   3.402   7.686   0.073 -1.0293 -0.7736  1.0830
  143MOL   H16531689   3.447   7.518   0.084  0.4454  0.1377 -0.0747
  143MOL   H16631690   3.419   7.590   7.780  0.7967 -0.8484 -0.2444
  143MOL   C16731691   3.660   7.583   7.618  0.4520 -0.4194  0.6698
  143MOL   C16831692   3.673   7.644   7.476 -0.3836 -0.1721  0.0559
  143MOL   C16931693   3.539   7.714   7.454 -0.2897 -0.5456 -0.5099
  143MOL   O17031694   3.428   7.662   7.468  0.3443  0.5429  0.0454
  143MOL   C17131695   3.541   0.000   7.415  0.8571 -0.1944 -0.3595
  143MOL   H17231696   3.753   7.527   7.629 -0.3356 -1.8599  0.1256
  143MOL   H17331697   3.577   7.514   7.618  1.7768 -2.0560  2.0456
  143MOL   H17431698   3.751   7.720   7.476  0.8917 -1.4541 -1.2648
  143MOL   H17531699   3.439   0.037   7.419  0.5293 -1.1126 -0.1822
  143MOL   H17631700   3.564   0.014   7.310 -0.1342  0.9473 -0.4393
  143MOL   H17731701   3.606   0.062   7.478  0.8777 -0.0293 -0.5441
  143MOL   C17831702   3.687   7.537   7.365  0.4092 -0.3830  0.4950
  143MOL   C17931703   3.708   7.571   7.215  0.3950  0.0652  0.2798
  143MOL   C18031704   3.814   7.682   7.194 -0.2235 -0.2555 -0.3023
  143MOL   O18131705   3.781   7.797   7.197  0.0080 -0.5654 -0.2669
  143MOL   C18231706   3.955   7.640   7.169 -0.2523 -0.6893 -0.3530
  143MOL   H18331707   3.775   7.477   7.384  0.6616 -0.3634 -0.6165
  143MOL   H18431708   3.595   7.479   7.372 -1.3088  2.0707 -0.6837
  143MOL   H18531709   3.754   7.485   7.166 -0.3453  0.2222 -0.7033
  143MOL   H18631710   4.007   7.730   7.135 -2.9487 -0.1073 -3.2471
  143MOL   H18731711   3.950   7.573   7.083 -0.4508 -0.9726 -0.1192
  143MOL   H18831712   4.001   7.594   7.256 -0.3108  0.6870  0.4311
  143MOL   C18931713   3.574   7.602   7.140  0.0051 -0.5297  0.0143
  143MOL   C19031714   3.572   7.634   6.984 -0.0243  0.2183 -0.5651
  143MOL   C19131715   3.610   7.507   6.904 -0.1797  0.6234 -0.1887
  143MOL   O19231716   3.671   7.413   6.959 -0.4324 -0.1518 -0.4514
  143MOL   C19331717   3.584   7.502   6.759  0.5905 -0.3032  0.0420
  143MOL   H19431718   3.497   7.527   7.162 -0.7894  0.7535  1.6841
  143MOL   H19531719   3.528   7.692   7.180 -0.6108 -0.3483 -1.0797
  143MOL   H19631720   3.645   7.713   6.966  0.3761  0.0500  0.3251
  143MOL   H19731721   3.671   7.527   6.698  0.1398  0.0816 -0.4462
  143MOL   H19831722   3.545   7.409   6.717  1.0984 -1.0528  1.2138
  143MOL   H19931723   3.517   7.578   6.719 -0.0999 -0.3250  1.1295
  143MOL   C20031724   3.432   7.691   6.944  0.5680 -0.3612  1.2534
  143MOL   C20131725   3.425   7.801   6.830  1.1209  0.0439  0.1006
  143MOL   C20231726   3.462   0.077   6.887 -0.3893  0.4792 -0.3372
  143MOL   O20331727   3.389   0.138   6.962 -0.3211  0.4728  0.8005
  143MOL   C20431728   3.589   0.137   6.838  0.3824 -0.1137 -0.3168
  143MOL   H20531729   3.374   7.613   6.895 -1.5523  1.7272  0.3625
  143MOL   H20631730   3.365   7.730   7.021  0.8909  1.7812  0.4886
  143MOL   H20731731   3.498   7.773   6.754  0.4431 -1.4648 -0.0037
  143MOL   H20831732   3.665   0.116   6.914 -0.2577 -0.2231  0.3047
  143MOL   H20931733   3.634   0.097   6.748 -2.7961 -2.1741 -1.0807
  143MOL   H21031734   3.590   0.245   6.847  1.4493 -0.2551  1.7436
  143MOL   C21131735   3.286   7.814   6.753 -0.1781 -0.1685  0.0721
  143MOL   C21231736   3.295   0.037   6.614 -0.0823  0.0425 -0.1016
  143MOL   C21331737   3.316   7.798   6.499 -0.1626  1.1647  0.4997
  143MOL   O21431738   3.392   7.698   6.508 -0.0871  0.1982 -0.0671
  143MOL   C21531739   3.278   7.848   6.362  0.3479 -0.3618  0.2396
  143MOL   H21631740   3.235   7.719   6.736 -0.4695  0.6028 -4.1476
  143MOL   H21731741   3.208   7.851   6.820 -0.2621  1.3550 -0.8212
  143MOL   H21831742   3.370   0.116   6.611 -0.0708  0.1112  1.5267
  143MOL   H21931743   3.303   0.095   6.347  0.6096 -0.6313 -1.3616
  143MOL   H22031744   3.316   7.791   6.277 -0.8165 -0.0443 -0.5119
  143MOL   H22131745   3.170   0.000   6.356  0.6808  3.1767 -1.0499
  143MOL   H22231746   3.199   0.080   6.585 -0.4814 -0.9207 -0.2257
  144MOL     C131747   0.319   0.602   1.021  0.4764  0.6753  0.0921
  144MOL     C231748   0.277   0.751   1.048 -0.0790  0.3266  0.2602
  144MOL     C331749   0.280   0.833   0.921  0.0308 -0.6313 -0.2800
  144MOL     O431750   0.282   0.792   0.806 -0.1465 -0.4297 -0.0945
  144MOL     C531751   0.266   0.991   0.928  0.4413  0.1380  0.3102
  144MOL     H631752   0.234   0.534   1.021  1.3123 -0.3819 -0.6448
  144MOL     H731753   0.386   0.561   1.096  0.7930 -1.7926 -1.5118
  144MOL     H831754   0.350   0.792   1.118 -0.1979  1.3808 -0.2112
  144MOL     H931755   0.244   1.039   0.833  1.3635  2.7824  1.3874
  144MOL    H1031756   0.189   1.029   0.995 -2.2224 -1.4036 -1.7640
  144MOL    H1131757   0.359   1.040   0.956  1.0993 -1.8331  1.7252
  144MOL    H1231758   0.378   0.579   0.933  0.0954 -1.1615  0.3155
  144MOL    C1331759   0.138   0.768   1.114  0.8370 -0.3295 -1.1934
  144MOL    C1431760   0.137   0.758   1.269 -0.5100  0.0603 -0.0801
  144MOL    C1531761   0.066   0.631   1.313 -0.3983 -0.3642 -0.4260
  144MOL    O1631762   7.800   0.631   1.320  0.4386 -0.1072  0.4982
  144MOL    C1731763   0.147   0.500   1.337  0.5209  0.0356  0.5403
  144MOL    H1831764   0.097   0.866   1.088 -2.2917 -1.7994 -2.0094
  144MOL    H1931765   0.071   0.699   1.063 -1.7295 -0.1233  1.7449
  144MOL    H2031766   0.244   0.760   1.293 -0.2064 -2.3631 -1.0974
  144MOL    H2131767   0.172   0.503   1.443  1.7706  3.0933  0.2095
  144MOL    H2231768   0.080   0.420   1.306  0.1497 -0.3598  2.3064
  144MOL    H2331769   0.248   0.502   1.296  1.2089  2.0119  2.2276
  144MOL    C2431770   0.070   0.886   1.338 -0.2294  0.0946 -0.2966
  144MOL    C2531771   0.082   0.901   1.492 -0.2448  0.0670  0.4150
  144MOL    C2631772   0.227   0.954   1.535  0.9247 -0.1358 -0.5710
  144MOL    O2731773   0.235   1.052   1.612  0.1821  0.1417 -0.4016
  144MOL    C2831774   0.345   0.884   1.479 -0.6600  0.2020 -0.5220
  144MOL    H2931775   0.124   0.974   1.302 -0.5240 -0.5593 -2.4146
  144MOL    H3031776   7.821   0.896   1.319 -0.2233  2.5203  0.8402
  144MOL    H3131777   0.064   0.802   1.533  2.2111  0.1721  1.8523
  144MOL    H3231778   0.434   0.929   1.523 -1.5140  0.3382  1.1274
  144MOL    H3331779   0.345   0.776   1.493  0.0031  0.1665 -0.8009
  144MOL    H3431780   0.341   0.917   1.375  1.7031  1.0004 -0.3832
  144MOL    C3531781   7.828   0.989   1.550 -0.2399 -0.7532 -0.7635
  144MOL    C3631782   7.784   0.949   1.697  0.1073 -0.5643 -0.0317
  144MOL    C3731783   7.823   1.055   1.797 -0.7260  0.1820  0.9154
  144MOL    O3831784   7.799   1.172   1.772  0.2152  0.1544  0.2264
  144MOL    C3931785   0.028   1.013   1.931  0.0531  0.3214  0.7063
  144MOL    H4031786   7.744   0.997   1.481 -1.9445  0.3108  1.3735
  144MOL    H4131787   7.849   1.096   1.549 -1.0315 -0.5971 -1.4567
  144MOL    H4231788   7.839   0.858   1.721  0.6156 -0.1741  0.2865
  144MOL    H4331789   0.120   1.071   1.941  0.1232  0.7773 -1.9810
  144MOL    H4431790   0.058   0.908   1.927 -0.9923 -0.0040  1.4022
  144MOL    H4531791   7.811   1.037   2.006 -0.5362 -0.0816  0.2526
  144MOL    C4631792   7.628   0.930   1.692  0.0406 -0.7773 -0.0720
  144MOL    C4731793   7.567   0.810   1.608 -0.6680 -0.0146 -0.3659
  144MOL    C4831794   7.593   0.674   1.666  0.4761 -0.1173 -0.6262
  144MOL    O4931795   7.522   0.628   1.759 -0.3134 -0.3845  0.3519
  144MOL    C5031796   7.710   0.600   1.608 -0.2678 -0.2846 -0.2548
  144MOL    H5131797   7.576   1.020   1.659 -0.5096 -1.4714 -1.1399
  144MOL    H5231798   7.580   0.927   1.789 -1.6660 -0.6152 -0.8970
  144MOL    H5331799   7.613   0.810   1.509 -2.1344  1.0814 -1.0617
  144MOL    H5431800   7.715   0.505   1.661  1.2382  0.0788  0.2865
  144MOL    H5531801   7.689   0.580   1.503  0.4622  1.1329 -0.6750
  144MOL    H5631802   7.801   0.660   1.611 -0.6623  0.3620 -1.0354
  144MOL    C5731803   7.411   0.833   1.599  0.1544 -0.0724  0.9083
  144MOL    C5831804   7.357   0.826   1.449 -0.0698 -0.2019  0.1778
  144MOL    C5931805   7.439   0.926   1.364 -0.8038  0.1096 -0.3442
  144MOL    O6031806   7.545   0.900   1.308 -0.0597  0.2416  0.2021
  144MOL    C6131807   7.402   1.076   1.374  0.4906 -0.5128  0.4073
  144MOL    H6231808   7.383   0.931   1.640 -3.4983 -0.6129 -0.0863
  144MOL    H6331809   7.348   0.766   1.658  1.5466  0.4727  3.0419
  144MOL    H6431810   7.255   0.861   1.464  0.1805 -0.2527  2.1602
  144MOL    H6531811   7.305   1.084   1.421 -0.6866 -1.1121 -1.8292
  144MOL    H6631812   7.480   1.127   1.431  3.5109 -0.1303 -3.7912
  144MOL    H6731813   7.397   1.123   1.276  0.9000 -1.5089 -0.0991
  144MOL    C6831814   7.374   0.682   1.397  0.3679 -0.5564  0.1052
  144MOL    C6931815   7.315   0.657   1.254 -0.1654  0.3793  0.2458
  144MOL    C7031816   7.157   0.629   1.247 -0.6472 -0.7263 -0.1261
  144MOL    O7131817   7.094   0.580   1.339  0.1000  0.4187  0.5722
  144MOL    C7231818   7.086   0.662   1.114 -0.1386 -0.1696  0.3362
  144MOL    H7331819   7.477   0.652   1.413  0.7567  1.1877  0.8705
  144MOL    H7431820   7.327   0.616   1.471 -0.1298 -0.5439 -0.1945
  144MOL    H7531821   7.343   0.737   1.185  0.4364 -0.2145 -0.2047
  144MOL    H7631822   7.070   0.567   1.065 -2.5147 -0.1014  0.9065
  144MOL    H7731823   6.990   0.713   1.127  0.3168  0.5296  1.0282
  144MOL    H7831824   7.150   0.729   1.057 -1.3470  0.2299 -0.5578
  144MOL    C7931825   7.391   0.537   1.196 -0.0984 -0.2129 -0.1322
  144MOL    C8031826   7.533   0.568   1.135  0.1804 -0.2266 -0.4228
  144MOL    C8131827   7.528   0.659   1.013 -0.3915 -0.3524  0.1835
  144MOL    O8231828   7.424   0.686   0.950  0.1219  0.4272  0.0611
  144MOL    C8331829   7.666   0.718   0.969  0.7011 -0.4282  1.0356
  144MOL    H8431830   7.333   0.491   1.117  2.3211  0.8843 -2.6198
  144MOL    H8531831   7.414   0.465   1.274 -0.0348 -0.2345 -0.1716
  144MOL    H8631832   7.593   0.638   1.194 -1.1539  1.7686 -1.3688
  144MOL    H8731833   7.662   0.778   0.878 -2.6307  1.5056  2.3767
  144MOL    H8831834   7.736   0.635   0.957 -0.1379 -0.7107 -2.4477
  144MOL    H8931835   7.705   0.770   1.056 -0.3620 -0.0770  1.3169
  144MOL    C9031836   7.617   0.442   1.112 -0.1432  0.1170 -0.0001
  144MOL    C9131837   7.571   0.331   1.008  0.2313  0.1590  0.4186
  144MOL    C9231838   7.696   0.266   0.944 -0.2235  0.0188  0.3456
  144MOL    O9331839   7.720   0.143   0.940  0.0972  0.6161  0.1683
  144MOL    C9431840   7.781   0.352   0.861  0.4537 -0.2128 -0.1189
  144MOL    H9531841   7.724   0.461   1.100 -0.3071  0.5792 -0.7497
  144MOL    H9631842   7.625   0.392   1.209 -0.6032 -1.2557 -0.6555
  144MOL    H9731843   7.515   0.388   0.934  0.6776  0.2950  0.1787
  144MOL    H9831844   7.717   0.435   0.831 -2.1207 -0.7976  3.4434
  144MOL    H9931845   0.016   0.390   0.905  0.9670  0.1053 -1.4392
  144MOL   H10031846   7.811   0.313   0.764  0.9550  1.3623 -0.6279
  144MOL   C10131847   7.473   0.225   1.060 -0.5719 -0.3332 -0.0396
  144MOL   C10231848   7.403   0.152   0.945  0.2592 -0.3350  0.1138
  144MOL   C10331849   7.268   0.228   0.906 -0.4774  0.7569 -0.5404
  144MOL   O10431850   7.155   0.196   0.951 -0.6071  0.3118 -0.4612
  144MOL   C10531851   7.281   0.339   0.799 -0.6464 -0.9233  0.4999
  144MOL   H10631852   7.535   0.149   1.109  0.8740  0.1094 -1.1512
  144MOL   H10731853   7.404   0.270   1.131  0.5211  0.6586  0.4224
  144MOL   H10831854   7.466   0.154   0.855  0.0488 -1.3869 -0.0631
  144MOL   H10931855   7.251   0.433   0.845  2.0594  0.2359  0.0148
  144MOL   H11031856   7.379   0.341   0.751 -0.9623 -2.6352 -0.2671
  144MOL   H11131857   7.201   0.312   0.730 -0.6644  0.7748 -0.1671
  144MOL   C11231858   7.377   7.852   0.976  0.1446 -0.0651 -0.0455
  144MOL   C11331859   7.371   7.756   0.863 -0.1927  0.1314  0.0443
  144MOL   C11431860   7.491   7.743   0.771  0.0149  0.2611 -0.5889
  144MOL   O11531861   7.499   7.791   0.656 -0.1234 -0.4561 -0.3517
  144MOL   C11631862   7.619   7.679   0.833  0.3883 -0.0742 -0.4373
  144MOL   H11731863   7.291   7.836   1.041  1.5793 -0.4127  1.8028
  144MOL   H11831864   7.463   7.816   1.032  1.5961  1.7568 -1.0423
  144MOL   H11931865   7.356   7.663   0.917 -2.0455  0.0280 -0.6121
  144MOL   H12031866   7.605   7.571   0.838  0.8416 -0.0901  0.5575
  144MOL   H12131867   7.709   7.687   0.772  1.3294 -1.8899  0.6576
  144MOL   H12231868   7.637   7.710   0.936 -1.1895  0.9303 -0.4527
  144MOL   C12331869   7.247   7.778   0.779 -0.4893 -0.1203 -0.2856
  144MOL   C12431870   7.185   7.662   0.709  0.6372 -0.0462  0.9549
  144MOL   C12531871   7.125   7.701   0.574 -0.4639  0.0469  0.4424
  144MOL   O12631872   7.009   7.731   0.563 -0.0547 -0.1285 -0.0800
  144MOL   C12731873   7.194   7.669   0.444 -1.0397 -0.0446  0.7430
  144MOL   H12831874   7.263   0.002   0.708 -1.7201  0.6245  0.2690
  144MOL   H12931875   7.164   7.819   0.836 -1.4917  0.0266 -1.8083
  144MOL   H13031876   7.268   7.600   0.672  1.2576  0.7081  1.0707
  144MOL   H13131877   7.231   7.765   0.407  0.0613 -0.3181  1.0984
  144MOL   H13231878   7.133   7.609   0.377  0.4990 -0.8984  0.0757
  144MOL   H13331879   7.280   7.604   0.459 -1.2509 -0.1991  1.2934
  144MOL   C13431880   7.098   7.571   0.805 -0.4678 -0.5539 -0.0477
  144MOL   C13531881   7.126   7.414   0.784 -0.1395 -0.4198  0.6269
  144MOL   C13631882   7.268   7.378   0.825 -0.0899 -0.3440 -0.4174
  144MOL   O13731883   7.308   7.407   0.938  0.4512 -0.2468 -0.0437
  144MOL   C13831884   7.349   7.291   0.733 -0.0083 -0.1631 -0.2116
  144MOL   H13931885   6.991   7.591   0.808 -0.6831 -1.5155 -1.0297
  144MOL   H14031886   7.134   7.584   0.907  1.8745 -2.1184 -0.6072
  144MOL   H14131887   7.118   7.395   0.677  1.1541  3.1058 -0.1677
  144MOL   H14231888   7.340   7.189   0.771  2.3032  0.3599  1.8945
  144MOL   H14331889   7.451   7.320   0.758 -0.6103  1.5407  0.2890
  144MOL   H14431890   7.319   7.316   0.631 -1.8392 -1.4752 -0.0063
  144MOL   C14531891   7.019   7.321   0.839  1.0927 -0.5033 -0.0501
  144MOL   C14631892   6.872   7.332   0.767 -0.3435  0.3630  0.2183
  144MOL   C14731893   6.866   7.265   0.629 -0.6635  0.2888  0.0832
  144MOL   O14831894   6.845   7.146   0.621 -0.0873  0.2977  0.1026
  144MOL   C14931895   6.910   7.350   0.509  0.7525 -0.1735  0.5881
  144MOL   H15031896   7.003   7.347   0.944 -1.2675  0.1293 -0.5178
  144MOL   H15131897   7.047   7.217   0.823 -0.1094 -0.4291 -2.9511
  144MOL   H15231898   6.843   7.436   0.751 -0.5813  0.0692 -1.3386
  144MOL   H15331899   6.855   7.325   0.418 -1.8926 -1.3054  2.4223
  144MOL   H15431900   6.885   7.452   0.537 -1.2277 -0.1918 -1.0214
  144MOL   H15531901   7.017   7.338   0.496  0.5539 -0.6266 -0.7168
  144MOL   C15631902   6.759   7.281   0.866 -0.0794  0.4126 -0.6615
  144MOL   C15731903   6.613   7.299   0.810 -0.5440 -0.2663 -0.0667
  144MOL   C15831904   6.576   7.446   0.779  0.4074 -0.1155 -0.5161
  144MOL   O15931905   6.603   7.532   0.864  0.2091  0.0611  0.2086
  144MOL   C16031906   6.484   7.479   0.653 -0.6885  0.4544  0.1224
  144MOL   H16131907   6.766   7.180   0.906 -0.3534  0.6676  0.0369
  144MOL   H16231908   6.773   7.339   0.957 -0.1368 -0.5675 -0.0282
  144MOL   H16331909   6.614   7.243   0.717 -1.0936 -0.6858  0.1785
  144MOL   H16431910   6.401   7.408   0.655  0.1845 -0.5799 -0.2475
  144MOL   H16531911   6.540   7.462   0.562  1.0735  1.2663  1.0274
  144MOL   H16631912   6.460   7.585   0.651  2.0115  1.2196  3.6227
  144MOL   C16731913   6.512   7.236   0.908 -0.6812 -0.2250 -0.5874
  144MOL   C16831914   6.479   7.089   0.901  0.4716  0.1335 -0.1004
  144MOL   C16931915   6.448   7.036   0.764  0.1442 -0.1346  0.3179
  144MOL   O17031916   6.349   7.068   0.699  0.4496 -0.2966 -0.0008
  144MOL   C17131917   6.540   6.927   0.716  0.1157 -0.1799 -0.8040
  144MOL   H17231918   6.557   7.243   1.007 -2.0112 -0.1038  0.0293
  144MOL   H17331919   6.427   7.305   0.911  1.9433  3.1586 -1.1315
  144MOL   H17431920   6.555   7.030   0.953  1.2517  0.1734 -1.1698
  144MOL   H17531921   6.572   6.858   0.794  0.1595  1.4379  0.6444
  144MOL   H17631922   6.618   6.974   0.657  0.2329 -0.8543 -1.1913
  144MOL   H17731923   6.486   6.865   0.644 -1.3720 -1.6693  1.5429
  144MOL   C17831924   6.369   7.044   1.001  1.0449 -0.1660  0.2699
  144MOL   C17931925   6.386   6.896   1.052  0.8438 -0.3717 -0.1485
  144MOL   C18031926   6.255   6.821   1.071 -0.4862 -0.0017  0.0028
  144MOL   O18131927   6.220   6.781   1.184 -0.1118  0.0534  0.5414
  144MOL   C18231928   6.168   6.812   0.948 -0.4658 -0.6425 -0.4685
  144MOL   H18331929   6.387   7.110   1.086 -0.3058  0.1084  0.3556
  144MOL   H18431930   6.269   7.074   0.967  0.5271  0.3139  2.1577
  144MOL   H18531931   6.434   6.842   0.970  0.8466 -1.2820  0.4580
  144MOL   H18631932   6.242   6.771   0.880  0.6442 -3.5055  2.3197
  144MOL   H18731933   6.140   6.906   0.902  0.7492 -1.4581 -2.9471
  144MOL   H18831934   6.079   6.750   0.948 -0.1807 -1.0732  0.7886
  144MOL   C18931935   6.487   6.899   1.167 -0.2200 -0.3135  0.0741
  144MOL   C19031936   6.557   6.766   1.206  0.2575 -0.4774  0.4811
  144MOL   C19131937   6.616   6.692   1.088 -0.0972  0.2910  0.4143
  144MOL   O19231938   6.671   6.752   1.002  0.4626 -0.0361 -0.2650
  144MOL   C19331939   6.602   6.539   1.090  0.1227 -0.0753 -0.0428
  144MOL   H19431940   6.571   6.967   1.154 -0.4702  0.2035  1.0883
  144MOL   H19531941   6.431   6.945   1.248  0.1881  1.8419 -0.8513
  144MOL   H19631942   6.478   6.702   1.246  0.1379 -0.7191 -0.1442
  144MOL   H19731943   6.496   6.514   1.085  0.3674 -1.3079  0.7283
  144MOL   H19831944   6.676   6.500   1.020 -1.5964  0.3632 -2.1740
  144MOL   H19931945   6.637   6.498   1.184  0.2172 -0.9660 -0.4603
  144MOL   C20031946   6.669   6.769   1.317 -0.2120  0.1771  0.0493
  144MOL   C20131947   6.612   6.783   1.457  0.4650 -0.5086  0.9615
  144MOL   C20231948   6.670   6.918   1.516 -0.0006  0.1323 -0.9384
  144MOL   O20331949   6.775   6.906   1.585 -0.2407  0.2823  0.9968
  144MOL   C20431950   6.590   7.045   1.493 -0.0935 -0.0922  0.5817
  144MOL   H20531951   6.727   6.677   1.316  1.2336  1.0667 -2.3374
  144MOL   H20631952   6.739   6.841   1.275 -1.9522  1.9588  0.1186
  144MOL   H20731953   6.507   6.805   1.439  0.3958 -0.4597  1.4275
  144MOL   H20831954   6.483   7.029   1.475  0.2257 -0.4882 -1.0627
  144MOL   H20931955   6.582   7.109   1.581 -1.1688  0.7068 -0.0815
  144MOL   H21031956   6.628   7.102   1.409 -2.2311  0.6918  0.1193
  144MOL   C21131957   6.630   6.654   1.542  0.4498  0.1501 -0.1140
  144MOL   C21231958   6.556   6.650   1.680 -0.1242  0.8382 -0.1714
  144MOL   C21331959   6.404   6.650   1.658  0.8134 -0.8896 -0.0712
  144MOL   O21431960   6.352   6.642   1.547  0.3199 -0.1192  0.9351
  144MOL   C21531961   6.318   6.678   1.784  0.1928  0.8582 -0.2480
  144MOL   H21631962   6.606   6.568   1.480 -1.3365 -0.1632  0.9646
  144MOL   H21731963   6.737   6.635   1.544  0.4632  0.2459  0.0892
  144MOL   H21831964   6.580   6.737   1.741 -0.1549  1.1152 -0.5515
  144MOL   H21931965   6.329   6.772   1.837  1.3184 -1.2021  3.3528
  144MOL   H22031966   6.213   6.669   1.755  0.0043 -0.6031  0.8157
  144MOL   H22131967   6.349   6.592   1.844 -0.6549  0.3093 -0.5831
  144MOL   H22231968   6.575   6.556   1.731 -3.5883  0.4197  0.4586
  145MOL     C131969   3.281   2.756   1.508 -0.8787 -0.3822 -0.4929
  145MOL     C231970   3.250   2.668   1.380  0.4094 -0.2283  0.4033
  145MOL     C331971   3.374   2.621   1.305  0.1183 -0.2169  0.8108
  145MOL     O431972   3.477   2.589   1.364  0.3980 -0.0171  0.4068
  145MOL     C531973   3.351   2.593   1.161  0.0462  0.7360 -0.5174
  145MOL     H631974   3.210   2.838   1.504 -1.4060 -0.8526 -0.9537
  145MOL     H731975   3.381   2.799   1.514 -0.0883 -2.0164 -1.4275
  145MOL     H831976   3.192   2.734   1.315 -0.1379 -1.7296 -0.6463
  145MOL     H931977   3.395   2.497   1.134  2.2443  2.2837 -2.6624
  145MOL    H1031978   3.246   2.602   1.134 -0.2937 -1.2465  0.1038
  145MOL    H1131979   3.408   2.662   1.098  1.7498 -1.1417 -1.0634
  145MOL    H1231980   3.270   2.693   1.597 -1.5206 -2.0424 -1.7169
  145MOL    C1331981   3.155   2.546   1.405 -0.7608  0.3519 -0.1574
  145MOL    C1431982   3.015   2.578   1.351  0.6019 -0.4340 -0.2047
  145MOL    C1531983   2.943   2.684   1.442 -0.0281 -0.0510 -0.2073
  145MOL    O1631984   2.942   2.664   1.563 -0.3411  0.0046  0.3456
  145MOL    C1731985   2.857   2.781   1.368 -0.0087 -0.7213  0.2699
  145MOL    H1831986   3.188   2.457   1.352  1.4932  1.2637 -0.3499
  145MOL    H1931987   3.152   2.513   1.509 -0.1034  1.3416  0.1920
  145MOL    H2031988   3.019   2.614   1.248  0.0030 -0.9573 -0.4207
  145MOL    H2131989   2.806   2.841   1.443  0.9272 -0.3470  0.6114
  145MOL    H2231990   2.922   2.857   1.325  0.3214 -1.2289 -0.1396
  145MOL    H2331991   2.794   2.733   1.293 -0.0734  1.6879 -1.2525
  145MOL    C2431992   2.928   2.444   1.330 -0.1352  0.0338 -0.6843
  145MOL    C2531993   2.901   2.359   1.458 -0.5351  0.3740  0.6388
  145MOL    C2631994   2.757   2.384   1.509  0.2942  0.8692  0.2559
  145MOL    O2731995   2.662   2.364   1.437 -0.0041  0.0517  0.4265
  145MOL    C2831996   2.739   2.424   1.656 -0.2695  0.5299  0.4233
  145MOL    H2931997   2.835   2.462   1.275  0.4721  0.3589 -1.6177
  145MOL    H3031998   2.971   2.377   1.255 -0.6830 -1.5865  0.4254
  145MOL    H3131999   2.966   2.384   1.541  0.1863 -0.2590  0.2661
  145MOL    H3232000   2.834   2.403   1.706 -0.0865  0.1489 -0.0881
  145MOL    H3332001   2.720   2.532   1.661 -1.7668  0.2551  0.6389
  145MOL    H3432002   2.663   2.365   1.705 -0.3655  0.9710  0.8145
  145MOL    C3532003   2.948   2.215   1.420 -0.4330  0.0790 -0.1841
  145MOL    C3632004   2.901   2.109   1.523 -0.2075  1.0872 -0.0624
  145MOL    C3732005   2.913   1.973   1.457  0.5125  0.7814 -0.5026
  145MOL    O3832006   3.026   1.921   1.439 -0.5702  0.0169  0.0499
  145MOL    C3932007   2.784   1.907   1.395 -0.3648 -0.5507 -0.4347
  145MOL    H4032008   3.057   2.214   1.412 -0.4693  1.7196 -1.0776
  145MOL    H4132009   2.908   2.188   1.323  1.7790  0.0485 -1.1077
  145MOL    H4232010   2.794   2.114   1.544 -0.4818  0.0527 -1.2003
  145MOL    H4332011   2.705   1.887   1.468  0.0837 -0.0590  0.1917
  145MOL    H4432012   2.823   1.817   1.348 -0.8761 -1.4366  0.8278
  145MOL    H4532013   2.732   1.965   1.318  0.6137 -1.3920 -1.7319
  145MOL    C4632014   2.989   2.104   1.651  0.1581 -0.8037  0.1336
  145MOL    C4732015   2.940   2.040   1.789 -0.1565  0.1495  0.0765
  145MOL    C4832016   2.796   2.080   1.826 -0.2758  0.4009 -0.8361
  145MOL    O4932017   2.702   2.053   1.754 -0.2718 -0.2452 -0.6249
  145MOL    C5032018   2.770   2.122   1.972 -0.1828  0.4260 -0.7959
  145MOL    H5132019   3.026   2.203   1.677  0.9743 -0.8202 -0.9394
  145MOL    H5232020   3.089   2.070   1.624  0.5861  2.3957 -2.6003
  145MOL    H5332021   3.007   2.086   1.861  0.1783  0.5923 -0.5162
  145MOL    H5432022   2.793   2.228   1.977 -0.5444  0.3936  2.6181
  145MOL    H5532023   2.668   2.101   2.002  0.9046 -3.0104  0.8336
  145MOL    H5632024   2.830   2.058   2.038 -0.5920  1.6409  0.7862
  145MOL    C5732025   2.957   1.884   1.786  0.1624 -0.3124  0.8939
  145MOL    C5832026   2.958   1.811   1.926  0.4585 -0.1149 -0.5335
  145MOL    C5932027   2.929   1.659   1.920  0.6993  0.3389 -0.0247
  145MOL    O6032028   2.968   1.594   1.822  0.0475 -1.1339  0.1253
  145MOL    C6132029   2.847   1.600   2.038 -0.0461 -0.2992  0.3328
  145MOL    H6232030   3.051   1.862   1.736  1.4045  4.4075  0.9747
  145MOL    H6332031   2.882   1.841   1.720  0.0855  0.1943  0.6474
  145MOL    H6432032   2.881   1.856   1.988  2.0618 -1.7844  2.7803
  145MOL    H6532033   2.911   1.545   2.107 -0.3610 -0.3109  0.6173
  145MOL    H6632034   2.792   1.682   2.084  1.3671 -0.0514  1.6434
  145MOL    H6732035   2.769   1.528   2.016 -2.2652  2.3324 -0.7468
  145MOL    C6832036   3.095   1.830   1.986 -0.2532 -1.0372  0.0325
  145MOL    C6932037   3.081   1.826   2.140 -0.8331 -0.2046  0.1032
  145MOL    C7032038   3.018   1.955   2.206  0.1156 -0.8806 -0.3330
  145MOL    O7132039   3.019   2.068   2.155  0.6575 -0.0891 -0.4392
  145MOL    C7232040   2.941   1.940   2.335 -0.1919  0.2013 -0.3453
  145MOL    H7332041   3.161   1.756   1.939  0.5716 -0.3072  0.0200
  145MOL    H7432042   3.142   1.925   1.961  0.8140 -1.0857  1.7281
  145MOL    H7532043   3.015   1.740   2.150 -1.0092 -0.0070  0.6119
  145MOL    H7632044   2.994   1.977   2.423  0.5547 -1.1143 -0.2280
  145MOL    H7732045   2.843   1.987   2.331 -0.4948 -0.3724  0.1930
  145MOL    H7832046   2.933   1.834   2.358  2.9543  0.2575  1.2941
  145MOL    C7932047   3.203   1.788   2.221 -0.2359 -0.7085 -0.0158
  145MOL    C8032048   3.326   1.888   2.225  0.2243  0.4382  0.5541
  145MOL    C8132049   3.428   1.838   2.122 -0.0962 -0.4308  0.1841
  145MOL    O8232050   3.496   1.736   2.135 -0.0584 -0.4983 -0.1434
  145MOL    C8332051   3.434   1.918   1.989 -0.5797 -0.3526 -0.3364
  145MOL    H8432052   3.235   1.690   2.187 -0.8251 -1.5689  1.8448
  145MOL    H8532053   3.166   1.765   2.321 -0.3971 -1.2837 -0.2113
  145MOL    H8632054   3.287   1.986   2.199 -1.7132 -0.4720 -0.0967
  145MOL    H8732055   3.479   2.015   2.008 -3.1897  0.7172  0.6744
  145MOL    H8832056   3.336   1.950   1.955 -0.0350  2.5570  0.6973
  145MOL    H8932057   3.481   1.860   1.910 -0.9526  0.0578 -0.8667
  145MOL    C9032058   3.376   1.877   2.371 -0.1391  0.4437 -0.2780
  145MOL    C9132059   3.468   1.998   2.405  0.6833  0.5749  0.0395
  145MOL    C9232060   3.387   2.089   2.507  0.3547 -0.7095  0.6565
  145MOL    O9332061   3.426   2.092   2.622  0.2753 -0.7137 -0.3817
  145MOL    C9432062   3.270   2.169   2.457 -1.1991 -0.4425 -0.0877
  145MOL    H9532063   3.294   1.871   2.444 -0.4347 -1.1610 -0.7073
  145MOL    H9632064   3.426   1.782   2.392 -0.2764  0.3446 -0.3948
  145MOL    H9732065   3.478   2.057   2.314  2.2750 -2.8897 -2.1070
  145MOL    H9832066   3.288   2.273   2.486  0.0159 -0.3740 -1.0121
  145MOL    H9932067   3.260   2.163   2.348  1.5977 -2.0143 -0.3147
  145MOL   H10032068   3.181   2.136   2.509 -1.2012 -0.0475  0.1672
  145MOL   C10132069   3.597   1.935   2.465 -0.9821  0.1133 -0.2303
  145MOL   C10232070   3.708   2.035   2.493  0.3444  0.2072 -0.1909
  145MOL   C10332071   3.760   2.090   2.353  0.0649  0.6467 -0.0704
  145MOL   O10432072   3.812   2.005   2.276  0.6139 -0.0385  0.0182
  145MOL   C10532073   3.744   2.241   2.315 -0.6370  0.5283 -0.0999
  145MOL   H10632074   3.569   1.898   2.564 -1.0105  0.3788 -0.1386
  145MOL   H10732075   3.631   1.851   2.405 -2.0480 -1.0925  0.8138
  145MOL   H10832076   3.674   2.116   2.559  1.2193  1.0706 -0.7933
  145MOL   H10932077   3.842   2.288   2.305 -0.0523 -0.4393  0.9634
  145MOL   H11032078   3.703   2.264   2.216  0.4522  2.9889 -0.0293
  145MOL   H11132079   3.684   2.287   2.393  0.6386  1.5993  0.2646
  145MOL   C11232080   3.809   1.953   2.567 -0.0288  0.5252  0.0684
  145MOL   C11332081   3.933   2.047   2.602 -0.0410  0.2410 -0.1826
  145MOL   C11432082   4.065   1.975   2.570 -0.7132  0.2101 -0.5332
  145MOL   O11532083   4.100   1.872   2.638 -0.0836 -0.4398  0.5432
  145MOL   C11632084   4.165   2.027   2.474  0.4666  0.2162  0.3970
  145MOL   H11732085   3.843   1.868   2.507 -1.3564  1.1439 -1.5922
  145MOL   H11832086   3.777   1.905   2.659  2.3430  0.2743  0.8169
  145MOL   H11932087   3.937   2.134   2.536 -0.0459  1.2782  1.1630
  145MOL   H12032088   4.264   2.010   2.517  0.9722  1.1786 -0.3628
  145MOL   H12132089   4.168   1.975   2.379 -0.6222  0.6282  0.1252
  145MOL   H12232090   4.152   2.132   2.445 -1.2522 -0.7529 -2.5344
  145MOL   C12332091   3.925   2.104   2.750  0.0997  0.0993  0.0953
  145MOL   C12432092   3.943   2.007   2.872  0.7848  0.5114  0.0757
  145MOL   C12532093   3.833   1.895   2.890  0.8103  0.6726  0.2041
  145MOL   O12632094   3.717   1.934   2.911 -0.7524  0.0190 -0.5409
  145MOL   C12732095   3.873   1.744   2.878  0.4322 -0.1145 -0.3163
  145MOL   H12832096   3.823   2.143   2.756  0.6979  1.7047  0.0740
  145MOL   H12932097   3.988   2.193   2.752  1.6323 -0.9672 -0.3703
  145MOL   H13032098   4.039   1.960   2.854  1.2549  0.7423  1.8644
  145MOL   H13132099   3.980   1.721   2.873  0.4503  0.2847 -3.3667
  145MOL   H13232100   3.828   1.692   2.794  0.1023  1.1436 -0.9398
  145MOL   H13332101   3.849   1.692   2.970  0.3954 -0.6065 -0.6038
  145MOL   C13432102   3.956   2.082   3.007  0.0789  0.1109 -0.0169
  145MOL   C13532103   4.000   2.002   3.131 -0.2228  0.9507 -0.3005
  145MOL   C13632104   4.136   1.928   3.116  0.3093  0.5450  0.0692
  145MOL   O13732105   4.223   1.951   3.031  0.2549  0.6707 -0.1344
  145MOL   C13832106   4.166   1.807   3.206 -0.2172  0.4336 -0.7288
  145MOL   H13932107   3.862   2.130   3.032  0.0963  0.0246  0.2095
  145MOL   H14032108   4.030   2.162   2.998  1.2043 -0.7994  0.9071
  145MOL   H14132109   3.926   1.926   3.155  0.1993  1.5281  3.0187
  145MOL   H14232110   4.271   1.821   3.229 -0.7670  1.8274  1.0644
  145MOL   H14332111   4.154   1.702   3.176  4.7666  0.2648 -2.4995
  145MOL   H14432112   4.115   1.812   3.302 -0.4863 -0.4262 -0.8175
  145MOL   C14532113   4.005   2.093   3.262  0.1192 -0.0856  1.1270
  145MOL   C14632114   3.877   2.134   3.325 -0.2717  0.2581 -0.3736
  145MOL   C14732115   3.745   2.053   3.289 -0.2369  0.1073 -0.0732
  145MOL   O14832116   3.721   1.933   3.297  0.4887  0.2244  0.0942
  145MOL   C14932117   3.632   2.136   3.226 -0.4757  1.0040 -0.4260
  145MOL   H15032118   4.083   2.169   3.258 -1.4185  1.4677  0.1209
  145MOL   H15132119   4.046   2.022   3.334 -1.7369 -2.2407  0.1179
  145MOL   H15232120   3.864   2.233   3.281  0.0817  0.7399  0.6024
  145MOL   H15332121   3.558   2.069   3.183 -3.4307  1.7037  3.3174
  145MOL   H15432122   3.584   2.194   3.305 -2.6463 -1.0996 -0.1612
  145MOL   H15532123   3.670   2.195   3.143  0.4536  4.4470  2.2992
  145MOL   C15632124   3.881   2.145   3.479  0.3410  0.1535  0.2258
  145MOL   C15732125   3.989   2.234   3.550 -0.7361 -0.1014  0.0509
  145MOL   C15832126   4.009   2.191   3.694  0.0117 -0.2820 -0.2826
  145MOL   O15932127   3.955   2.237   3.796  0.5789  0.0055  0.8938
  145MOL   C16032128   4.098   2.065   3.713 -0.0921  0.3735  0.0646
  145MOL   H16132129   3.779   2.176   3.503 -0.1172 -0.3982 -0.9718
  145MOL   H16232130   3.897   2.043   3.514  4.2427  0.4601 -0.4582
  145MOL   H16332131   4.084   2.220   3.499 -0.1048  0.7812  0.9546
  145MOL   H16432132   4.071   1.994   3.635 -1.6306  0.6467  0.3242
  145MOL   H16532133   4.074   2.017   3.807  1.6439 -0.8230 -0.0864
  145MOL   H16632134   4.206   2.076   3.708 -0.0620  0.1229  0.1816
  145MOL   C16732135   3.955   2.382   3.531  0.4391 -0.6189 -0.5020
  145MOL   C16832136   4.025   2.471   3.424 -0.0939  0.1915  0.7704
  145MOL   C16932137   4.184   2.480   3.435  0.2979 -0.1211 -0.3858
  145MOL   O17032138   4.245   2.426   3.523 -0.4820  0.3902 -0.4707
  145MOL   C17132139   4.266   2.556   3.333  0.2174 -0.0792  0.4857
  145MOL   H17232140   3.846   2.383   3.528  0.4321  0.4795 -0.0696
  145MOL   H17332141   3.978   2.444   3.618 -1.5167 -0.0168 -0.3851
  145MOL   H17432142   4.005   2.427   3.326  0.1899 -1.1123  1.2919
  145MOL   H17532143   4.366   2.515   3.319 -0.0167 -0.7388  0.7322
  145MOL   H17632144   4.276   2.654   3.381 -0.0076  0.0920  0.1900
  145MOL   H17732145   4.213   2.577   3.240  0.9317 -1.1189 -0.1573
  145MOL   C17832146   3.964   2.615   3.419 -0.2155 -0.3379 -0.3647
  145MOL   C17932147   3.817   2.614   3.369 -0.3384 -0.0378  0.3987
  145MOL   C18032148   3.808   2.660   3.220 -0.3324  0.1172  0.3104
  145MOL   O18132149   3.788   2.775   3.187  0.5935 -0.1692  0.2685
  145MOL   C18232150   3.839   2.552   3.116  1.0829 -0.1209 -0.4560
  145MOL   H18332151   3.970   2.643   3.523  0.1969 -1.9026  0.0563
  145MOL   H18432152   4.034   2.680   3.367  0.2219 -0.3118  0.2579
  145MOL   H18532153   3.796   2.509   3.352 -3.8654  0.5215  0.9161
  145MOL   H18632154   3.947   2.544   3.108  1.0324  0.7487 -2.3395
  145MOL   H18732155   3.802   2.592   3.021  0.3250  2.3768  0.8226
  145MOL   H18832156   3.785   2.463   3.149  0.9789  0.6628  1.5885
  145MOL   C18932157   3.713   2.685   3.456 -0.0836  0.0191  0.1450
  145MOL   C19032158   3.563   2.689   3.410  0.4192  0.2805  0.9974
  145MOL   C19132159   3.514   2.554   3.379  0.2588 -0.2504  1.0995
  145MOL   O19232160   3.567   2.451   3.421  0.0666  0.5903  0.4517
  145MOL   C19332161   3.394   2.540   3.280 -0.6410  0.2143  0.5188
  145MOL   H19432162   3.717   2.636   3.553  0.1695  1.5302  0.9058
  145MOL   H19532163   3.747   2.782   3.491 -0.8841 -0.7151  3.0249
  145MOL   H19632164   3.569   2.746   3.317  0.0201 -0.1566  0.7058
  145MOL   H19732165   3.326   2.625   3.290  0.7607  1.4322 -0.1687
  145MOL   H19832166   3.424   2.523   3.177 -1.4202  0.0702  0.3150
  145MOL   H19932167   3.336   2.450   3.299 -0.2297 -0.0508  0.5220
  145MOL   C20032168   3.464   2.769   3.493 -0.1709 -0.0727  0.1233
  145MOL   C20132169   3.460   2.721   3.649  0.0411 -0.0763  0.9160
  145MOL   C20232170   3.324   2.644   3.675  0.4104  0.2041  0.1170
  145MOL   O20332171   3.221   2.697   3.639  0.4015  0.3174 -0.0065
  145MOL   C20432172   3.327   2.509   3.744 -0.0938 -0.1789 -0.3100
  145MOL   H20532173   3.495   2.873   3.492  0.5399 -0.2845 -0.1923
  145MOL   H20632174   3.369   2.768   3.440  0.4968 -1.5717 -1.1136
  145MOL   H20732175   3.544   2.652   3.642  2.0611  2.4101  0.3475
  145MOL   H20832176   3.279   2.521   3.842  0.2286  1.1706 -0.3069
  145MOL   H20932177   3.276   2.434   3.683 -3.1173  1.3787  0.1884
  145MOL   H21032178   3.427   2.471   3.765 -0.3642 -0.6188  0.2012
  145MOL   C21132179   3.489   2.833   3.749  0.3408  0.0376 -0.2185
  145MOL   C21232180   3.539   2.771   3.884 -0.1596 -0.5046 -0.5643
  145MOL   C21332181   3.603   2.873   3.982 -0.0709 -0.1223 -0.0203
  145MOL   O21432182   3.553   2.982   4.015  0.4873 -0.4161  0.0794
  145MOL   C21532183   3.728   2.830   4.053  0.5472  0.1209 -0.3403
  145MOL   H21632184   3.570   2.890   3.704  0.1805  2.2218  2.1497
  145MOL   H21732185   3.399   2.893   3.766  0.4269  0.4480 -1.1519
  145MOL   H21832186   3.602   2.687   3.855  2.5188  1.0170  0.6303
  145MOL   H21932187   3.779   2.753   3.995  1.2488 -0.5729  1.1660
  145MOL   H22032188   3.784   2.924   4.054 -1.7347  1.5397 -1.2696
  145MOL   H22132189   3.704   2.800   4.155 -0.8124 -0.4076 -0.8061
  145MOL   H22232190   3.457   2.727   3.940 -1.0224 -0.2236 -1.5916
  146MOL     C132191   6.409   2.975   4.185  0.1393  0.2487 -0.1609
  146MOL     C232192   6.508   2.860   4.167  1.0507 -0.1354 -0.2609
  146MOL     C332193   6.472   2.768   4.050 -0.4308  0.4047 -0.4896
  146MOL     O432194   6.384   2.799   3.976 -0.1976 -0.4896  0.0068
  146MOL     C532195   6.552   2.636   4.031  0.5301  0.2891 -0.3912
  146MOL     H632196   6.305   2.945   4.194  0.4407 -0.7740 -0.0106
  146MOL     H732197   6.413   3.038   4.096  2.1268 -0.6538 -0.7440
  146MOL     H832198   6.493   2.797   4.254 -0.3660 -1.0672 -1.1576
  146MOL     H932199   6.477   2.563   4.002 -0.4285  1.5700 -1.1785
  146MOL    H1032200   6.621   2.650   3.948 -0.6469  0.5768 -1.3419
  146MOL    H1132201   6.586   2.606   4.130 -0.4572  0.6626  0.0631
  146MOL    H1232202   6.417   3.023   4.283 -2.0196  4.5030 -1.9324
  146MOL    C1332203   6.652   2.919   4.147 -0.4718  0.4248 -0.3664
  146MOL    C1432204   6.677   3.037   4.050  0.1033 -0.1036  0.2596
  146MOL    C1532205   6.641   3.006   3.901 -0.3590 -0.0627 -0.6564
  146MOL    O1632206   6.704   2.926   3.840 -0.3597  0.0500  0.1709
  146MOL    C1732207   6.535   3.091   3.829  0.8544 -0.6782 -0.2035
  146MOL    H1832208   6.687   2.952   4.245  2.3536  0.1148 -1.2216
  146MOL    H1932209   6.734   2.848   4.136 -2.3563 -1.7224 -0.9604
  146MOL    H2032210   6.614   3.117   4.089 -0.1406  0.5293 -1.3984
  146MOL    H2132211   6.539   3.080   3.720 -0.1582  1.1847 -0.4458
  146MOL    H2232212   6.435   3.063   3.862  0.3092  1.3780 -0.0687
  146MOL    H2332213   6.528   3.195   3.859 -0.7403 -1.0651  0.8341
  146MOL    C2432214   6.822   3.083   4.072 -0.1034  0.1171  0.3689
  146MOL    C2532215   6.873   3.184   3.962 -0.0244  0.7561 -0.2803
  146MOL    C2632216   6.793   3.316   3.981 -1.0481  0.6543 -0.2990
  146MOL    O2732217   6.737   3.346   4.088  0.7278 -0.4520 -0.2762
  146MOL    C2832218   6.776   3.408   3.863  0.0392  0.3881 -0.1322
  146MOL    H2932219   6.843   3.116   4.174 -0.8732 -2.8039  1.4982
  146MOL    H3032220   6.884   2.995   4.055  0.2762  0.6634 -1.1434
  146MOL    H3132221   6.850   3.135   3.867  1.2683 -1.1245  0.3567
  146MOL    H3232222   6.798   3.355   3.770  0.8213  0.0112  0.2658
  146MOL    H3332223   6.672   3.438   3.867 -0.1025 -0.0617 -0.4487
  146MOL    H3432224   6.850   3.488   3.874 -0.9410  1.3945 -0.8460
  146MOL    C3532225   7.023   3.208   3.970  0.2268  0.9264  0.6713
  146MOL    C3632226   7.089   3.280   3.857  0.3711  0.0874 -0.1725
  146MOL    C3732227   7.240   3.291   3.889  0.0409  0.7782 -1.0812
  146MOL    O3832228   7.304   3.187   3.900  0.2559  0.3739  0.1345
  146MOL    C3932229   7.299   3.425   3.917 -0.0068 -0.2245  0.5614
  146MOL    H4032230   7.052   3.105   3.993  0.2049  1.0442  1.2159
  146MOL    H4132231   7.034   3.262   4.063  3.4670  2.4670 -0.5252
  146MOL    H4232232   7.051   3.382   3.858  1.4947  0.5078  1.1150
  146MOL    H4332233   7.408   3.431   3.913 -0.1686  2.2902 -1.5234
  146MOL    H4432234   7.264   3.452   4.016 -1.1804  1.8448 -0.3772
  146MOL    H4532235   7.259   3.496   3.845  2.6173  0.7053 -0.0500
  146MOL    C4632236   7.060   3.213   3.719  0.1894  0.0302 -0.4693
  146MOL    C4732237   7.111   3.288   3.588 -0.5556  0.1090  0.4577
  146MOL    C4832238   7.261   3.277   3.561 -0.1183  0.2241  0.0762
  146MOL    O4932239   7.320   3.171   3.564  0.7201 -0.6579  0.3995
  146MOL    C5032240   7.338   3.402   3.548 -0.1681  0.0067 -0.1102
  146MOL    H5132241   6.955   3.198   3.694  0.2820 -0.5815 -0.4880
  146MOL    H5232242   7.096   3.110   3.713  0.0573 -0.1782  1.8816
  146MOL    H5332243   7.113   3.394   3.614  2.1114  0.2811 -0.2257
  146MOL    H5432244   7.376   3.403   3.446 -0.1180 -0.8951 -0.1049
  146MOL    H5532245   7.286   3.496   3.569 -1.3003 -0.5732 -0.3409
  146MOL    H5632246   7.424   3.417   3.613  0.1596  0.5699 -0.6602
  146MOL    C5732247   7.028   3.257   3.454  0.0262 -0.6371 -0.9164
  146MOL    C5832248   6.916   3.354   3.431  0.1202 -0.1155 -0.4319
  146MOL    C5932249   6.968   3.479   3.357  0.5778 -0.5709  0.5116
  146MOL    O6032250   6.922   3.592   3.378 -0.1074 -0.4355  0.2392
  146MOL    C6132251   7.067   3.469   3.249 -0.1582 -0.4062  0.0846
  146MOL    H6232252   6.992   3.156   3.474 -0.5049  0.0935  2.0831
  146MOL    H6332253   7.094   3.249   3.368 -0.0004  0.9850 -1.1023
  146MOL    H6432254   6.881   3.392   3.527  3.8397 -0.7204  1.2348
  146MOL    H6532255   7.163   3.476   3.299  0.7091 -0.1419 -1.5766
  146MOL    H6632256   7.052   3.380   3.187 -0.3982 -0.1685 -0.2029
  146MOL    H6732257   7.057   3.557   3.185 -0.6766 -0.6240 -0.1410
  146MOL    C6832258   6.794   3.300   3.358  0.2459 -0.5016  0.2444
  146MOL    C6932259   6.666   3.393   3.343 -0.0161 -0.2232  0.1369
  146MOL    C7032260   6.603   3.433   3.475 -0.0447 -0.0865 -0.0354
  146MOL    O7132261   6.618   3.363   3.571  0.0742 -0.0930  0.3198
  146MOL    C7232262   6.520   3.557   3.476 -0.5427  0.2517  0.5130
  146MOL    H7332263   6.822   3.280   3.254  0.0252 -0.8345  0.2456
  146MOL    H7432264   6.766   3.203   3.400 -1.3377 -0.4153 -0.5635
  146MOL    H7532265   6.704   3.483   3.296 -2.3560  0.8697  0.2756
  146MOL    H7632266   6.424   3.524   3.438  0.2143 -1.6722  0.2081
  146MOL    H7732267   6.517   3.606   3.573  1.0444 -0.0507  0.7416
  146MOL    H7832268   6.569   3.618   3.399 -0.9435  1.7303  1.4080
  146MOL    C7932269   6.561   3.340   3.247  0.6307  0.2086 -0.6837
  146MOL    C8032270   6.492   3.200   3.277 -0.1607  0.1232 -0.0968
  146MOL    C8132271   6.588   3.074   3.249  0.3361 -0.3144 -0.1819
  146MOL    O8232272   6.624   3.039   3.140 -0.1390  0.0855 -0.3381
  146MOL    C8332273   6.613   2.977   3.368 -0.3006  0.3351 -0.7175
  146MOL    H8432274   6.617   3.322   3.155  1.1971  0.8592 -0.4680
  146MOL    H8532275   6.489   3.421   3.230  1.2187  1.1375  1.1149
  146MOL    H8632276   6.460   3.203   3.381  2.3130  1.5429  0.6719
  146MOL    H8732277   6.630   3.039   3.456 -0.6590  0.2019 -0.5518
  146MOL    H8832278   6.707   2.926   3.346 -0.0647 -0.5931  2.2380
  146MOL    H8932279   6.533   2.903   3.378  2.3939 -2.6153 -0.2434
  146MOL    C9032280   6.359   3.187   3.186  0.1862 -0.4378  0.0745
  146MOL    C9132281   6.237   3.121   3.251  0.4746 -0.0746  0.0174
  146MOL    C9232282   6.270   2.996   3.328  0.6751 -0.1930 -0.0588
  146MOL    O9332283   6.287   2.996   3.453 -0.1035  0.0928 -0.2829
  146MOL    C9432284   6.286   2.875   3.241 -0.5789  0.7223 -0.0462
  146MOL    H9532285   6.335   3.289   3.154 -1.2453 -0.6595  0.4052
  146MOL    H9632286   6.381   3.137   3.092 -1.7976  1.1060 -1.2733
  146MOL    H9732287   6.172   3.091   3.169 -0.6091  0.4941  0.6536
  146MOL    H9832288   6.191   2.855   3.192 -0.9043 -0.8506  1.1679
  146MOL    H9932289   6.365   2.889   3.167  0.4589 -0.0276  0.9060
  146MOL   H10032290   6.307   2.789   3.304 -1.5266  1.1057  0.8078
  146MOL   C10132291   6.153   3.231   3.334  0.2490 -0.3845  0.7259
  146MOL   C10232292   6.034   3.190   3.424  0.1696  0.0273 -0.3715
  146MOL   C10332293   5.924   3.110   3.353  0.1765 -0.5494  0.0941
  146MOL   O10432294   5.884   3.137   3.240 -0.0347 -0.0338 -0.1187
  146MOL   C10532295   5.865   2.989   3.429 -0.6172 -0.6025 -0.1950
  146MOL   H10632296   6.229   3.276   3.399 -1.7999  0.3906  2.6296
  146MOL   H10732297   6.124   3.313   3.268  1.2531 -0.2444  0.4398
  146MOL   H10832298   6.069   3.121   3.501 -0.2934 -0.4828 -0.6187
  146MOL   H10932299   5.759   2.983   3.402 -0.6698  0.7135 -0.3106
  146MOL   H11032300   5.919   2.896   3.413  0.8738  0.0287  1.1004
  146MOL   H11132301   5.872   3.005   3.536  1.1595 -0.0998 -0.3819
  146MOL   C11232302   5.976   3.315   3.498 -0.4246  0.4078 -0.3629
  146MOL   C11332303   6.042   3.372   3.625 -0.8904  0.3530  0.2955
  146MOL   C11432304   6.063   3.257   3.725 -0.6111  0.5445 -0.1695
  146MOL   O11532305   5.967   3.208   3.783  0.8275  0.1056  0.4612
  146MOL   C11632306   6.206   3.203   3.738 -0.1228  0.6484 -0.7445
  146MOL   H11732307   5.874   3.288   3.526 -0.5907 -0.5252 -1.8338
  146MOL   H11832308   5.963   3.401   3.431 -0.7780  0.5942 -0.0588
  146MOL   H11932309   6.143   3.408   3.606 -2.0379  2.5050 -1.9666
  146MOL   H12032310   6.235   3.203   3.633  0.5712 -0.0016 -0.5542
  146MOL   H12132311   6.273   3.276   3.784  1.1991 -1.0637  0.0891
  146MOL   H12232312   6.192   3.104   3.780 -0.0384  0.5522 -0.9416
  146MOL   C12332313   5.959   3.488   3.688  0.4673  0.1882 -0.5621
  146MOL   C12432314   5.969   3.630   3.623 -0.2835 -0.0767  0.7767
  146MOL   C12532315   6.110   3.685   3.597  0.0614 -0.2971  0.1674
  146MOL   O12632316   6.186   3.710   3.693 -0.2127  0.1400  0.0353
  146MOL   C12732317   6.160   3.695   3.454  0.4359  0.4176 -0.1506
  146MOL   H12832318   5.979   3.501   3.794  0.3920 -1.0594 -0.3783
  146MOL   H12932319   5.854   3.462   3.676  0.8258 -2.0652  0.8450
  146MOL   H13032320   5.914   3.624   3.529  2.9281 -1.6581 -1.0862
  146MOL   H13132321   6.175   3.593   3.421 -1.3246 -0.0563  0.5058
  146MOL   H13232322   6.252   3.753   3.438  1.4581 -1.0740  0.2501
  146MOL   H13332323   6.087   3.731   3.381 -0.3927 -0.5223  0.2102
  146MOL   C13432324   5.880   3.732   3.713  0.2810  0.0247 -0.1515
  146MOL   C13532325   5.825   3.851   3.632  0.3138  0.2050  0.0644
  146MOL   C13632326   5.717   3.813   3.529 -0.6425  0.1242  0.0631
  146MOL   O13732327   5.631   3.722   3.551 -0.3881 -0.3484 -0.1072
  146MOL   C13832328   5.724   3.876   3.387 -0.0807  0.0319 -1.2024
  146MOL   H13932329   5.946   3.775   3.788  0.1663 -0.9932  0.5378
  146MOL   H14032330   5.800   3.674   3.759 -0.1394 -0.2048 -1.1417
  146MOL   H14132331   5.912   3.901   3.590  0.8820  0.6536  1.7457
  146MOL   H14232332   5.799   3.955   3.381  1.5711 -1.6250 -2.9883
  146MOL   H14332333   5.634   3.934   3.365 -0.1035  1.1522  1.7299
  146MOL   H14432334   5.757   3.811   3.306  1.1654 -2.1944  1.0482
  146MOL   C14532335   5.757   3.952   3.730  0.1090 -1.0248  0.4290
  146MOL   C14632336   5.844   4.045   3.813 -0.0328  0.0915  0.2417
  146MOL   C14732337   5.920   4.144   3.723  0.5452 -0.4786 -0.3681
  146MOL   O14832338   5.869   4.236   3.654  0.0632 -0.5310 -1.6253
  146MOL   C14932339   6.067   4.140   3.721 -0.0840  0.3179 -0.0413
  146MOL   H15032340   5.715   3.881   3.802 -0.0422 -0.8517  0.5124
  146MOL   H15132341   5.681   4.012   3.680  0.2901 -1.0852  0.0834
  146MOL   H15232342   5.910   3.982   3.872 -1.3063  1.1080  2.8649
  146MOL   H15332343   6.105   4.147   3.823 -0.1855  0.0880  0.0109
  146MOL   H15432344   6.088   4.039   3.688 -2.4893 -0.2581  0.0683
  146MOL   H15532345   6.108   4.216   3.655  0.3014  1.0463  1.0247
  146MOL   C15632346   5.744   4.121   3.908 -0.4391  0.6434  0.4766
  146MOL   C15732347   5.808   4.178   4.039  0.5816  0.0369  1.0102
  146MOL   C15832348   5.866   4.078   4.127 -0.4925  0.3283 -0.4633
  146MOL   O15932349   5.986   4.054   4.139 -0.3516 -0.0828  0.1079
  146MOL   C16032350   5.763   3.989   4.201  0.0338  0.1250  0.7244
  146MOL   H16132351   5.687   4.200   3.860  0.2892  1.4868  0.9724
  146MOL   H16232352   5.660   4.059   3.939  0.1112  0.7005  2.1548
  146MOL   H16332353   5.894   4.244   4.024 -0.3992  1.2421  0.6478
  146MOL   H16432354   5.665   3.995   4.156  0.6004 -2.1612 -0.8833
  146MOL   H16532355   5.756   4.022   4.305  2.0270  1.8710  0.3465
  146MOL   H16632356   5.802   3.887   4.205  3.9369  1.4677 -0.1667
  146MOL   C16732357   5.707   4.259   4.118 -0.1493 -0.0904 -0.1204
  146MOL   C16832358   5.746   4.328   4.253 -0.3584 -0.9502 -0.1012
  146MOL   C16932359   5.643   4.420   4.314 -0.0049  0.2440 -0.3081
  146MOL   O17032360   5.548   4.461   4.252  0.1420 -0.1500 -0.1363
  146MOL   C17132361   5.655   4.437   4.464  0.4366 -0.6183 -0.1681
  146MOL   H17232362   5.667   4.335   4.050 -0.0744 -0.5304 -0.6564
  146MOL   H17332363   5.619   4.200   4.145 -1.3318  0.2393 -3.1007
  146MOL   H17432364   5.759   4.254   4.332  1.7842  1.6417  2.0976
  146MOL   H17532365   5.655   4.338   4.509  1.4397 -0.4679  0.1549
  146MOL   H17632366   5.569   4.492   4.504  0.7033 -0.2782 -0.0619
  146MOL   H17732367   5.748   4.481   4.498  0.8124 -2.2830  1.0219
  146MOL   C17832368   5.880   4.398   4.244 -0.5050  0.3175  0.6567
  146MOL   C17932369   5.893   4.538   4.173 -0.7551  0.5218 -0.3321
  146MOL   C18032370   5.855   4.531   4.028 -0.1394 -0.3164  1.1286
  146MOL   O18132371   5.932   4.474   3.951 -0.6264  0.4461 -0.4232
  146MOL   C18232372   5.737   4.600   3.964 -0.4124  0.1063 -0.5398
  146MOL   H18332373   5.915   4.409   4.346 -0.2962  0.4516  0.5700
  146MOL   H18432374   5.963   4.342   4.201 -1.7043  0.7271 -2.3368
  146MOL   H18532375   5.823   4.616   4.203  0.0336  0.6954  1.1105
  146MOL   H18632376   5.649   4.571   4.022 -1.6905 -0.6062 -2.7624
  146MOL   H18732377   5.718   4.551   3.869  1.3584 -0.5240 -0.5877
  146MOL   H18832378   5.753   4.707   3.949  4.6159 -0.4356  0.1872
  146MOL   C18932379   6.031   4.593   4.203  0.6203 -0.0188 -0.1326
  146MOL   C19032380   6.069   4.735   4.155  0.3213  1.1099 -0.2303
  146MOL   C19132381   5.983   4.837   4.232 -0.2798 -0.0140 -0.4033
  146MOL   O19232382   6.003   4.864   4.348 -0.1588 -0.1975 -0.3850
  146MOL   C19332383   5.877   4.921   4.164  0.5238 -0.5540 -0.0938
  146MOL   H19432384   6.048   4.593   4.311  0.2984 -0.9074 -0.0757
  146MOL   H19532385   6.099   4.517   4.164  0.7778 -0.2606  0.5912
  146MOL   H19632386   6.046   4.730   4.049  1.3288  0.0987 -0.4168
  146MOL   H19732387   5.883   5.027   4.187  0.9935 -1.0158  1.9697
  146MOL   H19832388   5.886   4.909   4.056 -0.8668  1.6494 -0.4853
  146MOL   H19932389   5.782   4.893   4.209  1.3001 -0.3602  1.6861
  146MOL   C20032390   6.221   4.772   4.175 -0.5684  0.5837  0.1464
  146MOL   C20132391   6.299   4.806   4.045 -0.0620  0.5249 -0.0883
  146MOL   C20232392   6.314   4.684   3.953  1.0412  0.0937  0.1907
  146MOL   O20332393   6.378   4.578   3.984 -0.2175 -0.4185 -0.0992
  146MOL   C20432394   6.228   4.676   3.823  0.0336 -0.0365  0.7812
  146MOL   H20532395   6.244   4.848   4.250  3.6325 -0.7464  0.3220
  146MOL   H20632396   6.272   4.687   4.218  2.1924  2.6170  1.0097
  146MOL   H20732397   6.247   4.891   4.000 -3.1308 -0.3648  1.6100
  146MOL   H20832398   6.175   4.769   3.803 -0.9575 -1.2378 -2.3951
  146MOL   H20932399   6.299   4.670   3.741 -0.6847 -2.0267  0.2944
  146MOL   H21032400   6.148   4.602   3.815 -1.2693  1.6556 -2.9364
  146MOL   C21132401   6.442   4.858   4.084  0.0362  0.2161  0.0131
  146MOL   C21232402   6.499   4.977   3.999 -0.1504  0.3870 -0.1683
  146MOL   C21332403   6.505   4.949   3.846 -0.2364  0.4057  0.4779
  146MOL   O21432404   6.410   4.904   3.778 -0.2544 -0.3965  0.5665
  146MOL   C21532405   6.640   4.985   3.786 -0.2229  0.1944  0.0770
  146MOL   H21632406   6.443   4.884   4.190  0.1445 -0.1002  0.0899
  146MOL   H21732407   6.509   4.772   4.070 -0.0821  0.3494 -1.4952
  146MOL   H21832408   6.598   4.995   4.041 -0.1294 -0.0093 -0.0422
  146MOL   H21932409   6.640   4.951   3.682  1.6008 -2.2738  0.8499
  146MOL   H22032410   6.651   5.094   3.780 -0.7921  0.2865  0.6988
  146MOL   H22132411   6.724   4.932   3.832 -0.2052  0.3307  0.2012
  146MOL   H22232412   6.443   5.065   4.029  2.1268  2.2098 -1.1773
  147MOL     C132413   0.932   4.562   3.090 -0.0654 -0.0827 -0.5929
  147MOL     C232414   0.992   4.582   3.235  0.0724  0.3465 -0.4015
  147MOL     C332415   1.150   4.598   3.238  0.7414  0.2880  0.4458
  147MOL     O432416   1.198   4.706   3.205 -0.3951 -0.0462  0.3483
  147MOL     C532417   1.237   4.473   3.254 -0.2015  0.7939 -0.3862
  147MOL     H632418   0.975   4.476   3.041  2.7049  1.8960 -1.7631
  147MOL     H732419   0.963   4.633   3.014  0.8226 -2.9184 -2.9500
  147MOL     H832420   0.968   4.489   3.286 -0.8461  0.8077  0.0135
  147MOL     H932421   1.337   4.493   3.217  1.3941 -1.1513  2.6816
  147MOL    H1032422   1.242   4.449   3.360 -1.3679 -2.2149 -0.9553
  147MOL    H1132423   1.202   4.388   3.194 -3.2445  0.3982  1.8295
  147MOL    H1232424   0.824   4.546   3.087 -0.0392 -0.0941 -1.5969
  147MOL    C1332425   0.914   4.696   3.300  0.3622  0.3008 -0.0854
  147MOL    C1432426   0.941   4.721   3.452  0.2670 -0.2262 -0.3111
  147MOL    C1532427   0.871   4.613   3.537 -0.7381  0.2126 -0.6850
  147MOL    O1632428   0.772   4.562   3.491 -0.5454  0.1273  0.3486
  147MOL    C1732429   0.923   4.560   3.667 -0.8171 -0.0387  0.0841
  147MOL    H1832430   0.944   4.784   3.241 -1.2753 -0.3306 -1.9247
  147MOL    H1932431   0.808   4.683   3.280  0.5683 -2.6998  0.5651
  147MOL    H2032432   1.046   4.713   3.478  0.3059  2.0449  0.3708
  147MOL    H2132433   0.846   4.502   3.717 -0.6006 -0.9537 -0.6124
  147MOL    H2232434   1.013   4.498   3.653 -0.5571  0.1763  0.7958
  147MOL    H2332435   0.948   4.643   3.732 -3.2824  0.9911 -0.2651
  147MOL    C2432436   0.905   4.866   3.495  0.5969  0.3955  0.1492
  147MOL    C2532437   0.949   4.906   3.636  0.1870 -0.8196 -0.0483
  147MOL    C2632438   1.091   4.883   3.670 -0.4156 -0.2232 -0.0371
  147MOL    O2732439   1.125   4.830   3.775  0.1711 -0.3828 -0.2262
  147MOL    C2832440   1.193   4.940   3.575 -0.2900 -0.0228 -0.0802
  147MOL    H2932441   0.938   4.938   3.420 -1.0476 -0.9008 -1.8575
  147MOL    H3032442   0.797   4.879   3.486  0.5989  0.5273  0.3010
  147MOL    H3132443   0.890   4.840   3.701 -0.3203 -0.5985 -0.2814
  147MOL    H3232444   1.293   4.926   3.615 -1.3414 -0.9891  2.2497
  147MOL    H3332445   1.190   4.878   3.485 -0.8181  0.6382 -0.5344
  147MOL    H3432446   1.176   5.045   3.550 -0.0039  0.0883  0.2062
  147MOL    C3532447   0.902   5.052   3.669 -0.4496  0.2058 -0.0370
  147MOL    C3632448   0.879   5.071   3.823  0.1394 -0.3417  0.2535
  147MOL    C3732449   0.908   5.215   3.865 -0.0374  0.0284  0.3333
  147MOL    O3832450   1.010   5.248   3.924  0.4574 -0.1819 -0.1582
  147MOL    C3932451   0.822   5.330   3.806  0.3938  0.1023  0.1526
  147MOL    H4032452   0.811   5.090   3.623 -0.6742  2.0433  1.8301
  147MOL    H4132453   0.970   5.124   3.623  0.1444 -0.5116 -0.2905
  147MOL    H4232454   0.963   5.024   3.874 -0.5026 -1.4750  0.2787
  147MOL    H4332455   0.855   5.431   3.829 -1.9752  0.9556 -0.0772
  147MOL    H4432456   0.717   5.310   3.829  0.6568 -2.5450 -0.7376
  147MOL    H4532457   0.825   5.332   3.697 -2.1612  2.2789  0.0747
  147MOL    C4632458   0.745   5.016   3.872  0.3951  0.4685  0.5152
  147MOL    C4732459   0.759   4.931   4.002  0.0542  0.3712  0.9080
  147MOL    C4832460   0.620   4.907   4.062 -0.9890  0.4434 -0.7635
  147MOL    O4932461   0.547   4.818   4.024  0.8288 -0.3059 -0.0519
  147MOL    C5032462   0.579   4.980   4.185  0.2156 -0.0806  0.1043
  147MOL    H5132463   0.706   4.954   3.792 -0.0493  0.1692  0.9618
  147MOL    H5232464   0.679   5.100   3.895  0.3345  1.0592 -1.7089
  147MOL    H5332465   0.822   4.978   4.078 -0.6638 -1.2041  2.5273
  147MOL    H5432466   0.599   4.905   4.261 -1.5212 -1.1649 -0.4825
  147MOL    H5532467   0.641   5.069   4.194  1.5712 -0.8138 -1.7221
  147MOL    H5632468   0.474   4.998   4.164 -0.0916 -0.1733  1.5208
  147MOL    C5732469   0.829   4.792   3.974 -0.3084  0.5922 -0.6742
  147MOL    C5832470   0.874   4.707   4.101  0.3192 -0.2121 -0.4875
  147MOL    C5932471   0.772   4.597   4.139 -0.2156  0.4922 -0.5384
  147MOL    O6032472   0.704   4.596   4.245  0.1989  0.0529  0.7914
  147MOL    C6132473   0.760   4.486   4.035  0.1820 -0.1647  0.5794
  147MOL    H6232474   0.918   4.816   3.915  0.6512 -2.3374 -0.4935
  147MOL    H6332475   0.777   4.728   3.903 -0.1113  0.6222 -0.8476
  147MOL    H6432476   0.874   4.767   4.192  1.2536 -0.5862 -0.2369
  147MOL    H6532477   0.656   4.454   4.020  0.8476 -0.8314 -3.0781
  147MOL    H6632478   0.800   4.509   3.937  0.7582  0.4442  0.9609
  147MOL    H6732479   0.816   4.399   4.071  1.9251  0.1942 -1.1827
  147MOL    C6832480   1.021   4.657   4.080  0.1764 -0.2418  0.1537
  147MOL    C6932481   1.073   4.542   4.177 -0.1958  0.2688 -0.2974
  147MOL    C7032482   1.035   4.594   4.323 -0.0436  0.2329  0.0284
  147MOL    O7132483   1.066   4.706   4.370 -0.6208  0.0037 -0.3969
  147MOL    C7232484   0.964   4.487   4.414  0.3707 -1.0261 -0.0591
  147MOL    H7332485   1.030   4.620   3.978  1.4062 -0.1209  0.2031
  147MOL    H7432486   1.081   4.748   4.093 -1.5427  0.7014  1.7705
  147MOL    H7532487   1.020   4.448   4.162  0.1793 -0.3739  2.1639
  147MOL    H7632488   1.022   4.396   4.404  1.7905 -0.3284  1.6449
  147MOL    H7732489   0.964   4.521   4.517  0.7498  0.4412 -0.5201
  147MOL    H7832490   0.863   4.462   4.381  0.3343  1.8068 -2.3667
  147MOL    C7932491   1.218   4.511   4.157 -0.4482 -0.5589 -0.1917
  147MOL    C8032492   1.243   4.450   4.017 -0.4204 -0.0042 -0.0239
  147MOL    C8132493   1.150   4.335   3.975 -0.2050 -0.2221 -1.2288
  147MOL    O8232494   1.087   4.345   3.871 -0.4429 -0.2708 -0.5970
  147MOL    C8332495   1.142   4.207   4.067 -0.4900 -0.0840  0.1361
  147MOL    H8432496   1.261   4.438   4.227  0.1260 -0.4544 -0.4381
  147MOL    H8532497   1.276   4.600   4.181  0.5635 -1.4345  0.7087
  147MOL    H8632498   1.227   4.535   3.951  1.4893  0.9454  0.6810
  147MOL    H8732499   1.215   4.131   4.037 -0.4620  0.5437 -1.4044
  147MOL    H8832500   1.043   4.161   4.066 -0.1431 -1.0582  3.1261
  147MOL    H8932501   1.175   4.235   4.167  0.3875  0.0144 -0.1771
  147MOL    C9032502   1.392   4.418   4.004 -0.0089 -0.0647  0.3746
  147MOL    C9132503   1.441   4.401   3.854 -0.5677  0.6311 -0.0527
  147MOL    C9232504   1.437   4.532   3.782  0.2996  0.2716  1.0868
  147MOL    O9332505   1.499   4.627   3.826 -0.5649 -0.2783  0.1044
  147MOL    C9432506   1.354   4.544   3.652 -0.1847 -0.9243 -0.0152
  147MOL    H9532507   1.457   4.479   4.067 -1.3557  0.4659  1.2523
  147MOL    H9632508   1.405   4.329   4.066 -1.9483 -0.0625  0.7940
  147MOL    H9732509   1.373   4.338   3.796 -0.3237  0.4347 -0.1269
  147MOL    H9832510   1.276   4.469   3.640 -0.3706 -0.6016 -0.9055
  147MOL    H9932511   1.306   4.641   3.640 -0.2854 -1.1169 -1.2699
  147MOL   H10032512   1.432   4.539   3.575  1.4807 -2.2157  1.7096
  147MOL   C10132513   1.590   4.336   3.852 -0.3316  0.0026 -0.1027
  147MOL   C10232514   1.668   4.354   3.721 -0.3785  0.5467 -0.3580
  147MOL   C10332515   1.603   4.268   3.614  0.3198  0.6600  0.2985
  147MOL   O10432516   1.557   4.154   3.632  0.3460  0.1699  0.0100
  147MOL   C10532517   1.592   4.333   3.478  0.0624 -0.3851 -0.4235
  147MOL   H10632518   1.641   4.389   3.932 -1.7534  0.1595  0.7147
  147MOL   H10732519   1.587   4.233   3.889  0.5477 -0.3056 -0.8401
  147MOL   H10832520   1.652   4.454   3.682 -1.5721 -0.3851 -2.3809
  147MOL   H10932521   1.678   4.395   3.454 -0.1205 -0.4220 -1.1932
  147MOL   H11032522   1.602   4.255   3.402 -1.7741  0.0729 -1.1684
  147MOL   H11132523   1.494   4.381   3.472 -0.9188 -2.1404  0.9263
  147MOL   C11232524   1.819   4.321   3.721 -0.2677 -0.2139  0.2805
  147MOL   C11332525   1.904   4.374   3.839  1.0228  0.1781  0.1000
  147MOL   C11432526   1.887   4.529   3.856 -0.1320 -0.5811 -0.2382
  147MOL   O11532527   1.887   4.601   3.755 -0.1615  0.0020 -0.1276
  147MOL   C11632528   1.875   4.590   3.992 -0.8264  0.0850 -0.6428
  147MOL   H11732529   1.859   4.370   3.632  1.3093  0.3072  1.2701
  147MOL   H11832530   1.841   4.214   3.714 -0.5392 -0.1078 -2.9057
  147MOL   H11932531   1.857   4.315   3.918 -0.5562  0.7535 -0.3932
  147MOL   H12032532   1.978   4.612   4.020  0.2313  0.3767 -4.3863
  147MOL   H12132533   1.830   4.689   3.988 -0.8489  0.0181 -2.9631
  147MOL   H12232534   1.813   4.533   4.061  0.3637 -0.3707  0.0661
  147MOL   C12332535   2.050   4.334   3.826 -0.5650  0.0709 -0.4128
  147MOL   C12432536   2.132   4.358   3.963  0.6201  0.1737 -0.0058
  147MOL   C12532537   2.282   4.365   3.929 -0.1046 -0.6973  0.1513
  147MOL   O12632538   2.362   4.274   3.952  0.5383 -0.3459 -0.2819
  147MOL   C12732539   2.338   4.491   3.865 -0.4610 -0.6805  0.7400
  147MOL   H12832540   2.103   4.388   3.747 -0.0251  0.3735  0.1509
  147MOL   H12932541   2.062   4.229   3.800 -1.6522 -0.8153  2.5061
  147MOL   H13032542   2.111   4.459   3.996 -0.1646  0.1317 -0.3633
  147MOL   H13132543   2.287   4.520   3.774  1.9250 -0.8389 -0.6823
  147MOL   H13232544   2.444   4.471   3.853 -0.3246  0.2113  0.4527
  147MOL   H13332545   2.350   4.573   3.936  0.4902  0.3120 -0.5505
  147MOL   C13432546   2.103   4.265   4.081 -0.0012  0.0496  0.0062
  147MOL   C13532547   2.162   4.309   4.219  0.2278  0.1849 -0.0888
  147MOL   C13632548   2.074   4.416   4.292  0.5776 -0.0154  0.1662
  147MOL   O13732549   1.967   4.453   4.252 -0.2691 -0.0578 -0.5245
  147MOL   C13832550   2.132   4.477   4.415  0.3430 -0.3155 -0.3733
  147MOL   H13932551   2.132   4.164   4.054 -2.0709 -0.6978  0.4964
  147MOL   H14032552   1.995   4.252   4.092 -0.0865 -0.4554 -1.4042
  147MOL   H14132553   2.260   4.346   4.191  0.9540 -1.3538  0.3700
  147MOL   H14232554   2.113   4.405   4.495 -0.5808 -0.2782 -0.5551
  147MOL   H14332555   2.076   4.569   4.424 -1.3241 -1.1986 -1.4807
  147MOL   H14432556   2.240   4.496   4.416  0.6018 -1.7565  0.6632
  147MOL   C14532557   2.180   4.184   4.313 -0.1494 -0.7614  0.9181
  147MOL   C14632558   2.307   4.101   4.287 -0.2192  0.1050 -0.4100
  147MOL   C14732559   2.439   4.170   4.335 -0.2534  0.7084  0.2500
  147MOL   O14832560   2.437   4.272   4.402 -0.3532  0.2762 -0.3670
  147MOL   C14932561   2.570   4.098   4.310 -0.2634 -0.2212 -0.0217
  147MOL   H15032562   2.089   4.125   4.299 -1.1834  1.0558 -0.1757
  147MOL   H15132563   2.182   4.210   4.418  0.3925  0.4577  0.6121
  147MOL   H15232564   2.322   4.086   4.180  0.6077 -0.1374 -0.2689
  147MOL   H15332565   2.564   4.006   4.368 -0.6180  0.6257  1.3212
  147MOL   H15432566   2.582   4.064   4.207 -0.7434 -0.6337  0.0590
  147MOL   H15532567   2.658   4.160   4.329 -1.6590  0.9935  2.8729
  147MOL   C15632568   2.288   3.970   4.365  0.3472  0.5049  0.4789
  147MOL   C15732569   2.337   3.846   4.280 -0.7310 -0.2151 -0.3415
  147MOL   C15832570   2.265   3.826   4.141  0.6300  0.0275  0.3503
  147MOL   O15932571   2.167   3.753   4.128  0.5352  1.0492 -0.1953
  147MOL   C16032572   2.326   3.890   4.019  0.8615  0.0264  0.5929
  147MOL   H16132573   2.320   3.992   4.466  2.1792  2.4055 -0.4853
  147MOL   H16232574   2.184   3.946   4.387 -0.3069  0.4550 -2.3975
  147MOL   H16332575   2.438   3.879   4.253 -1.5762  2.3625 -0.5412
  147MOL   H16432576   2.416   3.947   4.040  1.0013  0.5388 -1.3317
  147MOL   H16532577   2.249   3.951   3.973 -0.0170 -0.6418  1.1572
  147MOL   H16632578   2.354   3.808   3.953 -2.0517  1.2473 -2.2952
  147MOL   C16732579   2.354   3.721   4.367  0.3763 -0.1517  0.0563
  147MOL   C16832580   2.463   3.625   4.334 -0.6519 -0.1404 -0.1820
  147MOL   C16932581   2.452   3.560   4.194  0.3005  0.2868  0.5130
  147MOL   O17032582   2.537   3.583   4.109 -0.0224  0.4466  0.0144
  147MOL   C17132583   2.330   3.472   4.163  0.0360  0.1638  0.1996
  147MOL   H17232584   2.379   3.758   4.466  0.4396 -0.3202  0.1051
  147MOL   H17332585   2.258   3.669   4.377  0.3564 -0.0731  0.2683
  147MOL   H17432586   2.556   3.682   4.334 -1.6906  1.7258 -3.9076
  147MOL   H17532587   2.324   3.439   4.060 -0.5761  0.5020  0.1235
  147MOL   H17632588   2.232   3.516   4.180 -0.1948  0.2184 -1.2238
  147MOL   H17732589   2.334   3.393   4.238  0.3796  1.6983  1.8571
  147MOL   C17832590   2.475   3.519   4.447  0.1500  0.3240  0.2745
  147MOL   C17932591   2.614   3.452   4.451  0.2262 -0.1214  0.2776
  147MOL   C18032592   2.594   3.305   4.491 -0.0550 -0.3033  0.4625
  147MOL   O18132593   2.607   3.215   4.404  0.8068  0.3046 -0.0636
  147MOL   C18232594   2.553   3.262   4.631  0.0068 -0.0898  0.0077
  147MOL   H18332595   2.462   3.566   4.545  0.8117 -0.6513  0.8376
  147MOL   H18432596   2.390   3.450   4.439 -1.3590  1.8451  2.6220
  147MOL   H18532597   2.661   3.460   4.353 -0.4936 -0.3668 -0.0924
  147MOL   H18632598   2.550   3.337   4.710 -1.1592  0.0402 -0.1601
  147MOL   H18732599   2.593   3.168   4.670 -1.3828 -0.5795  0.2601
  147MOL   H18832600   2.446   3.245   4.619 -0.1667  0.2704  0.9874
  147MOL   C18932601   2.717   3.532   4.542 -0.2651 -0.7459  0.9738
  147MOL   C19032602   2.868   3.483   4.539 -0.2569 -0.2942 -0.2693
  147MOL   C19132603   2.927   3.505   4.405  1.0117  0.6675  0.4621
  147MOL   O19232604   2.876   3.585   4.333  0.4323 -0.3062 -0.2096
  147MOL   C19332605   3.052   3.420   4.359  0.3556 -0.4137 -0.6350
  147MOL   H19432606   2.709   3.640   4.527 -2.1563 -1.0370 -0.3873
  147MOL   H19532607   2.687   3.525   4.647  0.5247 -1.5225  1.1504
  147MOL   H19632608   2.856   3.377   4.564  1.4533 -0.2528  0.7931
  147MOL   H19732609   3.138   3.487   4.347  0.8688 -1.0800 -0.7166
  147MOL   H19832610   3.075   3.338   4.427  1.9903 -0.5856 -1.3611
  147MOL   H19932611   3.032   3.366   4.267  3.4876 -0.4608 -1.3537
  147MOL   C20032612   2.963   3.554   4.644  0.2931  0.4987  0.7028
  147MOL   C20132613   2.948   3.484   4.779 -0.2212  0.2981  0.5574
  147MOL   C20232614   2.935   3.579   4.902  0.7800 -0.6819 -0.0527
  147MOL   O20332615   2.982   3.690   4.911  0.3268  0.0579  0.0982
  147MOL   C20432616   2.849   3.521   5.004 -0.0891  0.3995 -0.2368
  147MOL   H20532617   3.066   3.538   4.610  0.7440  2.8936  0.8495
  147MOL   H20632618   2.938   3.660   4.648 -0.9557  0.3431 -2.1096
  147MOL   H20732619   2.852   3.434   4.770  1.0855 -2.2011  0.0733
  147MOL   H20832620   2.780   3.458   4.948  0.6345 -1.1913  0.6450
  147MOL   H20932621   2.903   3.460   5.075  2.0472  0.1503 -2.0168
  147MOL   H21032622   2.796   3.601   5.055  2.7324  1.8736  0.5091
  147MOL   C21132623   3.050   3.372   4.794  0.5795 -0.6405  0.1245
  147MOL   C21232624   3.017   3.256   4.893  1.0007  0.2201 -0.7289
  147MOL   C21332625   2.900   3.168   4.850  0.1005 -0.0147  0.0228
  147MOL   O21432626   2.883   3.147   4.730 -0.0708 -0.1258  0.6924
  147MOL   C21532627   2.803   3.130   4.957 -0.0327 -0.3419  0.7228
  147MOL   H21632628   3.061   3.322   4.697 -0.2138 -0.0314 -0.2775
  147MOL   H21732629   3.150   3.415   4.795 -0.0740  0.9165 -1.0855
  147MOL   H21832630   2.993   3.304   4.988 -1.8653  0.2541 -1.4277
  147MOL   H21932631   2.771   3.214   5.019  1.0942 -0.2518  1.1779
  147MOL   H22032632   2.714   3.088   4.911 -0.4189  2.3487 -1.1572
  147MOL   H22132633   2.863   3.070   5.025  1.9947 -0.5847 -1.2176
  147MOL   H22232634   3.108   3.197   4.888  0.1928 -0.9904 -1.4043
  148MOL     C132635   0.292   7.370   0.554  0.6697 -0.1512  0.3171
  148MOL     C232636   0.199   7.459   0.636  0.2645 -0.0501 -0.5331
  148MOL     C332637   0.065   7.395   0.644  0.0388 -1.1350  0.2946
  148MOL     O432638   0.045   7.282   0.687 -0.2301 -0.1008 -0.3571
  148MOL     C532639   7.813   7.486   0.599  0.2401 -0.4051 -0.1352
  148MOL     H632640   0.319   7.278   0.605 -2.6087 -1.7644 -0.7065
  148MOL     H732641   0.388   7.410   0.520  1.4931 -1.4399  1.1168
  148MOL     H832642   0.187   7.554   0.583 -1.8759  0.6872  1.1906
  148MOL     H932643   7.834   7.590   0.622 -3.2587  0.2778  0.3768
  148MOL    H1032644   7.814   7.484   0.490 -0.2539 -1.7794 -0.1282
  148MOL    H1132645   7.722   7.454   0.650  0.7005 -1.4493  0.0493
  148MOL    H1232646   0.250   7.322   0.465 -0.8165  0.2210  0.8047
  148MOL    C1332647   0.261   7.492   0.772  0.0717  0.4841 -0.0279
  148MOL    C1432648   0.185   7.591   0.857  0.0450 -0.0488 -0.1287
  148MOL    C1532649   0.182   7.733   0.803 -0.0239 -0.4402  0.0233
  148MOL    O1632650   0.262   7.765   0.715  0.0498 -0.3648 -0.3245
  148MOL    C1732651   0.068   7.824   0.830  0.5715 -0.1723  0.3741
  148MOL    H1832652   0.288   7.401   0.825  0.7843  0.7815  0.1220
  148MOL    H1932653   0.359   7.535   0.749  0.7327 -2.0509 -2.1968
  148MOL    H2032654   0.080   7.563   0.859 -0.8381  2.9325 -2.3767
  148MOL    H2132655   7.853   7.824   0.749 -0.3651  0.3811  1.1922
  148MOL    H2232656   0.015   7.803   0.923 -1.5528 -2.0132 -1.2145
  148MOL    H2332657   0.102   0.070   0.825  1.9105 -0.6590 -0.8980
  148MOL    C2432658   0.246   7.602   1.005 -0.7038  1.1893 -0.5629
  148MOL    C2532659   0.223   7.477   1.088 -0.1835 -0.5335  0.3668
  148MOL    C2632660   0.288   7.492   1.232 -0.7989  0.0487  0.2474
  148MOL    O2732661   0.287   7.601   1.289 -0.3925  0.2511 -0.4402
  148MOL    C2832662   0.349   7.364   1.291  0.1020  0.4906 -0.1371
  148MOL    H2932663   0.353   7.624   0.998 -0.2160 -0.7712  0.3243
  148MOL    H3032664   0.201   7.690   1.051 -0.6999  1.0709 -0.3344
  148MOL    H3132665   0.275   7.389   1.049 -0.6448 -0.5200 -0.2860
  148MOL    H3232666   0.424   7.376   1.370  2.1718  1.5680 -2.2146
  148MOL    H3332667   0.270   7.305   1.337  0.5653 -1.5709 -1.9283
  148MOL    H3432668   0.393   7.310   1.207 -1.5270 -1.3077  0.1310
  148MOL    C3532669   0.065   7.441   1.109 -0.1063  0.1607  0.5456
  148MOL    C3632670   0.040   7.315   1.025 -0.1589  0.2384 -0.3844
  148MOL    C3732671   0.090   7.182   1.083  0.1599  0.1690 -0.1052
  148MOL    O3832672   0.118   7.169   1.199  0.5233 -0.0029  0.1699
  148MOL    C3932673   0.121   7.064   0.994 -0.0722  0.3542 -0.1774
  148MOL    H4032674   0.005   7.526   1.077 -0.3008 -0.7580 -1.5999
  148MOL    H4132675   0.032   7.422   1.211 -1.6472 -1.7726 -0.2628
  148MOL    H4232676   0.098   7.325   0.932  1.3239 -0.3816  0.4520
  148MOL    H4332677   0.051   6.984   1.018  1.2164 -0.5268  0.6684
  148MOL    H4432678   0.220   7.031   1.024 -0.2562 -0.1491 -0.1327
  148MOL    H4532679   0.116   7.090   0.889  0.3735 -0.8234 -0.4911
  148MOL    C4632680   7.748   7.292   0.979 -0.0251  0.8606  0.0295
  148MOL    C4732681   7.651   7.275   1.093  0.0538 -0.6969 -0.1994
  148MOL    C4832682   7.580   7.403   1.143 -1.0640 -0.6286 -0.0066
  148MOL    O4932683   7.595   7.505   1.076  0.4709  0.0582  0.1642
  148MOL    C5032684   7.494   7.411   1.264  0.9276 -0.6138  0.0731
  148MOL    H5132685   7.757   7.200   0.923 -0.3194 -0.3852  1.9876
  148MOL    H5232686   7.717   7.367   0.906  1.5476  1.0145 -0.5074
  148MOL    H5332687   7.689   7.232   1.186 -0.3568 -0.5461  0.0366
  148MOL    H5432688   7.393   7.412   1.222  0.0726 -0.2903  2.0609
  148MOL    H5532689   7.498   7.331   1.338  0.3615 -0.2212  0.5383
  148MOL    H5632690   7.511   7.503   1.319  0.9898 -0.4580 -0.2057
  148MOL    C5732691   7.532   7.187   1.043  1.0102  1.0489 -0.6170
  148MOL    C5832692   7.520   7.045   1.106 -0.1807 -0.0455  0.2362
  148MOL    C5932693   7.509   7.044   1.264 -0.7589  0.9441  0.0822
  148MOL    O6032694   7.401   7.074   1.314 -0.5978  0.0179 -0.3080
  148MOL    C6132695   7.613   6.967   1.344  0.2247  0.7145  0.1311
  148MOL    H6232696   7.549   7.170   0.937 -0.1040 -0.3342 -0.5988
  148MOL    H6332697   7.433   7.231   1.056 -0.9695 -3.7126  1.9218
  148MOL    H6432698   7.620   7.007   1.081  0.1145 -0.9938  2.7504
  148MOL    H6532699   7.608   6.999   1.448  0.9602 -0.5485  0.5597
  148MOL    H6632700   7.607   6.858   1.341 -2.1360  0.7884  1.4424
  148MOL    H6732701   7.711   6.985   1.300 -0.0619  1.4443 -0.2215
  148MOL    C6832702   7.405   6.956   1.041  0.4559 -0.6498  0.0343
  148MOL    C6932703   7.417   6.812   1.078  0.3196  0.7305  0.3768
  148MOL    C7032704   7.540   6.747   1.014  0.1631  0.6468 -0.0570
  148MOL    O7132705   7.599   6.797   0.924 -0.2323 -0.9559  0.6973
  148MOL    C7232706   7.579   6.611   1.061 -0.1745 -0.0539 -0.6870
  148MOL    H7332707   7.307   6.987   1.079  1.2113 -1.0097  2.3596
  148MOL    H7432708   7.388   6.962   0.933  1.2556  0.0890 -0.0478
  148MOL    H7532709   7.445   6.806   1.183  2.0755  0.9428 -0.0655
  148MOL    H7632710   7.683   6.616   1.093 -0.3248  3.2918 -0.5453
  148MOL    H7732711   7.521   6.578   1.148  0.7254 -0.6335 -0.2944
  148MOL    H7832712   7.572   6.530   0.988  2.1411 -1.6647  0.8001
  148MOL    C7932713   7.284   6.727   1.061 -0.0107  0.2492  0.6053
  148MOL    C8032714   7.158   6.766   1.142 -0.4208 -0.3312 -0.7621
  148MOL    C8132715   7.184   6.774   1.290  0.2206 -0.4299  0.5042
  148MOL    O8232716   7.283   6.715   1.345  0.3134 -0.1619  0.0364
  148MOL    C8332717   7.104   6.874   1.372  0.1621  0.3300  0.8380
  148MOL    H8432718   7.308   6.621   1.059  1.3505  0.5632 -0.4366
  148MOL    H8532719   7.260   6.743   0.955  0.9717  1.7628  0.5878
  148MOL    H8632720   7.141   6.870   1.115 -0.6626 -0.1080  0.2398
  148MOL    H8732721   6.996   6.860   1.362  0.2705  1.3126 -2.5694
  148MOL    H8832722   7.126   6.980   1.358 -0.3988  0.7253  2.8498
  148MOL    H8932723   7.133   6.851   1.474  0.2221  1.2289  1.0268
  148MOL    C9032724   7.031   6.678   1.115 -0.6210  0.4928 -0.0377
  148MOL    C9132725   7.056   6.531   1.147  0.1595  0.5021  0.2681
  148MOL    C9232726   7.015   6.481   1.288  0.1910 -0.1578 -0.0766
  148MOL    O9332727   6.922   6.531   1.345 -0.0038  0.0153 -0.5382
  148MOL    C9432728   7.072   6.349   1.343  0.0587  0.3219 -0.5115
  148MOL    H9532729   6.950   6.721   1.175 -0.4448 -0.1068  0.6333
  148MOL    H9632730   6.990   6.702   1.017  1.4189  1.8547 -0.5708
  148MOL    H9732731   7.162   6.507   1.158  0.3851  1.4322  0.1388
  148MOL    H9832732   7.015   6.318   1.431  1.0821 -2.9294 -0.9246
  148MOL    H9932733   7.079   6.264   1.275  0.2628  0.3559 -0.5323
  148MOL   H10032734   7.175   6.371   1.370 -0.4310 -0.2069  1.8558
  148MOL   C10132735   7.002   6.445   1.032  0.3338  0.5876 -0.7918
  148MOL   C10232736   7.117   6.357   0.968 -0.4895  0.6975 -0.1823
  148MOL   C10332737   7.207   6.437   0.878  0.0465  0.1069  0.6313
  148MOL   O10432738   7.166   6.526   0.804  0.3139 -0.7601 -0.1682
  148MOL   C10532739   7.350   6.386   0.871 -0.3812 -0.0882  0.6780
  148MOL   H10632740   6.916   6.393   1.073  1.0121  0.8286  0.9876
  148MOL   H10732741   6.961   6.499   0.947 -2.4260 -0.3837 -0.1200
  148MOL   H10832742   7.162   6.323   1.062 -2.1107  2.4982  1.2887
  148MOL   H10932743   7.394   6.382   0.971  0.5526 -0.9810  0.2382
  148MOL   H11032744   7.341   6.289   0.822 -2.8128 -0.1117  1.0916
  148MOL   H11132745   7.404   6.459   0.812  1.4825  0.2642  2.7646
  148MOL   C11232746   7.065   6.229   0.892  0.2932  0.3190 -0.7517
  148MOL   C11332747   7.008   6.242   0.746  0.8946  0.2886  0.4407
  148MOL   C11432748   6.869   6.305   0.752  1.0188 -0.3671 -0.4001
  148MOL   O11532749   6.770   6.242   0.799 -0.7112 -0.3701 -0.0013
  148MOL   C11632750   6.859   6.454   0.705  0.3166 -0.2575 -0.8388
  148MOL   H11732751   6.987   6.184   0.953  0.0784 -1.0804 -2.0275
  148MOL   H11832752   7.143   6.153   0.895  0.8615  0.8858 -1.0674
  148MOL   H11932753   7.076   6.303   0.686  1.0655  1.6310  1.9681
  148MOL   H12032754   6.951   6.488   0.657  0.3098  2.4615  0.9718
  148MOL   H12132755   6.773   6.454   0.638 -0.4212  1.4537  0.0841
  148MOL   H12232756   6.841   6.524   0.786  0.0414 -2.5618  1.1694
  148MOL   C12332757   6.994   6.112   0.661 -0.6888 -0.0884 -0.2190
  148MOL   C12432758   6.996   6.131   0.504  0.5938 -0.4097 -0.5752
  148MOL   C12532759   6.864   6.086   0.437 -0.5815  0.0582  0.2881
  148MOL   O12632760   6.771   6.035   0.503  0.7786 -0.8073 -0.1580
  148MOL   C12732761   6.846   6.112   0.292 -0.3238  0.6401 -0.1106
  148MOL   H12832762   6.921   6.036   0.691  2.0712 -2.3889  0.9039
  148MOL   H12932763   7.083   6.060   0.698 -0.7616  1.1837  1.8136
  148MOL   H13032764   6.990   6.239   0.489  1.0347 -0.3917 -0.6329
  148MOL   H13132765   6.820   6.216   0.272 -0.2388  0.5920 -0.4880
  148MOL   H13232766   6.755   6.060   0.265  0.2842 -0.4466 -0.0990
  148MOL   H13332767   6.936   6.082   0.237 -0.5167  2.0925 -1.2622
  148MOL   C13432768   7.117   6.068   0.433  0.0386  0.4592  0.3085
  148MOL   C13532769   7.186   6.174   0.336 -0.3605 -0.2391 -0.0108
  148MOL   C13632770   7.241   6.292   0.412 -0.4583  0.0025  0.2565
  148MOL   O13732771   7.319   6.274   0.500 -0.4285  0.9294  0.0976
  148MOL   C13832772   7.217   6.431   0.357 -0.6395  0.2945  0.4250
  148MOL   H13932773   7.088   5.972   0.389  0.8416 -0.7331  2.3227
  148MOL   H14032774   7.189   6.048   0.512 -0.8293 -1.1774  0.7261
  148MOL   H14132775   7.114   6.215   0.265 -0.4254 -2.1428 -1.0982
  148MOL   H14232776   7.156   6.488   0.428 -1.9720 -1.5522  0.7909
  148MOL   H14332777   7.170   6.435   0.259  1.2800  1.1849 -0.4848
  148MOL   H14432778   7.308   6.491   0.360 -0.3751 -0.0333 -0.7861
  148MOL   C14532779   7.294   6.116   0.247  0.0878 -0.6926 -0.6336
  148MOL   C14632780   7.247   6.015   0.146  0.6034  0.0011  0.2039
  148MOL   C14732781   7.169   6.089   0.037  0.2631 -0.3142  0.2520
  148MOL   O14832782   7.174   6.214   0.022 -0.3326 -0.6503 -0.3253
  148MOL   C14932783   7.089   6.017   7.789  0.3140 -0.2607 -0.6540
  148MOL   H15032784   7.365   6.062   0.310 -0.7898 -2.4146 -1.1022
  148MOL   H15132785   7.351   6.195   0.199  0.4350 -1.2177 -1.0902
  148MOL   H15232786   7.178   5.946   0.194 -0.7521  2.0646  1.3293
  148MOL   H15332787   7.005   5.973   7.842 -1.1786  0.9432 -1.9774
  148MOL   H15432788   7.045   6.080   7.711 -1.1970 -1.5840 -0.8853
  148MOL   H15532789   7.147   5.938   7.741  2.2625 -0.0903  1.3117
  148MOL   C15632790   7.369   5.933   0.093 -0.1464 -0.6224  0.0927
  148MOL   C15732791   7.346   5.792   0.037  0.2493  0.1999 -0.1002
  148MOL   C15832792   7.282   5.704   0.140 -0.2385  0.1937 -0.0749
  148MOL   O15932793   7.353   5.674   0.235  0.0314 -0.0231  0.3933
  148MOL   C16032794   7.134   5.660   0.117 -0.3009 -0.0313  0.4040
  148MOL   H16132795   7.435   5.987   0.026  0.0266  0.0859  0.8252
  148MOL   H16232796   7.438   5.923   0.177 -2.4738  0.6805  2.2340
  148MOL   H16332797   7.284   5.808   7.807 -0.4138  0.6572  0.4532
  148MOL   H16432798   7.077   5.635   0.207 -0.4170  1.9607  0.8980
  148MOL   H16532799   7.158   5.569   0.062  0.4610  0.0789  0.5533
  148MOL   H16632800   7.076   5.735   0.064 -0.5073 -0.9809 -0.7342
  148MOL   C16732801   7.482   5.733   7.851 -0.7885  0.0280 -0.6016
  148MOL   C16832802   7.485   5.670   7.712  0.4829  0.4217 -0.4633
  148MOL   C16932803   7.396   5.547   7.695 -0.5749 -0.7705 -0.1770
  148MOL   O17032804   7.412   5.441   7.750 -0.1659 -0.1858  0.1328
  148MOL   C17132805   7.266   5.579   7.625  0.4502  0.0916  0.1798
  148MOL   H17232806   7.554   5.814   7.842 -0.9036 -0.0659 -2.6416
  148MOL   H17332807   7.526   5.656   0.058  2.2272  1.5206 -0.7953
  148MOL   H17432808   7.443   5.752   7.653  1.8294  4.8215  4.3765
  148MOL   H17532809   7.219   5.659   7.682  2.7461  0.5599  1.4575
  148MOL   H17632810   7.194   5.499   7.642 -1.1293  1.1204 -1.4552
  148MOL   H17732811   7.280   5.610   7.521  0.3774 -1.8820 -0.4329
  148MOL   C17832812   7.633   5.651   7.657  0.3512 -0.1292  0.1886
  148MOL   C17932813   7.724   5.534   7.703 -0.1847  0.3873 -0.1210
  148MOL   C18032814   7.806   5.582   7.822 -0.1258  0.0199 -0.1432
  148MOL   O18132815   0.036   5.670   7.808  0.1102 -0.1333 -0.1565
  148MOL   C18232816   7.798   5.504   0.095  0.3610 -0.0508 -0.4809
  148MOL   H18332817   7.634   5.647   7.548  3.8379  1.9215  0.0496
  148MOL   H18432818   7.678   5.750   7.669 -0.5093  0.1680  0.9581
  148MOL   H18532819   7.674   5.444   7.737 -0.9765  0.4874 -0.9732
  148MOL   H18632820   0.029   5.503   0.159 -0.4847  0.3004  0.7202
  148MOL   H18732821   7.758   5.405   0.073 -2.6741  0.2251  3.2448
  148MOL   H18832822   7.719   5.554   0.151 -0.0892  0.3496 -1.4671
  148MOL   C18932823   7.804   5.472   7.581  0.4407 -0.3428 -0.4975
  148MOL   C19032824   0.056   5.370   7.620 -0.0921  0.8850  0.2084
  148MOL   C19132825   0.001   5.242   7.690 -0.3006 -0.1599 -0.4698
  148MOL   O19232826   0.074   5.191   7.776 -0.1357 -0.2158 -0.3281
  148MOL   C19332827   7.738   5.174   7.645  0.4196  0.1273 -0.0046
  148MOL   H19432828   7.739   5.425   7.508  0.7194 -0.5919 -0.5865
  148MOL   H19532829   7.852   5.556   7.530 -0.9826  0.7358 -0.1069
  148MOL   H19632830   0.129   5.422   7.682 -0.0166  1.7680 -0.6111
  148MOL   H19732831   7.743   5.131   7.545 -0.0721  1.7545 -0.7350
  148MOL   H19832832   7.711   5.091   7.711  0.1862  1.2351  1.3058
  148MOL   H19932833   7.655   5.245   7.645  1.1666  1.0324 -2.0352
  148MOL   C20032834   0.128   5.335   7.488 -0.1352  0.3084 -0.5320
  148MOL   C20132835   0.248   5.238   7.493  0.0355  0.1087 -0.0859
  148MOL   C20232836   0.360   5.295   7.580 -0.4008 -0.3294 -0.3772
  148MOL   O20332837   0.414   5.400   7.546  0.2726  0.2844 -0.1481
  148MOL   C20432838   0.387   5.237   7.715  0.4956 -0.7573 -0.4972
  148MOL   H20532839   0.053   5.275   7.436  0.3675 -2.2784  1.5706
  148MOL   H20632840   0.150   5.424   7.429  0.8312  0.5052  0.1063
  148MOL   H20732841   0.223   5.142   7.537  0.8642  0.4391  1.1211
  148MOL   H20832842   0.323   5.267   7.798  0.2721  1.0382 -1.2931
  148MOL   H20932843   0.390   5.131   7.690 -0.8295 -0.4178 -2.1894
  148MOL   H21032844   0.484   5.267   7.756  0.4844 -0.7812 -0.4525
  148MOL   C21132845   0.293   5.216   7.346  0.2856 -0.4866  0.2031
  148MOL   C21232846   0.192   5.131   7.259  0.0262 -0.1564  0.5185
  148MOL   C21332847   0.148   4.993   7.295 -0.6258 -0.0995  0.0648
  148MOL   O21432848   0.227   4.915   7.354  0.2460  0.0655  0.0100
  148MOL   C21532849   0.009   4.949   7.250  0.0633  0.6036  0.2800
  148MOL   H21632850   0.307   5.312   7.296 -0.6264  0.5681  1.9330
  148MOL   H21732851   0.390   5.167   7.345 -0.0104 -1.0771 -0.0953
  148MOL   H21832852   0.243   5.129   7.163 -0.0471  0.7134  0.4536
  148MOL   H21932853   7.845   4.980   7.148 -0.3930  1.7323  0.7036
  148MOL   H22032854   0.019   4.841   7.263 -0.4358  0.2835 -1.7944
  148MOL   H22132855   7.791   4.978   7.323  1.0543 -0.6067  1.8304
  148MOL   H22232856   0.103   5.193   7.246  0.3237  0.1857  0.1102
  149MOL     C132857   0.734   7.052   3.734  0.1256 -0.3266 -0.8883
  149MOL     C232858   0.758   6.908   3.697  0.0096  0.2810 -0.4599
  149MOL     C332859   0.808   6.896   3.551 -0.1758  0.4951 -0.3630
  149MOL     O432860   0.920   6.847   3.526 -0.1731 -0.3261 -0.7120
  149MOL     C532861   0.719   6.934   3.439 -0.4132  0.0246 -0.4791
  149MOL     H632862   0.721   7.084   3.837  0.4600  1.6052 -1.4114
  149MOL     H732863   0.646   7.097   3.689  2.1340  2.5295 -2.1568
  149MOL     H832864   0.669   6.848   3.719 -1.3737  2.3001 -0.4758
  149MOL     H932865   0.635   6.865   3.436 -0.1401 -0.3209 -0.1704
  149MOL    H1032866   0.683   7.036   3.446  1.5605  0.6956  0.1797
  149MOL    H1132867   0.780   6.931   3.348  1.8036  1.5619  0.9108
  149MOL    H1232868   0.816   7.114   3.695 -1.7444  3.2433  0.6092
  149MOL    C1332869   0.858   6.839   3.801  0.4691 -0.8246  0.4612
  149MOL    C1432870   0.886   6.684   3.786  0.1075 -0.6940 -0.8678
  149MOL    C1532871   0.766   6.589   3.781  0.1468 -0.2454  0.0893
  149MOL    O1632872   0.700   6.554   3.883  0.1151  0.0610 -0.3019
  149MOL    C1732873   0.726   6.533   3.644  0.2078  0.7035  0.6644
  149MOL    H1832874   0.953   6.890   3.781 -0.9872  2.4655  1.6923
  149MOL    H1932875   0.831   6.864   3.903  1.9306 -1.5101  1.0323
  149MOL    H2032876   0.933   6.670   3.688 -0.0799 -1.0844 -0.9016
  149MOL    H2132877   0.620   6.543   3.620  0.5276 -1.2781 -1.7677
  149MOL    H2232878   0.769   6.605   3.575  1.2044 -2.7909 -2.5199
  149MOL    H2332879   0.763   6.435   3.615 -0.2869  0.6578  0.1702
  149MOL    C2432880   0.991   6.634   3.888  0.4399  0.0542 -0.0436
  149MOL    C2532881   0.968   6.661   4.037  1.0874 -0.0792  0.1014
  149MOL    C2632882   0.992   6.535   4.122 -0.0051  0.0452 -0.2806
  149MOL    O2732883   1.101   6.478   4.115  0.7183 -0.4323  0.4287
  149MOL    C2832884   0.886   6.496   4.225  0.2101  0.2733 -0.9129
  149MOL    H2932885   1.004   6.527   3.873 -1.2380 -0.1248 -0.3059
  149MOL    H3032886   1.088   6.680   3.868 -0.5963  2.7002  0.8073
  149MOL    H3132887   0.862   6.683   4.049  1.4709  1.7038  0.3025
  149MOL    H3232888   0.919   6.478   4.328 -1.7330 -0.0652 -0.3243
  149MOL    H3332889   0.819   6.580   4.241 -0.7412 -0.6610  0.1284
  149MOL    H3432890   0.844   6.399   4.198  1.6862 -0.0139 -2.2414
  149MOL    C3532891   1.054   6.780   4.090 -0.4225  0.2181  0.1722
  149MOL    C3632892   1.209   6.756   4.087  0.7109 -0.0484 -0.6747
  149MOL    C3732893   1.280   6.880   4.016  0.1938  1.6235 -0.2112
  149MOL    O3832894   1.351   6.957   4.079  0.2602  0.2032  0.3695
  149MOL    C3932895   1.267   6.889   3.872 -0.0919 -0.0917 -0.2943
  149MOL    H4032896   1.009   6.802   4.186  0.6468  1.1837  0.4647
  149MOL    H4132897   1.024   6.867   4.033 -1.3477 -0.0420  0.2556
  149MOL    H4232898   1.226   6.666   4.028 -0.7143 -1.2949  0.7613
  149MOL    H4332899   1.180   6.944   3.835 -1.6017 -0.6462  2.3309
  149MOL    H4432900   1.262   6.789   3.830 -1.4608  0.2080 -0.8823
  149MOL    H4532901   1.358   6.944   3.846 -0.4511  1.0481  0.7830
  149MOL    C4632902   1.265   6.725   4.227 -0.3607  0.7254 -0.7010
  149MOL    C4732903   1.410   6.681   4.228  0.2255 -0.1596  1.0034
  149MOL    C4832904   1.479   6.711   4.359 -0.1808  0.8739 -0.5832
  149MOL    O4932905   1.519   6.621   4.427 -0.7078 -0.3730 -0.1017
  149MOL    C5032906   1.497   6.858   4.394 -0.3173  0.6117  0.3611
  149MOL    H5132907   1.205   6.647   4.274 -0.4751  1.1295 -0.1727
  149MOL    H5232908   1.259   6.808   4.297  2.9918  0.6139 -0.2029
  149MOL    H5332909   1.458   6.743   4.152  0.7895  1.9573  3.0181
  149MOL    H5432910   1.418   6.899   4.457 -0.6125  0.2671  0.2148
  149MOL    H5532911   1.593   6.850   4.445  0.0806 -1.8935 -0.7057
  149MOL    H5632912   1.501   6.918   4.303  1.7260 -0.4416 -0.2741
  149MOL    C5732913   1.427   6.531   4.187  0.0166 -0.8713  0.3135
  149MOL    C5832914   1.426   6.479   4.042  0.2733 -0.4761 -0.2180
  149MOL    C5932915   1.531   6.548   3.953  0.6927  0.2904 -0.5275
  149MOL    O6032916   1.639   6.593   3.992 -0.6645 -0.4674 -0.2390
  149MOL    C6132917   1.497   6.577   3.802 -0.1619 -0.1277  0.3018
  149MOL    H6232918   1.359   6.465   4.240 -0.1056 -1.2880 -0.3484
  149MOL    H6332919   1.523   6.492   4.221  0.7983  0.8306  0.1420
  149MOL    H6432920   1.336   6.513   3.990 -0.9186 -1.2707  1.2754
  149MOL    H6532921   1.551   6.668   3.777  1.0957 -0.9466  0.0143
  149MOL    H6632922   1.521   6.485   3.749 -1.4401 -1.4294  1.8877
  149MOL    H6732923   1.391   6.601   3.806 -0.1862 -0.3640  1.1832
  149MOL    C6832924   1.429   6.320   4.033  0.6963  0.3161 -0.1956
  149MOL    C6932925   1.385   6.264   3.895  0.4503 -0.7706  0.7444
  149MOL    C7032926   1.237   6.298   3.871 -0.0454  0.2502  0.3497
  149MOL    O7132927   1.216   6.400   3.804 -0.4182 -0.4748 -0.1689
  149MOL    C7232928   1.116   6.218   3.919 -0.2018  0.5122  0.5737
  149MOL    H7332929   1.529   6.293   4.070  0.1583 -0.7374  0.5287
  149MOL    H7432930   1.370   6.276   4.113 -0.9727 -1.9478 -2.5962
  149MOL    H7532931   1.448   6.320   3.826 -1.2434 -1.6759 -1.6051
  149MOL    H7632932   1.129   6.111   3.900 -0.8662  0.8932 -2.1316
  149MOL    H7732933   1.109   6.246   4.025 -0.2314  0.6163  0.5446
  149MOL    H7832934   1.037   6.265   3.861 -0.3849 -0.0639  0.3518
  149MOL    C7932935   1.420   6.114   3.887 -0.2827 -0.2265 -0.4975
  149MOL    C8032936   1.410   6.025   3.759  0.4172  0.1911  0.5226
  149MOL    C8132937   1.451   5.887   3.795  0.3846 -0.1194  0.6343
  149MOL    O8232938   1.570   5.854   3.799  0.5607  0.3325 -0.1977
  149MOL    C8332939   1.353   5.779   3.829 -0.3529 -0.1357  0.1908
  149MOL    H8432940   1.361   6.062   3.963  0.4466  1.5474  1.3414
  149MOL    H8532941   1.524   6.103   3.919  0.6257  1.5020 -2.7489
  149MOL    H8632942   1.302   6.021   3.749  0.3869  2.7086 -0.5132
  149MOL    H8732943   1.360   5.683   3.778  1.1249  1.1636 -2.1449
  149MOL    H8832944   1.253   5.821   3.828  0.1319  1.0731  1.5481
  149MOL    H8932945   1.358   5.755   3.935 -2.2583  0.5707  0.4412
  149MOL    C9032946   1.468   6.087   3.636  0.0245  0.8550 -0.9319
  149MOL    C9132947   1.395   6.046   3.499 -0.3357  0.3444 -0.2543
  149MOL    C9232948   1.431   5.904   3.460 -0.0693  0.2851 -0.4793
  149MOL    O9332949   1.349   5.812   3.473 -0.2074 -0.2774 -0.4162
  149MOL    C9432950   1.559   5.872   3.401  0.3658 -0.0330 -0.1299
  149MOL    H9532951   1.464   6.196   3.640 -0.2591  0.8221 -0.1769
  149MOL    H9632952   1.575   6.065   3.641 -0.6134 -2.6822 -1.3119
  149MOL    H9732953   1.450   6.102   3.423  1.3889 -2.1846 -0.9224
  149MOL    H9832954   1.583   5.771   3.436 -1.4440 -0.2871  0.4583
  149MOL    H9932955   1.547   5.862   3.293  0.8803  0.9081 -0.2718
  149MOL   H10032956   1.633   5.946   3.430  1.0764 -0.9539  0.4174
  149MOL   C10132957   1.244   6.075   3.482  0.2129  0.4247 -0.0314
  149MOL   C10232958   1.177   6.039   3.343  0.4660 -0.1020 -0.3838
  149MOL   C10332959   1.201   6.151   3.242 -0.0477  0.4350  1.2307
  149MOL   O10432960   1.278   6.240   3.267  0.3016 -0.5396  0.0760
  149MOL   C10532961   1.126   6.154   3.111  0.8554 -0.7761  0.1817
  149MOL   H10632962   1.196   6.011   3.556  1.5831  1.8311  2.1570
  149MOL   H10732963   1.214   6.178   3.501 -0.1753  0.3157 -0.0549
  149MOL   H10832964   1.225   5.961   3.284 -2.6581 -1.0791 -1.7462
  149MOL   H10932965   1.030   6.205   3.111  0.9396 -0.6033 -1.2089
  149MOL   H11032966   1.187   6.198   3.033  0.6511 -2.1667 -0.7886
  149MOL   H11132967   1.105   6.053   3.075  1.5195 -0.6470 -0.5781
  149MOL   C11232968   1.031   6.008   3.360 -1.0774 -0.2460 -0.1336
  149MOL   C11332969   1.004   5.863   3.392 -0.3823  0.0258  0.1811
  149MOL   C11432970   1.017   5.780   3.263 -0.1565 -0.1998  0.4021
  149MOL   O11532971   1.124   5.719   3.242  0.0295  0.9034  0.0164
  149MOL   C11632972   0.903   5.781   3.154 -0.4537 -0.4080 -0.8069
  149MOL   H11732973   0.973   6.045   3.275  0.0121  1.1735 -0.2900
  149MOL   H11832974   0.984   6.074   3.434 -0.1746  2.7734 -2.1603
  149MOL   H11932975   1.079   5.826   3.463  0.5258  1.3524 -0.0678
  149MOL   H12032976   0.816   5.842   3.178 -0.6061 -1.3988  1.1992
  149MOL   H12132977   0.952   5.822   3.066  1.6464  0.5372  0.7751
  149MOL   H12232978   0.877   5.677   3.137 -0.4245 -0.3539 -1.1860
  149MOL   C12332979   0.867   5.842   3.463  0.0541 -0.2263  0.6347
  149MOL   C12432980   0.855   5.899   3.609  0.1405 -0.0039  0.8134
  149MOL   C12532981   0.941   5.832   3.719  0.7203 -0.1558  0.0938
  149MOL   O12632982   0.973   5.904   3.813 -0.0111  0.3848 -0.3995
  149MOL   C12732983   0.965   5.682   3.717  0.2914 -0.0202  0.3094
  149MOL   H12832984   0.832   5.739   3.455 -1.0920  0.2579 -0.8225
  149MOL   H12932985   0.796   5.891   3.397  1.3461  1.6632  0.5925
  149MOL   H13032986   0.877   6.005   3.607 -1.2754  0.2686 -2.2618
  149MOL   H13132987   0.988   5.639   3.815 -3.7986  1.0196  1.8310
  149MOL   H13232988   1.049   5.666   3.650  0.4667 -0.4633  0.6362
  149MOL   H13332989   0.873   5.639   3.677 -0.4605 -0.1032  2.0528
  149MOL   C13432990   0.700   5.891   3.639 -0.3580 -0.2795  0.3298
  149MOL   C13532991   0.645   5.968   3.753  0.1081  0.6533 -0.6689
  149MOL   C13632992   0.645   6.123   3.737 -0.0868 -0.4289  0.2783
  149MOL   O13732993   0.631   6.176   3.623 -0.0500 -0.0955 -0.6661
  149MOL   C13832994   0.683   6.210   3.857  0.2495 -0.0979 -0.2999
  149MOL   H13932995   0.692   5.786   3.667  1.5628 -0.6198 -0.3773
  149MOL   H14032996   0.648   5.907   3.544  1.8170 -0.2200 -0.8797
  149MOL   H14132997   0.701   5.953   3.845 -2.0048 -2.3464  0.1805
  149MOL   H14232998   0.729   6.303   3.823  1.1845 -0.3529  0.2654
  149MOL   H14332999   0.740   6.159   3.934  1.9316 -0.0938 -1.5248
  149MOL   H14433000   0.599   6.245   3.917  2.0059  1.5764  1.2668
  149MOL   C14533001   0.496   5.932   3.778  0.3031  0.2924  0.3531
  149MOL   C14633002   0.427   5.979   3.906 -0.4461  0.2484  0.0991
  149MOL   C14733003   0.282   5.989   3.894  0.3398  0.1404 -0.2862
  149MOL   O14833004   0.237   6.103   3.878 -0.5591 -0.2452 -0.1649
  149MOL   C14933005   0.199   5.866   3.888 -0.0465 -0.1730  0.2899
  149MOL   H15033006   0.486   5.824   3.777  2.6823  0.0406  0.1613
  149MOL   H15133007   0.435   5.970   3.696 -0.3038 -1.4054  0.0013
  149MOL   H15233008   0.470   6.077   3.928  2.1017 -0.5600 -1.0330
  149MOL   H15333009   0.248   5.791   3.827  1.6649  1.1164  0.0563
  149MOL   H15433010   0.184   5.822   3.987 -2.5062  0.4534  0.2293
  149MOL   H15533011   0.102   5.900   3.853  0.2691 -0.8833 -1.3114
  149MOL   C15633012   0.472   5.878   4.017  0.1707 -0.5244  0.0710
  149MOL   C15733013   0.474   5.924   4.161  0.3858  0.5159  0.5045
  149MOL   C15833014   0.539   6.064   4.181 -0.8610 -0.3958 -1.0636
  149MOL   O15933015   0.652   6.084   4.142  0.8270 -0.4741 -0.3502
  149MOL   C16033016   0.458   6.170   4.259  0.0675  0.0780 -0.1727
  149MOL   H16133017   0.421   5.782   4.004 -1.0381  0.1620 -0.3451
  149MOL   H16233018   0.575   5.850   3.995  1.7518  2.9477  2.5455
  149MOL   H16333019   0.369   5.941   4.186 -0.2138 -1.9968 -0.1624
  149MOL   H16433020   0.497   6.178   4.361  0.4389 -1.6404 -0.1677
  149MOL   H16533021   0.354   6.138   4.267  0.0907 -0.4486 -1.8538
  149MOL   H16633022   0.456   6.265   4.207 -0.9603  0.0154 -0.2539
  149MOL   C16733023   0.536   5.821   4.259  0.0632  0.4505  0.2509
  149MOL   C16833024   0.463   5.683   4.272 -0.1938 -0.1128 -0.3610
  149MOL   C16933025   0.326   5.698   4.328  0.7631 -0.1768 -0.3167
  149MOL   O17033026   0.296   5.800   4.395 -0.9358 -0.1302  0.1957
  149MOL   C17133027   0.217   5.593   4.296  0.7744  0.2483  0.0002
  149MOL   H17233028   0.641   5.806   4.235 -0.6828 -1.3923 -2.0336
  149MOL   H17333029   0.548   5.873   4.354  0.7720  0.7528 -0.0014
  149MOL   H17433030   0.445   5.640   4.174 -0.4023 -1.1039  0.1065
  149MOL   H17533031   0.205   5.532   4.386  3.2752  0.5155  0.5478
  149MOL   H17633032   0.231   5.528   4.210 -1.0767 -0.8221  0.4694
  149MOL   H17733033   0.118   5.637   4.284  0.8817  0.6628  0.6217
  149MOL   C17833034   0.541   5.578   4.350 -0.2575  0.1637  0.3581
  149MOL   C17933035   0.660   5.516   4.289 -0.2772  0.1850 -0.2245
  149MOL   C18033036   0.625   5.430   4.169 -0.4012 -0.0540  0.0106
  149MOL   O18133037   0.666   5.448   4.056  0.1250 -0.3794 -0.3462
  149MOL   C18233038   0.526   5.318   4.208  0.3664  0.2057  1.0048
  149MOL   H18333039   0.586   5.639   4.428  2.0069  1.2839 -1.7195
  149MOL   H18433040   0.479   5.512   4.409  0.3202  0.8571  1.7650
  149MOL   H18533041   0.721   5.592   4.239 -0.0059 -0.4695 -0.9050
  149MOL   H18633042   0.584   5.250   4.272 -0.1838 -0.4782  0.7862
  149MOL   H18733043   0.490   5.260   4.123  2.0381 -0.6903  0.8859
  149MOL   H18833044   0.442   5.361   4.263  0.4578 -0.1768  1.4465
  149MOL   C18933045   0.748   5.448   4.395  0.1318  0.3746 -0.5920
  149MOL   C19033046   0.887   5.407   4.344 -0.0112 -0.6306  0.7886
  149MOL   C19133047   0.975   5.520   4.279 -0.1184  0.2591 -0.1301
  149MOL   O19233048   1.001   5.621   4.344  0.0599 -0.2236  0.1993
  149MOL   C19333049   1.033   5.495   4.138  0.2346 -0.5836 -0.4056
  149MOL   H19433050   0.771   5.510   4.482 -0.9902 -2.6519  1.9416
  149MOL   H19533051   0.695   5.359   4.427  1.3709 -0.1696 -0.0091
  149MOL   H19633052   0.871   5.339   4.261  0.7449  0.2233 -0.0640
  149MOL   H19733053   1.076   5.584   4.093  2.1880 -0.0036  2.4289
  149MOL   H19833054   1.122   5.433   4.156  2.7915  2.3942 -2.3145
  149MOL   H19933055   0.966   5.444   4.069 -0.1651  1.4923 -1.5925
  149MOL   C20033056   0.959   5.322   4.452  0.0478  0.2890 -0.5987
  149MOL   C20133057   1.088   5.249   4.405 -0.1368 -0.1146  0.4563
  149MOL   C20233058   1.059   5.159   4.284  0.3242 -0.1010 -0.2938
  149MOL   O20333059   0.955   5.099   4.258 -0.0963 -0.1481 -0.6020
  149MOL   C20433060   1.179   5.146   4.187  0.1900  0.3668  0.3204
  149MOL   H20533061   0.989   5.391   4.531 -0.1667 -0.0637 -0.2050
  149MOL   H20633062   0.894   5.249   4.500  1.1725  0.6581  1.5892
  149MOL   H20733063   1.159   5.322   4.364 -0.9623  1.5097  1.8297
  149MOL   H20833064   1.243   5.065   4.222 -0.0156  0.5787  1.1896
  149MOL   H20933065   1.146   5.115   4.088  1.3357  0.4528 -0.0953
  149MOL   H21033066   1.251   5.228   4.185  1.0648 -0.3920  0.2280
  149MOL   C21133067   1.160   5.168   4.516 -0.4156  0.0512 -0.1441
  149MOL   C21233068   1.311   5.178   4.514 -0.1896  0.6270 -0.0843
  149MOL   C21333069   1.374   5.185   4.650  0.2554  1.5362 -0.2973
  149MOL   O21433070   1.338   5.107   4.739 -0.4928 -0.0465  0.2285
  149MOL   C21533071   1.489   5.280   4.666  0.6590 -0.4045 -0.0780
  149MOL   H21633072   1.125   5.203   4.613 -0.2758  0.5760 -0.2817
  149MOL   H21733073   1.127   5.064   4.514  0.2860 -0.1912  0.6415
  149MOL   H21833074   1.341   5.273   4.470  1.5291  0.1436 -0.0116
  149MOL   H21933075   1.470   5.366   4.602  1.6346  0.5828  0.9267
  149MOL   H22033076   1.501   5.300   4.772  3.2127  1.1504 -0.6177
  149MOL   H22133077   1.590   5.250   4.637  0.5280  0.5242 -1.5703
  149MOL   H22233078   1.366   5.104   4.455 -1.6906 -0.1640 -0.5090
  150MOL     C133079   7.736   2.433   1.935 -0.1083 -0.0025  0.3979
  150MOL     C233080   0.001   2.511   1.886 -0.1642  0.6168 -0.2127
  150MOL     C333081   0.006   2.639   1.975 -0.2203 -0.5875 -0.0297
  150MOL     O433082   0.048   2.625   2.089  0.2430  0.2523 -0.4879
  150MOL     C533083   7.808   2.768   1.921  0.0386 -0.5396  0.3591
  150MOL     H633084   7.650   2.499   1.920  1.3306  2.2691  1.9971
  150MOL     H733085   7.753   2.406   2.039  0.6370 -0.8085  0.0763
  150MOL     H833086   7.844   2.525   1.779 -0.6250  0.5727 -0.1538
  150MOL     H933087   0.032   2.822   1.873 -0.6271  2.4438  2.4683
  150MOL    H1033088   7.717   2.748   1.863  0.3701 -1.8802  0.2806
  150MOL    H1133089   7.783   2.821   2.013 -1.1862 -2.3575  1.1039
  150MOL    H1233090   7.724   2.345   1.871  0.4832  0.1526  0.0807
  150MOL    C1333091   0.117   2.411   1.909  0.6230  0.5489  0.2233
  150MOL    C1433092   0.261   2.466   1.867 -0.1793 -0.0271  0.5061
  150MOL    C1533093   0.271   2.493   1.715 -0.0845 -0.3073 -0.4536
  150MOL    O1633094   0.321   2.595   1.676  1.0870  0.3347 -0.0847
  150MOL    C1733095   0.232   2.398   1.608  1.1790  0.6237  0.0994
  150MOL    H1833096   0.129   2.392   2.016 -1.4659 -0.2111  0.3442
  150MOL    H1933097   0.101   2.316   1.859 -0.3181 -0.1501  1.8272
  150MOL    H2033098   0.279   2.567   1.906  2.1123 -0.6963  1.2444
  150MOL    H2133099   0.149   2.338   1.646  0.8069  0.9587 -0.1779
  150MOL    H2233100   0.204   2.445   1.514 -0.9965 -0.0162  0.3922
  150MOL    H2333101   0.313   2.331   1.581  0.4472  0.2211 -1.1440
  150MOL    C2433102   0.373   2.373   1.912  0.9624  0.3955  0.3798
  150MOL    C2533103   0.511   2.414   1.900  0.0416  0.7106  0.5768
  150MOL    C2633104   0.534   2.533   1.994 -0.3523  0.0886 -0.2265
  150MOL    O2733105   0.538   2.515   2.115 -0.4802  0.4448 -0.0738
  150MOL    C2833106   0.511   2.669   1.933  0.9557 -0.1988 -0.1718
  150MOL    H2933107   0.349   2.337   2.012 -1.1376 -1.4616 -0.7428
  150MOL    H3033108   0.364   2.284   1.849 -0.3177  0.3008  0.6672
  150MOL    H3133109   0.531   2.460   1.803  1.7796 -1.0988  0.0552
  150MOL    H3233110   0.583   2.738   1.978  1.6663 -1.2610  0.3354
  150MOL    H3333111   0.512   2.667   1.824 -1.9157  1.2529 -0.2820
  150MOL    H3433112   0.412   2.710   1.955  0.8893 -0.8324  0.7628
  150MOL    C3533113   0.613   2.303   1.930 -0.1872  0.0458 -0.3203
  150MOL    C3633114   0.763   2.341   1.953  0.5605  0.6678  0.3715
  150MOL    C3733115   0.854   2.225   1.982  0.4084  0.2001 -0.2446
  150MOL    O3833116   0.818   2.110   1.952 -0.5300 -0.1194 -0.6260
  150MOL    C3933117   0.990   2.240   2.037 -0.8605 -0.5612 -0.2184
  150MOL    H4033118   0.593   2.216   1.868 -0.3919  0.4403 -0.8050
  150MOL    H4133119   0.585   2.262   2.028 -1.4130 -1.7418 -1.3916
  150MOL    H4233120   0.766   2.404   2.042 -0.7622  1.3491 -0.0448
  150MOL    H4333121   1.057   2.280   1.960  1.2102 -0.4233  1.6075
  150MOL    H4433122   1.023   2.143   2.073 -1.3512 -0.8454 -0.5411
  150MOL    H4533123   0.991   2.307   2.123  0.0415  0.8391 -1.2825
  150MOL    C4633124   0.809   2.428   1.835 -0.0284 -0.1720 -0.6840
  150MOL    C4733125   0.830   2.362   1.698  0.3798 -0.2276  0.1250
  150MOL    C4833126   0.702   2.363   1.611  0.5561 -0.1425 -0.0205
  150MOL    O4933127   0.643   2.467   1.582 -0.2681  0.2079  0.0153
  150MOL    C5033128   0.637   2.226   1.578 -0.4868 -0.2577  0.1705
  150MOL    H5133129   0.904   2.468   1.870 -1.4223  0.7833  2.1558
  150MOL    H5233130   0.750   2.519   1.830 -0.2671 -0.1890  1.4216
  150MOL    H5333131   0.868   2.261   1.713 -0.2165 -0.5227 -0.3420
  150MOL    H5433132   0.530   2.246   1.573 -0.1565  1.9477  1.3520
  150MOL    H5533133   0.672   2.181   1.485  1.8755  1.0783  0.3622
  150MOL    H5633134   0.652   2.149   1.654  0.7571 -1.4722 -1.2824
  150MOL    C5733135   0.952   2.428   1.624  0.8293  0.4770  0.3062
  150MOL    C5833136   0.992   2.358   1.497 -0.0723 -0.8772 -0.1034
  150MOL    C5933137   1.088   2.445   1.410  0.2077 -0.0666  0.0176
  150MOL    O6033138   1.212   2.445   1.410  0.4487 -0.3706  0.2447
  150MOL    C6133139   1.014   2.550   1.323 -0.2399 -0.2687  0.2483
  150MOL    H6233140   1.039   2.414   1.688  0.6590 -1.5150  0.1420
  150MOL    H6333141   0.925   2.533   1.612  0.9950  0.5143  0.2617
  150MOL    H6433142   0.893   2.348   1.452 -0.2164 -0.8444  0.2075
  150MOL    H6533143   1.066   2.556   1.228 -0.8645  3.4818  0.0584
  150MOL    H6633144   0.911   2.537   1.289 -0.6842  2.1071  0.6153
  150MOL    H6733145   1.033   2.648   1.366  2.4233 -0.5433 -0.1987
  150MOL    C6833146   1.052   2.217   1.522  0.0902  0.0765 -0.0823
  150MOL    C6933147   1.104   2.133   1.404 -1.0331  0.2357  0.7836
  150MOL    C7033148   0.996   2.116   1.295 -1.0463 -0.2597 -0.8364
  150MOL    O7133149   0.881   2.152   1.313 -0.1618 -0.0122 -0.0049
  150MOL    C7233150   1.030   2.057   1.158 -0.0193  0.1232 -0.4047
  150MOL    H7333151   1.141   2.231   1.584 -0.2539 -0.7925  0.6073
  150MOL    H7433152   0.987   2.149   1.577  1.6702  0.4860  2.3448
  150MOL    H7533153   1.190   2.182   1.357  0.0038  0.4042  2.8095
  150MOL    H7633154   1.064   2.135   1.089  0.8402  2.3427  2.4163
  150MOL    H7733155   1.106   1.979   1.164  0.2317  0.3716 -0.3153
  150MOL    H7833156   0.946   2.008   1.109 -1.1832  1.8268 -0.1704
  150MOL    C7933157   1.142   1.990   1.447  0.2133  0.1197 -0.0193
  150MOL    C8033158   1.251   1.968   1.552  0.3887 -0.5574 -0.4259
  150MOL    C8133159   1.376   2.055   1.513 -0.1061 -0.5332  0.2968
  150MOL    O8233160   1.450   2.027   1.419 -0.2447  0.4340  0.4276
  150MOL    C8333161   1.411   2.166   1.602 -0.3058 -0.4241  1.0722
  150MOL    H8433162   1.159   1.918   1.367 -0.0077  1.5172 -1.3371
  150MOL    H8533163   1.050   1.950   1.489 -0.2013 -0.2446 -1.2680
  150MOL    H8633164   1.219   2.011   1.647  0.3616 -0.6191 -0.4073
  150MOL    H8733165   1.466   2.124   1.686  2.1583  0.4541 -0.0687
  150MOL    H8833166   1.322   2.211   1.646  0.7534  0.0897  2.7178
  150MOL    H8933167   1.473   2.237   1.548 -1.3848 -1.3854 -1.5044
  150MOL    C9033168   1.287   1.823   1.584  0.0645  0.0760 -0.0832
  150MOL    C9133169   1.376   1.800   1.707 -0.5993  0.4304 -0.0793
  150MOL    C9233170   1.295   1.812   1.836  0.0018 -0.0386  0.5082
  150MOL    O9333171   1.325   1.888   1.932 -0.0650  0.4154  0.2894
  150MOL    C9433172   1.190   1.704   1.857 -0.0601  0.2370 -0.1685
  150MOL    H9533173   1.193   1.773   1.610  0.0841  0.3206  0.4736
  150MOL    H9633174   1.322   1.766   1.498 -0.0377 -0.5295  0.2660
  150MOL    H9733175   1.450   1.879   1.702 -0.7441  0.4959 -1.1694
  150MOL    H9833176   1.219   1.653   1.949 -0.4360  3.1652  1.6412
  150MOL    H9933177   1.089   1.743   1.873 -0.1188  0.0707 -0.1291
  150MOL   H10033178   1.195   1.633   1.775  0.1855  1.1097 -0.9123
  150MOL   C10133179   1.455   1.660   1.695 -0.1954 -0.1122  0.4263
  150MOL   C10233180   1.542   1.620   1.818  0.6023  0.0230  0.2612
  150MOL   C10333181   1.674   1.695   1.816 -0.4210 -0.0101 -0.5119
  150MOL   O10433182   1.772   1.648   1.761 -0.4908  0.5835 -0.3808
  150MOL   C10533183   1.685   1.831   1.885  0.2822  0.3991  0.6127
  150MOL   H10633184   1.389   1.583   1.656 -0.3178  0.9308 -1.4870
  150MOL   H10733185   1.529   1.689   1.620 -0.4402 -0.0777  0.1995
  150MOL   H10833186   1.491   1.649   1.910  0.4494 -0.3680  0.3032
  150MOL   H10933187   1.670   1.900   1.802 -0.8035 -1.2197 -0.5686
  150MOL   H11033188   1.604   1.849   1.956  0.5897  3.1511  0.2990
  150MOL   H11133189   1.783   1.858   1.924  0.4048 -1.4609  1.6695
  150MOL   C11233190   1.559   1.469   1.832  0.2285  0.0447  0.0378
  150MOL   C11333191   1.576   1.417   1.978  0.5090 -0.2228 -0.0005
  150MOL   C11433192   1.455   1.437   2.073  0.4161 -0.2172  0.0632
  150MOL   O11533193   1.450   1.534   2.149  0.2047 -0.2117  0.2599
  150MOL   C11633194   1.342   1.337   2.071  0.5715 -0.3799  0.3193
  150MOL   H11733195   1.636   1.445   1.759 -0.7711 -0.2822 -0.9079
  150MOL   H11833196   1.474   1.416   1.791  0.0357 -1.5304  2.3424
  150MOL   H11933197   1.593   1.314   1.949  0.3141  0.2342 -1.7785
  150MOL   H12033198   1.254   1.371   2.124  0.7771 -1.7765  1.6090
  150MOL   H12133199   1.306   1.324   1.969  0.7442  0.8759  0.0897
  150MOL   H12233200   1.372   1.242   2.116 -1.9217 -0.9250  0.8703
  150MOL   C12333201   1.709   1.459   2.050  0.7101 -0.0144 -0.1123
  150MOL   C12433202   1.756   1.356   2.169  0.0890 -0.8151 -0.3830
  150MOL   C12533203   1.831   1.438   2.269 -0.0148 -0.3038 -0.7323
  150MOL   O12633204   1.807   1.427   2.390  0.0222 -0.1365 -0.3195
  150MOL   C12733205   1.936   1.530   2.221  0.2707  0.3887 -0.0577
  150MOL   H12833206   1.697   1.557   2.096 -0.2326  0.2914 -0.9964
  150MOL   H12933207   1.786   1.473   1.974 -0.1200  0.4044 -0.8903
  150MOL   H13033208   1.669   1.315   2.220 -0.5944 -0.6001 -1.3605
  150MOL   H13133209   1.987   1.586   2.300  1.2497 -0.4823 -0.0655
  150MOL   H13233210   1.891   1.602   2.153  1.1926  1.6625  0.6635
  150MOL   H13333211   2.011   1.480   2.161 -1.3035 -3.5619  1.1341
  150MOL   C13433212   1.840   1.244   2.105 -0.3155 -0.0090 -0.3691
  150MOL   C13533213   1.804   1.099   2.148  0.8231  0.1115  0.1869
  150MOL   C13633214   1.807   1.073   2.301 -0.1274  1.1496 -0.0366
  150MOL   O13733215   1.720   1.014   2.362  0.3468  0.0708 -0.9033
  150MOL   C13833216   1.936   1.109   2.382  0.3685  0.0225  0.4418
  150MOL   H13933217   1.946   1.254   2.130 -0.5093  1.3567 -0.0303
  150MOL   H14033218   1.843   1.244   1.996  1.2344  0.8072 -0.3373
  150MOL   H14133219   1.888   1.051   2.099  0.5559 -0.7554  0.5575
  150MOL   H14233220   1.982   1.204   2.354  0.5437 -0.7475 -1.9917
  150MOL   H14333221   2.008   1.029   2.366 -2.3920 -2.1354 -1.8771
  150MOL   H14433222   1.917   1.114   2.489 -0.5834  2.2841  0.2048
  150MOL   C14533223   1.671   1.049   2.088 -0.3011  0.3616 -1.1002
  150MOL   C14633224   1.660   1.044   1.939  0.0366  0.0158  1.3297
  150MOL   C14733225   1.759   0.940   1.887  0.7881 -0.0427 -0.0336
  150MOL   O14833226   1.819   0.960   1.781  0.0045  0.0382  0.5640
  150MOL   C14933227   1.780   0.804   1.961  0.1418  0.0382  0.4997
  150MOL   H15033228   1.597   1.120   2.126  0.2753  0.3190  0.1418
  150MOL   H15133229   1.641   0.955   2.134  0.0403  1.4986  1.5236
  150MOL   H15233230   1.679   1.140   1.890  1.5527 -0.8176  0.2614
  150MOL   H15333231   1.834   0.729   1.902  0.1999  2.0212 -2.0529
  150MOL   H15433232   1.849   0.821   2.043  0.2836 -1.8333  0.7896
  150MOL   H15533233   1.688   0.758   1.996 -0.0026  0.3283  0.4983
  150MOL   C15633234   1.510   1.012   1.894  0.1491  0.0095 -0.1355
  150MOL   C15733235   1.490   0.981   1.743  0.5779 -0.2606  0.5211
  150MOL   C15833236   1.526   1.086   1.638 -0.4328 -0.9210  1.1931
  150MOL   O15933237   1.498   1.208   1.654 -0.1176 -0.2525 -0.2057
  150MOL   C16033238   1.596   1.037   1.510  0.6124  0.3568  0.1242
  150MOL   H16133239   1.476   0.925   1.950 -2.5866 -0.1335 -1.9258
  150MOL   H16233240   1.436   1.089   1.917  0.2899  0.7932 -2.1694
  150MOL   H16333241   1.554   0.897   1.715  1.1988  0.4988 -0.3654
  150MOL   H16433242   1.694   1.007   1.548 -0.1811 -0.5837  1.4893
  150MOL   H16533243   1.595   1.121   1.442 -1.6402  0.0318 -0.2866
  150MOL   H16633244   1.543   0.955   1.460  3.9060 -1.2643 -0.8689
  150MOL   C16733245   1.343   0.930   1.724  0.5617 -0.3167  0.4922
  150MOL   C16833246   1.225   1.025   1.692 -0.1182 -0.2394 -0.4281
  150MOL   C16933247   1.174   1.103   1.815  0.1495  1.0869 -0.1502
  150MOL   O17033248   1.172   1.047   1.925  0.2500 -0.1250 -0.1027
  150MOL   C17133249   1.127   1.237   1.786  0.2693  0.0416  0.6356
  150MOL   H17233250   1.356   0.852   1.649  1.2260 -0.6684  0.9753
  150MOL   H17333251   1.324   0.881   1.819  1.8918 -1.5202  0.1514
  150MOL   H17433252   1.273   1.094   1.624 -0.9643  0.2259 -0.5526
  150MOL   H17533253   1.081   1.280   1.875 -1.6432 -1.9025  0.6268
  150MOL   H17633254   1.043   1.243   1.716  1.5580  1.3788 -0.8613
  150MOL   H17733255   1.219   1.281   1.748  0.7028 -1.2460  0.1391
  150MOL   C17833256   1.112   0.968   1.602 -0.4339 -0.1372 -0.6675
  150MOL   C17933257   1.014   0.867   1.672 -0.1933 -0.3045 -0.2205
  150MOL   C18033258   1.071   0.732   1.694 -0.4353  0.1774  0.6455
  150MOL   O18133259   1.095   0.654   1.605 -0.2618  0.3709  0.3365
  150MOL   C18233260   1.109   0.692   1.835  0.6403 -0.0946 -0.4183
  150MOL   H18333261   1.045   1.047   1.569  0.1215  1.3369  1.5844
  150MOL   H18433262   1.152   0.924   1.511  2.1996  0.2449  0.2684
  150MOL   H18533263   0.988   0.906   1.771  1.7555  0.0432  0.1682
  150MOL   H18633264   1.186   0.616   1.848 -0.2925 -0.7909  1.1324
  150MOL   H18733265   1.029   0.648   1.894  0.2048  0.4913 -0.5662
  150MOL   H18833266   1.130   0.780   1.896 -0.6370 -0.6583  0.8591
  150MOL   C18933267   0.889   0.845   1.573  0.0943  0.6349  0.3778
  150MOL   C19033268   0.775   0.748   1.621 -0.3456 -0.7810 -0.2338
  150MOL   C19133269   0.685   0.813   1.732 -0.7110  0.1065  0.8421
  150MOL   O19233270   0.623   0.918   1.709  0.0999  0.4367  0.0798
  150MOL   C19333271   0.654   0.729   1.852  0.3297 -0.4271  0.2612
  150MOL   H19433272   0.855   0.944   1.543  2.1944  1.9321  2.0999
  150MOL   H19533273   0.918   0.808   1.475 -1.0043 -2.7023  1.2280
  150MOL   H19633274   0.827   0.660   1.662 -0.6499 -1.5224 -1.4159
  150MOL   H19733275   0.562   0.680   1.819  0.4488 -0.3085 -0.2556
  150MOL   H19833276   0.723   0.649   1.879  1.4215  0.6124  0.5868
  150MOL   H19933277   0.644   0.796   1.938 -0.3388  1.2351 -1.0871
  150MOL   C20033278   0.684   0.690   1.507  0.4119 -0.0308  0.8888
  150MOL   C20133279   0.726   0.550   1.446 -0.5120 -0.5399  0.1952
  150MOL   C20233280   0.655   0.546   1.304  0.3177  0.2197  0.4835
  150MOL   O20333281   0.539   0.508   1.299  0.5678 -0.3481 -0.1669
  150MOL   C20433282   0.725   0.593   1.173  0.2341 -0.1707 -0.1156
  150MOL   H20533283   0.578   0.683   1.533  0.1558 -0.2484 -0.1807
  150MOL   H20633284   0.678   0.767   1.430  0.1377 -1.1025 -0.1840
  150MOL   H20733285   0.834   0.557   1.434 -0.5320  0.1030  0.3628
  150MOL   H20833286   0.659   0.591   1.086  1.2175  1.7092 -0.9299
  150MOL   H20933287   0.756   0.697   1.181 -4.2056  1.4681 -2.4366
  150MOL   H21033288   0.815   0.535   1.154 -0.3937 -1.1357 -0.1477
  150MOL   C21133289   0.683   0.436   1.548  0.3235  0.3073 -0.5983
  150MOL   C21233290   0.748   0.302   1.512 -0.2474  0.1819 -0.0277
  150MOL   C21333291   0.896   0.307   1.516  1.1917 -0.1124 -0.3226
  150MOL   O21433292   0.950   0.297   1.406 -0.1081  1.0458  0.2943
  150MOL   C21533293   0.971   0.334   1.642 -0.3923  0.2776 -0.4874
  150MOL   H21633294   0.710   0.460   1.651 -1.8758 -0.0215  0.0845
  150MOL   H21733295   0.574   0.430   1.559  0.0197  0.3726 -3.2453
  150MOL   H21833296   0.715   0.257   1.419 -1.4159  1.5752 -0.3125
  150MOL   H21933297   0.913   0.396   1.710  0.4118  0.2980  0.1983
  150MOL   H22033298   0.992   0.240   1.695 -0.4989 -0.5255 -1.8407
  150MOL   H22133299   1.070   0.372   1.617 -0.0809  0.1385  0.5024
  150MOL   H22233300   0.724   0.227   1.587  0.9049  0.1476  0.3153
  151MOL     C133301   3.188   3.716   4.127  0.0279 -0.3425  0.1434
  151MOL     C233302   3.208   3.822   4.227 -0.0988  0.0653 -0.3394
  151MOL     C333303   3.139   3.796   4.359  0.0825  0.0632 -0.0910
  151MOL     O433304   3.195   3.730   4.452 -0.0433  0.2168 -0.5384
  151MOL     C533305   3.007   3.869   4.380 -0.0370 -0.3929 -0.8955
  151MOL     H633306   3.082   3.697   4.109 -0.0444 -1.0263  1.2234
  151MOL     H733307   3.225   3.618   4.156  0.8489 -0.5549 -1.5299
  151MOL     H833308   3.167   3.920   4.199 -0.0637  0.3932  0.7409
  151MOL     H933309   3.033   3.975   4.383 -0.6931 -0.2567  3.5682
  151MOL    H1033310   2.950   3.838   4.292  1.3211 -1.5470 -1.3875
  151MOL    H1133311   2.953   3.852   4.473  2.3695 -1.0944  0.4114
  151MOL    H1233312   3.224   3.736   4.026 -0.0079 -2.0140 -0.2215
  151MOL    C1333313   3.357   3.850   4.243  0.4537  0.4728  0.3220
  151MOL    C1433314   3.394   3.988   4.298 -0.2775  0.0531  0.1020
  151MOL    C1533315   3.361   4.105   4.200  0.6611  0.7384  0.0627
  151MOL    O1633316   3.273   4.189   4.236  0.3831  0.3045  0.1737
  151MOL    C1733317   3.420   4.102   4.057  0.0202 -0.4742  0.2902
  151MOL    H1833318   3.407   3.770   4.296  1.2890 -0.8408 -2.3521
  151MOL    H1933319   3.400   3.846   4.143  1.5796 -0.6943  0.8467
  151MOL    H2033320   3.325   3.997   4.383  1.6543  0.0994  1.7138
  151MOL    H2133321   3.521   4.141   4.061  0.1125 -0.5865 -0.8734
  151MOL    H2233322   3.435   4.002   4.016  0.6278 -0.8698  1.4634
  151MOL    H2333323   3.352   4.161   3.996  2.1967  0.5679 -1.1667
  151MOL    C2433324   3.539   3.993   4.343 -0.1303  0.0404  0.0985
  151MOL    C2533325   3.569   4.092   4.468 -0.4584  0.0558  1.1077
  151MOL    C2633326   3.498   4.045   4.597 -0.4637 -0.0605  0.0097
  151MOL    O2733327   3.406   4.117   4.645 -0.1384 -0.3854 -0.2809
  151MOL    C2833328   3.527   3.908   4.656 -0.2619  0.7172 -0.1992
  151MOL    H2933329   3.580   3.896   4.371 -0.1363 -0.1639 -0.5962
  151MOL    H3033330   3.603   4.032   4.264  0.8717  0.6797  1.2100
  151MOL    H3133331   3.535   4.191   4.436 -2.6646 -0.7943  0.7383
  151MOL    H3233332   3.590   3.850   4.587  0.3640 -1.5298  2.1804
  151MOL    H3333333   3.598   3.921   4.738  0.0590 -0.1053 -0.3371
  151MOL    H3433334   3.437   3.852   4.680  1.1004 -1.6699 -0.4285
  151MOL    C3533335   3.721   4.104   4.495  0.4180  0.3618  0.2120
  151MOL    C3633336   3.752   4.208   4.606 -0.0689  0.3107 -0.3746
  151MOL    C3733337   3.890   4.173   4.670 -0.2788 -0.6082  0.4470
  151MOL    O3833338   3.999   4.195   4.613 -0.4120  0.6453  0.2410
  151MOL    C3933339   3.873   4.115   4.809  0.2243  0.6263 -0.3281
  151MOL    H4033340   3.783   4.135   4.411  0.5660  0.1670  0.2486
  151MOL    H4133341   3.768   4.008   4.517 -1.3884 -0.3392  1.1867
  151MOL    H4233342   3.677   4.204   4.685 -1.5258  0.5572 -1.7282
  151MOL    H4333343   3.889   4.196   4.880  0.7416 -0.3002  0.6293
  151MOL    H4433344   3.947   4.035   4.808 -0.0468  0.3418  1.0826
  151MOL    H4533345   3.771   4.082   4.830  0.8112 -1.3747 -0.5900
  151MOL    C4633346   3.739   4.362   4.555  1.0024  0.2675 -0.1104
  151MOL    C4733347   3.767   4.465   4.664 -0.7287 -0.1204 -0.0869
  151MOL    C4833348   3.882   4.564   4.617  0.3156  0.1683 -0.0547
  151MOL    O4933349   3.869   4.635   4.518  0.2838 -0.9385  0.4546
  151MOL    C5033350   4.016   4.563   4.690  0.0034  0.2487 -0.0074
  151MOL    H5133351   3.636   4.380   4.523  0.9788  0.9493  0.3350
  151MOL    H5233352   3.817   4.375   4.481  0.9423 -0.9426 -0.4098
  151MOL    H5333353   3.814   4.413   4.748  0.7298 -1.0479 -1.4518
  151MOL    H5433354   4.032   4.461   4.726 -1.1044 -0.2614 -0.9080
  151MOL    H5533355   4.097   4.586   4.620  0.4165 -1.2000 -0.0291
  151MOL    H5633356   4.018   4.642   4.765  3.1135  0.4328 -0.1926
  151MOL    C5733357   3.647   4.545   4.712  0.6729  0.1766 -1.0812
  151MOL    C5833358   3.537   4.461   4.790 -0.5311  0.5522 -0.7949
  151MOL    C5933359   3.588   4.361   4.901  0.5473 -0.9330 -0.6860
  151MOL    O6033360   3.687   4.395   4.960 -0.1854 -0.4609  0.2717
  151MOL    C6133361   3.502   4.244   4.946 -0.1963 -0.3317  0.2434
  151MOL    H6233362   3.608   4.582   4.617 -1.6141  0.1004 -0.2085
  151MOL    H6333363   3.678   4.632   4.770 -1.3877  0.0186  0.3169
  151MOL    H6433364   3.500   4.387   4.719 -1.4688  2.1740 -2.0373
  151MOL    H6533365   3.399   4.259   4.914  0.3356  0.1806 -1.2932
  151MOL    H6633366   3.545   4.153   4.903  2.1411  1.8308 -2.2264
  151MOL    H6733367   3.497   4.235   5.054  0.5048  2.0863  0.5193
  151MOL    C6833368   3.423   4.550   4.838  0.8929  0.2442 -0.0215
  151MOL    C6933369   3.288   4.559   4.761 -0.2640  0.7633 -0.0705
  151MOL    C7033370   3.303   4.585   4.609 -0.1686 -0.1945  0.0931
  151MOL    O7133371   3.306   4.693   4.557  0.8467 -0.3457  0.7230
  151MOL    C7233372   3.319   4.464   4.519 -0.1404  0.3106  0.5835
  151MOL    H7333373   3.401   4.524   4.942 -1.6724  1.2385 -0.2827
  151MOL    H7433374   3.450   4.655   4.847  1.0821  0.2891 -1.0809
  151MOL    H7533375   3.249   4.460   4.786  0.9716  0.0939 -0.7033
  151MOL    H7633376   3.423   4.446   4.492  0.1649  0.1043  1.8478
  151MOL    H7733377   3.277   4.376   4.567 -0.5381 -0.5365 -1.2645
  151MOL    H7833378   3.266   4.486   4.426  2.9042  1.2581 -1.0058
  151MOL    C7933379   3.202   4.669   4.825 -0.2443 -0.3727  0.4534
  151MOL    C8033380   3.050   4.625   4.825  0.1805 -0.0821  0.0772
  151MOL    C8133381   2.957   4.726   4.750 -0.1303  0.7085  0.0314
  151MOL    O8233382   2.906   4.821   4.809  0.2816  0.4783  0.5247
  151MOL    C8333383   2.935   4.696   4.602 -0.2826  0.4682  0.0441
  151MOL    H8433384   3.215   4.768   4.782 -0.3354  0.0682  1.4196
  151MOL    H8533385   3.246   4.694   4.921 -0.6053  1.5816  0.1310
  151MOL    H8633386   3.053   4.536   4.763 -0.6373 -0.6312  0.8177
  151MOL    H8733387   2.902   4.595   4.574 -1.1644  0.6612  0.3845
  151MOL    H8833388   3.031   4.707   4.552 -0.3535 -1.7988 -0.6827
  151MOL    H8933389   2.861   4.765   4.562  0.2336  0.2831 -1.2809
  151MOL    C9033390   2.984   4.568   4.954 -0.4825 -0.2398  0.9528
  151MOL    C9133391   3.032   4.426   5.007  0.2275 -0.6211  0.1045
  151MOL    C9233392   3.153   4.433   5.106 -0.1504 -0.1519 -0.4510
  151MOL    O9333393   3.250   4.363   5.085  0.1754  0.1460  0.2222
  151MOL    C9433394   3.150   4.532   5.227  0.7690  0.1123  1.0157
  151MOL    H9533395   2.993   4.641   5.034 -0.2201  0.3737  0.3614
  151MOL    H9633396   2.876   4.573   4.936 -0.0558  2.0364 -1.1450
  151MOL    H9733397   3.075   4.363   4.929 -1.2780  0.0277 -1.2809
  151MOL    H9833398   3.175   4.636   5.205  2.0519 -0.6200 -1.0748
  151MOL    H9933399   3.054   4.534   5.278  0.0711 -0.2215 -0.2644
  151MOL   H10033400   3.228   4.493   5.292  0.3288 -2.8043 -0.1226
  151MOL   C10133401   2.906   4.359   5.076 -0.4261 -0.5575 -0.2120
  151MOL   C10233402   2.930   4.210   5.104 -0.3695 -0.9106 -0.3859
  151MOL   C10333403   2.898   4.127   4.983 -0.3881  0.6470  0.4430
  151MOL   O10433404   2.793   4.062   4.974  0.3601 -0.2298  0.3589
  151MOL   C10533405   3.005   4.124   4.878  0.1465 -0.2610  0.3183
  151MOL   H10633406   2.885   4.419   5.165 -1.5755 -0.9463 -0.2142
  151MOL   H10733407   2.823   4.380   5.008 -0.5673  0.6727  0.3415
  151MOL   H10833408   3.037   4.195   5.113 -0.2159 -0.1783 -0.8732
  151MOL   H10933409   3.038   4.021   4.864  0.6127 -0.0948  0.1760
  151MOL   H11033410   2.962   4.149   4.782  2.1187 -1.1977 -0.8410
  151MOL   H11133411   3.093   4.185   4.898 -1.3978  1.1482  3.0079
  151MOL   C11233412   2.858   4.163   5.230  0.1749  0.0599  0.0003
  151MOL   C11333413   2.899   4.015   5.257 -0.3232  0.9958 -0.2967
  151MOL   C11433414   2.778   3.931   5.305 -0.0613 -0.1256 -0.0462
  151MOL   O11533415   2.730   3.939   5.420 -0.2927  0.0775 -0.0266
  151MOL   C11633416   2.700   3.844   5.211 -0.3009  0.2937 -0.4982
  151MOL   H11733417   2.752   4.182   5.214  0.2574  1.3389  0.9069
  151MOL   H11833418   2.893   4.240   5.299 -1.2738  0.2961  0.4851
  151MOL   H11933419   2.947   3.959   5.176  0.0679  0.8942  0.0013
  151MOL   H12033420   2.718   3.741   5.243 -1.2393  0.1865 -0.3114
  151MOL   H12133421   2.594   3.869   5.211 -0.3180  0.2644 -1.8817
  151MOL   H12233422   2.742   3.852   5.111  0.4878  1.5538 -0.0779
  151MOL   C12333423   3.003   4.035   5.362 -0.2356  1.1179  0.1827
  151MOL   C12433424   3.065   3.899   5.417 -0.5390 -0.2764 -0.4812
  151MOL   C12533425   3.124   3.912   5.562 -0.4128  0.0093 -0.2127
  151MOL   O12633426   3.249   3.923   5.580 -0.5459 -0.3259  0.2270
  151MOL   C12733427   3.026   3.926   5.675 -0.7193 -0.6138 -0.5734
  151MOL   H12833428   2.970   4.092   5.448 -0.6807 -0.2097  0.9091
  151MOL   H12933429   3.086   4.099   5.332  0.8624 -0.4010 -0.1297
  151MOL   H13033430   2.986   3.824   5.424 -1.5061  0.7338 -0.3424
  151MOL   H13133431   2.924   3.948   5.642 -1.0870 -2.6373 -0.8665
  151MOL   H13233432   3.056   4.003   5.746 -0.7018 -0.0516 -1.1887
  151MOL   H13333433   3.030   3.829   5.724  0.1746 -0.4860 -0.3783
  151MOL   C13433434   3.178   3.854   5.315  0.6287 -0.4410  0.0643
  151MOL   C13533435   3.218   3.710   5.313  0.4558  0.1143 -0.2268
  151MOL   C13633436   3.107   3.614   5.273  0.2695 -0.0537 -0.0059
  151MOL   O13733437   2.996   3.651   5.235 -0.2609 -0.1079 -0.6464
  151MOL   C13833438   3.135   3.469   5.269  0.0026  0.6862  0.2477
  151MOL   H13933439   3.267   3.905   5.353  0.2694  0.1568  0.1163
  151MOL   H14033440   3.151   3.906   5.223 -0.6486 -0.5692  0.3570
  151MOL   H14133441   3.246   3.679   5.414  3.2210 -1.2283 -1.3474
  151MOL   H14233442   3.047   3.416   5.304  0.4749  0.4882  1.1413
  151MOL   H14333443   3.210   3.444   5.344 -0.1996 -2.4763 -0.5416
  151MOL   H14433444   3.165   3.442   5.167  0.8165  2.0685  0.1159
  151MOL   C14533445   3.358   3.686   5.241 -0.5159  0.5685  0.3411
  151MOL   C14633446   3.379   3.700   5.090 -0.4649 -0.0645  0.0897
  151MOL   C14733447   3.378   3.846   5.051 -0.0030  0.0058 -0.2120
  151MOL   O14833448   3.476   3.914   5.078  0.0012 -0.9763  0.6734
  151MOL   C14933449   3.258   3.894   4.975  0.4250  0.2931 -0.2509
  151MOL   H15033450   3.396   3.587   5.266 -2.1688 -0.6222 -1.6668
  151MOL   H15133451   3.427   3.754   5.290 -0.3887  0.7344 -0.0627
  151MOL   H15233452   3.312   3.638   5.031 -1.3887  0.7434  0.2650
  151MOL   H15333453   3.294   3.916   4.874  4.6901 -3.2584  0.3266
  151MOL   H15433454   3.176   3.824   4.960  1.0412 -0.5445  0.3415
  151MOL   H15533455   3.216   3.982   5.024 -1.1319 -0.6747  0.1609
  151MOL   C15633456   3.518   3.636   5.057 -0.5642  0.4449  0.2937
  151MOL   C15733457   3.559   3.599   4.912  0.5070 -0.9300  0.5530
  151MOL   C15833458   3.449   3.515   4.845 -0.0847  1.0571  0.4144
  151MOL   O15933459   3.400   3.415   4.896  0.4525  0.1105 -0.6671
  151MOL   C16033460   3.389   3.575   4.719 -0.4056 -0.2219 -0.4625
  151MOL   H16133461   3.599   3.703   5.084 -0.4808 -0.2071  1.7648
  151MOL   H16233462   3.540   3.552   5.124  2.0184  0.1726 -0.8460
  151MOL   H16333463   3.569   3.695   4.861 -0.6861 -0.2852  1.4901
  151MOL   H16433464   3.379   3.497   4.644  0.9941  0.3316 -1.2351
  151MOL   H16533465   3.452   3.654   4.679  2.5166 -2.7451 -1.0043
  151MOL   H16633466   3.287   3.614   4.728 -0.7653 -1.0683 -0.8060
  151MOL   C16733467   3.701   3.533   4.906 -0.3937 -0.3127  0.3774
  151MOL   C16833468   3.749   3.488   4.761 -0.5476  0.8016  0.0221
  151MOL   C16933469   3.884   3.421   4.774  0.6938 -0.1007 -0.0365
  151MOL   O17033470   3.993   3.478   4.772  0.1099 -0.2399 -0.3412
  151MOL   C17133471   3.886   3.271   4.812  0.0463 -0.1205  0.2804
  151MOL   H17233472   3.776   3.596   4.955 -0.4979 -0.0932  0.2575
  151MOL   H17333473   3.699   3.445   4.970 -1.1796 -0.3349  0.3220
  151MOL   H17433474   3.692   3.401   4.726 -1.1022  1.0016  0.4280
  151MOL   H17533475   3.866   3.206   4.727  1.2764 -0.4818  0.2672
  151MOL   H17633476   3.829   3.254   4.903  0.7685  0.5306  0.8562
  151MOL   H17733477   3.985   3.247   4.848  0.3023 -0.3496 -0.5604
  151MOL   C17833478   3.756   3.595   4.646 -0.4923 -0.9894  0.5782
  151MOL   C17933479   3.774   3.528   4.504  0.8455  0.0425  0.1575
  151MOL   C18033480   3.818   3.627   4.395  0.1897 -0.1320  0.1442
  151MOL   O18133481   3.791   3.751   4.401  0.2668  0.2042  0.0218
  151MOL   C18233482   3.898   3.572   4.286  0.2962 -0.4004 -0.0361
  151MOL   H18333483   3.659   3.644   4.646 -0.0776 -0.1675  1.7760
  151MOL   H18433484   3.834   3.663   4.680 -2.3860  0.8306  1.3466
  151MOL   H18533485   3.843   3.444   4.513  1.9056  0.8093 -0.7113
  151MOL   H18633486   3.963   3.650   4.246 -1.4270  0.0994 -1.9518
  151MOL   H18733487   3.849   3.513   4.209 -1.4778  1.0688 -0.0474
  151MOL   H18833488   3.968   3.498   4.326 -0.0983 -0.1142  1.1941
  151MOL   C18933489   3.637   3.464   4.463 -0.8938 -0.5803 -1.2002
  151MOL   C19033490   3.635   3.384   4.332  0.0273  0.2612 -0.0160
  151MOL   C19133491   3.729   3.260   4.325  0.1063  0.0109 -0.1181
  151MOL   O19233492   3.720   3.175   4.413  0.3526 -0.4117  0.9105
  151MOL   C19333493   3.829   3.253   4.213 -0.0526  0.2414 -0.4277
  151MOL   H19433494   3.620   3.384   4.535  0.2503 -0.7277 -1.0828
  151MOL   H19533495   3.554   3.535   4.469 -1.2482 -1.1808  1.9724
  151MOL   H19633496   3.670   3.446   4.249 -0.2294 -0.7284 -0.8722
  151MOL   H19733497   3.928   3.284   4.247 -1.1927  1.0795  2.2822
  151MOL   H19833498   3.838   3.150   4.180 -0.5545  0.2296 -0.5246
  151MOL   H19933499   3.790   3.307   4.127  4.2602 -1.4100 -3.6064
  151MOL   C20033500   3.487   3.348   4.304 -0.9537  1.5890 -0.4684
  151MOL   C20133501   3.458   3.287   4.168 -0.0502  0.7964  0.6254
  151MOL   C20233502   3.455   3.388   4.053  0.3202 -0.1135  0.0527
  151MOL   O20333503   3.399   3.496   4.068  0.1073  0.5486  0.0201
  151MOL   C20433504   3.535   3.355   3.926 -0.2819  0.0952  0.1057
  151MOL   H20533505   3.463   3.273   4.379  1.1011  1.8674  0.4941
  151MOL   H20633506   3.428   3.437   4.324 -1.0839  0.6057  3.8244
  151MOL   H20733507   3.539   3.218   4.147 -1.4542 -1.0023  0.9628
  151MOL   H20833508   3.641   3.352   3.954 -0.7938 -0.4018  2.0805
  151MOL   H20933509   3.493   3.269   3.875  2.0233 -0.7588 -0.4459
  151MOL   H21033510   3.524   3.439   3.858 -1.3299 -0.2584 -0.1637
  151MOL   C21133511   3.327   3.217   4.182  0.8404 -0.5883 -0.5717
  151MOL   C21233512   3.276   3.163   4.045  0.4824  0.5901 -0.3517
  151MOL   C21333513   3.145   3.089   4.049 -0.2442  0.3930 -0.2550
  151MOL   O21433514   3.071   3.094   4.145 -0.3765  0.2188 -0.6023
  151MOL   C21533515   3.095   3.009   3.927 -0.3439  0.2520 -0.4990
  151MOL   H21633516   3.350   3.136   4.251  0.6310  0.1993  0.4319
  151MOL   H21733517   3.253   3.277   4.235  1.7486 -0.5504  0.6737
  151MOL   H21833518   3.349   3.096   3.999  1.7484  3.1677 -2.2275
  151MOL   H21933519   3.158   2.924   3.900 -1.0278 -0.5368  0.3449
  151MOL   H22033520   2.996   2.967   3.946  0.2028 -1.1816 -0.7251
  151MOL   H22133521   3.095   3.070   3.837 -2.2938  0.8189 -0.1458
  151MOL   H22233522   3.251   3.243   3.975 -1.8545 -1.1074 -1.5218
  152MOL     C133523   7.671   5.839   3.333  0.1288 -0.4015 -0.2358
  152MOL     C233524   7.581   5.957   3.293 -0.1673  0.3094 -0.1794
  152MOL     C333525   7.448   5.892   3.244 -0.0278 -0.2814 -0.0083
  152MOL     O433526   7.385   5.817   3.316 -0.0064 -0.0284 -0.1393
  152MOL     C533527   7.407   5.923   3.103  0.1479  0.3842  0.2647
  152MOL     H633528   7.664   5.765   3.253  1.0036 -0.8990  0.1432
  152MOL     H733529   7.642   5.786   3.424 -1.2452  0.0501 -0.3975
  152MOL     H833530   7.631   6.002   3.207 -0.1755  3.4416  1.3587
  152MOL     H933531   7.466   5.866   3.031 -0.7366  2.9210 -2.6095
  152MOL    H1033532   7.301   5.897   3.102  0.3520 -0.4808 -1.4252
  152MOL    H1133533   7.422   6.029   3.080  0.4043  0.6734  1.6933
  152MOL    H1233534   7.774   5.875   3.335  0.6440 -1.8714  0.1903
  152MOL    C1333535   7.571   6.070   3.395  0.8912  0.4892  0.1094
  152MOL    C1433536   7.701   6.156   3.436 -0.7876 -0.5376 -0.1363
  152MOL    C1533537   7.669   6.258   3.549 -0.2481  0.3539 -0.8454
  152MOL    O1633538   7.744   6.262   3.646  0.0117  0.4189  0.3700
  152MOL    C1733539   7.551   6.351   3.534  0.2157 -0.7243 -0.3882
  152MOL    H1833540   7.489   6.138   3.370  0.1253 -0.4325  0.0583
  152MOL    H1933541   7.536   6.027   3.489  1.2326 -0.2521 -0.1019
  152MOL    H2033542   7.773   6.086   3.479  1.3026  1.7734  0.2155
  152MOL    H2133543   7.547   6.379   3.429  1.3998  1.2882  0.0764
  152MOL    H2233544   7.457   6.302   3.558 -0.0208 -0.8441 -1.5293
  152MOL    H2333545   7.568   6.441   3.592  0.7980  0.4906 -2.3953
  152MOL    C2433546   7.781   6.222   3.320 -0.4235  0.7637  0.4829
  152MOL    C2533547   0.054   6.302   3.350 -1.2514  0.3244 -0.3318
  152MOL    C2633548   0.158   6.219   3.436 -0.5446  0.0317 -0.5082
  152MOL    O2733549   0.180   6.101   3.410 -0.1944 -0.0419 -0.1274
  152MOL    C2833550   0.236   6.291   3.551  0.1443  0.5083  0.5824
  152MOL    H2933551   7.824   6.148   3.252 -1.7320 -0.7943  1.3140
  152MOL    H3033552   7.704   6.279   3.267 -0.2953  2.2318  1.8493
  152MOL    H3133553   0.026   6.399   3.392 -1.7094 -0.1910  0.5744
  152MOL    H3233554   0.217   6.398   3.549 -2.3953  0.0755  0.5738
  152MOL    H3333555   0.208   6.242   3.644 -0.2334  0.1110  0.2666
  152MOL    H3433556   0.344   6.279   3.538 -0.1524 -0.8298 -0.7871
  152MOL    C3533557   0.123   6.349   3.214  0.7886 -0.1477  0.7824
  152MOL    C3633558   0.026   6.402   3.102 -0.2071 -0.0818 -0.0957
  152MOL    C3733559   7.803   6.526   3.148  0.5635  0.4289 -0.4743
  152MOL    O3833560   7.841   6.614   3.225  0.5474  0.0404 -0.8383
  152MOL    C3933561   7.679   6.558   3.070  0.4693 -0.7460  0.0915
  152MOL    H4033562   0.187   6.270   3.175  0.3523  0.0077 -0.2555
  152MOL    H4133563   0.203   6.419   3.237  0.6862 -0.8220  3.4189
  152MOL    H4233564   7.806   6.327   3.087 -0.4201  0.0751  0.2288
  152MOL    H4333565   7.642   6.494   2.991 -3.3081  3.7397 -1.9761
  152MOL    H4433566   7.692   6.655   3.022 -1.1373 -0.0906  0.9352
  152MOL    H4533567   7.599   6.575   3.142 -0.2550  0.9035 -1.0738
  152MOL    C4633568   0.105   6.435   2.971  0.0077  0.2779  0.5793
  152MOL    C4733569   0.020   6.436   2.834 -0.1433  0.0903  0.6268
  152MOL    C4833570   0.101   6.495   2.711 -0.1702  0.7839  1.3078
  152MOL    O4933571   0.167   6.425   2.635 -0.1563  1.0990  0.6114
  152MOL    C5033572   0.089   6.648   2.697 -0.1567 -0.4326 -0.7578
  152MOL    H5133573   0.202   6.386   2.963 -0.3422 -0.6388  1.8300
  152MOL    H5233574   0.148   6.535   2.971 -0.2411  0.3981 -0.3720
  152MOL    H5333575   7.800   6.512   2.843 -1.0041 -0.5773 -0.7833
  152MOL    H5433576   0.122   6.706   2.783  0.9405  0.3303 -1.6698
  152MOL    H5533577   0.135   6.691   2.608  0.5181 -1.8101 -1.0830
  152MOL    H5633578   7.839   6.663   2.683 -0.1200  0.1733 -0.4157
  152MOL    C5733579   7.809   6.304   2.803  0.4549 -0.0006 -0.6591
  152MOL    C5833580   0.037   6.168   2.792 -0.0289  0.1528 -0.4233
  152MOL    C5933581   7.855   6.073   2.906 -0.0096  0.0449  0.1678
  152MOL    O6033582   7.735   6.033   2.913  0.5176 -0.5859 -0.6168
  152MOL    C6133583   0.104   6.026   2.999 -0.3918 -0.4958  0.1031
  152MOL    H6233584   7.758   6.304   2.707  2.1290 -0.6914 -1.5766
  152MOL    H6333585   7.730   6.288   2.876  1.8313 -0.8593  0.6804
  152MOL    H6433586   0.145   6.180   2.786  0.2122 -2.5979 -1.7936
  152MOL    H6533587   0.070   6.025   3.103  1.6490  1.9813  0.8592
  152MOL    H6633588   0.150   5.931   2.974  0.9166  0.3385 -0.7539
  152MOL    H6733589   0.166   6.116   2.998 -1.8257  0.5163  0.7133
  152MOL    C6833590   0.001   6.098   2.658 -0.3767  0.1569 -0.2943
  152MOL    C6933591   0.096   5.984   2.616 -0.4230  0.0383 -0.5358
  152MOL    C7033592   0.216   6.041   2.542  0.2224  0.1773 -0.3647
  152MOL    O7133593   0.208   6.070   2.423 -0.1640 -0.2763 -0.1071
  152MOL    C7233594   0.343   6.067   2.627 -0.4173 -0.6804 -0.2204
  152MOL    H7333595   7.756   6.061   2.650  0.2195 -1.5116 -0.3193
  152MOL    H7433596   0.004   6.172   2.578  1.6473  1.3535  0.8507
  152MOL    H7533597   0.129   5.951   2.714  0.1569  0.0330 -0.7296
  152MOL    H7633598   0.426   6.072   2.557 -0.4910  0.3451 -0.2407
  152MOL    H7733599   0.319   6.158   2.682 -1.7643 -1.5939  0.7391
  152MOL    H7833600   0.366   5.991   2.701  2.4105  0.7382  0.4031
  152MOL    C7933601   0.034   5.864   2.539  0.2314  0.1620  0.1367
  152MOL    C8033602   0.130   5.742   2.500  0.2851 -0.3873  0.8060
  152MOL    C8133603   0.085   5.674   2.370  0.4994 -0.3763 -0.3003
  152MOL    O8233604   7.851   5.595   2.358 -0.6102  0.6502  0.1362
  152MOL    C8333605   0.158   5.709   2.242  0.3493  0.1048 -0.0152
  152MOL    H8433606   0.021   5.911   2.441 -0.9400  0.3144  0.3577
  152MOL    H8533607   7.795   5.838   2.584 -0.3018  1.1052 -0.4414
  152MOL    H8633608   0.228   5.784   2.481 -0.3459  1.4699  1.4550
  152MOL    H8733609   0.247   5.769   2.258 -0.6506  1.6078  0.0340
  152MOL    H8833610   0.087   5.772   2.187 -2.5509 -1.9727  1.2357
  152MOL    H8933611   0.184   5.622   2.182 -1.3010  0.1077 -0.7746
  152MOL    C9033612   0.140   5.634   2.615  0.7390  0.1696 -0.1358
  152MOL    C9133613   0.235   5.513   2.594  0.0735  0.1004 -0.0635
  152MOL    C9233614   0.377   5.562   2.567 -0.0105  0.1003 -0.1458
  152MOL    O9333615   0.442   5.619   2.652 -0.2162  0.1593  0.1531
  152MOL    C9433616   0.424   5.542   2.428  0.3612  0.0883  0.0690
  152MOL    H9533617   0.177   5.687   2.703  2.1709 -1.3137  0.1731
  152MOL    H9633618   0.038   5.604   2.641  0.9741  1.8071  2.8937
  152MOL    H9733619   0.197   5.457   2.509 -0.6258  1.7272 -0.8595
  152MOL    H9833620   0.532   5.552   2.413  0.2210  1.3514 -0.2177
  152MOL    H9933621   0.395   5.445   2.389  0.4249  0.8211 -1.8630
  152MOL   H10033622   0.371   5.616   2.367 -1.3886 -0.6502  0.6911
  152MOL   C10133623   0.226   5.435   2.730 -0.4785  0.0480  0.4172
  152MOL   C10233624   0.329   5.318   2.746 -0.6182 -0.4271 -0.6899
  152MOL   C10333625   0.307   5.212   2.641  0.9257 -0.0222 -0.0385
  152MOL   O10433626   0.194   5.178   2.612  0.5336 -0.1319 -0.6833
  152MOL   C10533627   0.423   5.159   2.565 -0.3282 -0.6429  0.3645
  152MOL   H10633628   0.245   5.505   2.811  0.4020  0.7395 -0.3760
  152MOL   H10733629   0.122   5.404   2.742 -0.4077 -0.1313  0.5681
  152MOL   H10833630   0.428   5.363   2.732 -1.8417  2.2150 -1.0533
  152MOL   H10933631   0.382   5.128   2.469  1.4446  1.4432 -1.1096
  152MOL   H11033632   0.505   5.224   2.535  0.3662 -1.4644  0.4559
  152MOL   H11133633   0.463   5.073   2.619 -0.5539 -0.9959 -0.0193
  152MOL   C11233634   0.318   5.251   2.889 -0.1825 -0.0971  0.1497
  152MOL   C11333635   0.385   5.116   2.915  0.1663  0.1484  0.0535
  152MOL   C11433636   0.340   5.072   3.058  0.4250  0.8637 -0.5897
  152MOL   O11533637   0.332   5.153   3.152 -0.3061  0.2525  0.4974
  152MOL   C11633638   0.291   4.924   3.077 -0.1814  0.7114  0.7070
  152MOL   H11733639   0.211   5.236   2.904 -0.4822  1.7286 -0.0222
  152MOL   H11833640   0.334   5.321   2.971 -2.2742  0.8698 -0.2383
  152MOL   H11933641   0.346   5.042   2.845 -3.2190  0.2386  1.7214
  152MOL   H12033642   0.185   4.935   3.100 -0.5114  2.7599 -1.4928
  152MOL   H12133643   0.304   4.869   2.984  2.0452  1.0152  0.8300
  152MOL   H12233644   0.338   4.881   3.165  0.2990 -0.9038 -0.3061
  152MOL   C12333645   0.539   5.138   2.900  0.8791 -0.1539  0.2181
  152MOL   C12433646   0.618   5.016   2.846 -0.2646 -0.1242 -0.2898
  152MOL   C12533647   0.638   4.907   2.956 -0.4959 -0.3654 -0.9012
  152MOL   O12633648   0.655   4.935   3.077  0.5228  0.1398  0.1048
  152MOL   C12733649   0.635   4.763   2.905  0.3260 -0.6477 -0.4381
  152MOL   H12833650   0.576   5.188   2.990  0.7557  1.7286 -0.7580
  152MOL   H12933651   0.558   5.214   2.825  0.4350  0.9716  1.2217
  152MOL   H13033652   0.555   4.971   2.769  0.6226 -0.4427 -0.8388
  152MOL   H13133653   0.600   4.758   2.801  2.4811 -0.3147 -1.2059
  152MOL   H13233654   0.567   4.708   2.969 -0.6900  1.9499  0.7976
  152MOL   H13333655   0.733   4.715   2.905 -0.5116 -2.4313 -1.7730
  152MOL   C13433656   0.759   5.053   2.783 -0.8355 -0.6468  0.0270
  152MOL   C13533657   0.844   4.938   2.721  0.1777  0.3378 -0.0817
  152MOL   C13633658   0.782   4.889   2.589 -0.2366  0.0605  0.3551
  152MOL   O13733659   0.725   4.974   2.514  0.2633  0.2321 -0.2088
  152MOL   C13833660   0.787   4.740   2.563 -0.2334 -0.2265  0.1530
  152MOL   H13933661   0.822   5.083   2.867 -0.3576  0.1895 -0.6236
  152MOL   H14033662   0.760   5.144   2.724 -1.6516  0.3603  1.5384
  152MOL   H14133663   0.839   4.851   2.787  0.4633  0.9412  0.7395
  152MOL   H14233664   0.860   4.728   2.484  0.9507 -0.0384  1.2026
  152MOL   H14333665   0.695   4.691   2.532 -0.2598  0.4871 -0.9290
  152MOL   H14433666   0.817   4.686   2.652 -1.1176 -1.8091 -0.4942
  152MOL   C14533667   0.995   4.958   2.705 -0.3771 -0.4476  0.3952
  152MOL   C14633668   1.094   4.847   2.656  0.9356 -0.8581 -0.5247
  152MOL   C14733669   1.207   4.917   2.576  0.1048  0.2399 -0.4151
  152MOL   O14833670   1.325   4.939   2.610  0.7135  0.1849 -0.0196
  152MOL   C14933671   1.154   4.978   2.444  0.2898 -0.7412  0.0815
  152MOL   H15033672   1.028   5.007   2.797 -3.1483 -0.4299  1.4107
  152MOL   H15133673   1.004   5.047   2.643  1.6224  0.8723  2.4966
  152MOL   H15233674   1.045   4.776   2.588  1.2261 -1.6123  0.0411
  152MOL   H15333675   1.050   5.010   2.439  0.4263 -0.3500 -0.3384
  152MOL   H15433676   1.221   5.063   2.428 -0.2101 -0.1739  0.9649
  152MOL   H15533677   1.165   4.923   2.351 -0.3277 -2.2217  0.8712
  152MOL   C15633678   1.152   4.766   2.781  0.1382 -0.0946  1.3440
  152MOL   C15733679   1.209   4.632   2.738  0.5794 -0.0738  0.0933
  152MOL   C15833680   1.098   4.524   2.721 -0.0978 -0.2267  0.3139
  152MOL   O15933681   0.995   4.531   2.781 -0.0539 -0.2108 -0.3927
  152MOL   C16033682   1.123   4.401   2.643 -0.1899 -0.0967  0.2975
  152MOL   H16133683   1.239   4.816   2.824  0.2673 -0.7267  1.8135
  152MOL   H16233684   1.081   4.747   2.861 -0.0841  0.4079  1.2730
  152MOL   H16333685   1.242   4.636   2.634 -0.1205  1.8253 -0.0927
  152MOL   H16433686   1.132   4.420   2.536  0.8692  0.2930  0.4455
  152MOL   H16533687   1.043   4.328   2.657 -1.2506  1.0700  0.3706
  152MOL   H16633688   1.217   4.347   2.653 -1.4167 -2.5416 -0.8858
  152MOL   C16733689   1.320   4.589   2.836 -1.1864  0.3241 -0.4741
  152MOL   C16833690   1.457   4.658   2.807  0.7940 -0.0423 -0.0462
  152MOL   C16933691   1.506   4.633   2.661  0.1253 -0.4191 -0.2624
  152MOL   O17033692   1.481   4.533   2.592  0.1126 -0.0225  0.4486
  152MOL   C17133693   1.592   4.742   2.606  0.0651 -0.3692  0.0509
  152MOL   H17233694   1.286   4.618   2.936 -0.5049 -1.5048  0.3220
  152MOL   H17333695   1.330   4.480   2.840  3.0990  0.5286 -2.5378
  152MOL   H17433696   1.438   4.765   2.812  0.6499 -0.1447  1.7731
  152MOL   H17533697   1.563   4.846   2.620  0.4111 -0.2627 -0.0204
  152MOL   H17633698   1.611   4.728   2.499  0.6596  1.8829 -0.1610
  152MOL   H17733699   1.691   4.726   2.649  0.8924 -3.2342 -2.7348
  152MOL   C17833700   1.567   4.620   2.908 -0.0697  0.1865 -0.6761
  152MOL   C17933701   1.561   4.688   3.040 -0.1188  0.3549 -0.0173
  152MOL   C18033702   1.559   4.846   3.022  0.1628  0.0599 -0.2857
  152MOL   O18133703   1.652   4.907   2.969 -0.0469  0.0400  0.4620
  152MOL   C18233704   1.448   4.916   3.087 -0.2240  0.1801  0.0297
  152MOL   H18333705   1.545   4.514   2.926 -0.0916  0.0533 -1.4429
  152MOL   H18433706   1.663   4.621   2.856 -0.5479  1.3140 -1.5556
  152MOL   H18533707   1.475   4.659   3.101  0.4789  1.9272  1.6077
  152MOL   H18633708   1.357   4.914   3.027  0.6635 -3.5781 -1.3332
  152MOL   H18733709   1.469   5.022   3.101  0.4091 -0.2711  2.9080
  152MOL   H18833710   1.427   4.875   3.186  0.9789 -1.2145 -0.2680
  152MOL   C18933711   1.682   4.642   3.134  0.5506 -0.0321  0.8322
  152MOL   C19033712   1.699   4.703   3.273 -0.2299 -0.5306 -0.2183
  152MOL   C19133713   1.590   4.687   3.376  0.5267  0.6894  1.3271
  152MOL   O19233714   1.503   4.604   3.367  0.8465 -0.1972  0.3543
  152MOL   C19333715   1.585   4.794   3.490 -0.2419 -0.1745  0.2331
  152MOL   H19433716   1.677   4.535   3.155 -2.4781  0.3767  2.3745
  152MOL   H19533717   1.773   4.663   3.077  0.9952 -1.7221  0.8861
  152MOL   H19633718   1.697   4.810   3.251 -0.3943 -0.1338  1.6260
  152MOL   H19733719   1.653   4.875   3.461 -0.7649 -0.5835 -2.2102
  152MOL   H19833720   1.488   4.844   3.498  0.2448  0.6749  1.0812
  152MOL   H19933721   1.627   4.753   3.582  3.1582  0.4395 -0.9747
  152MOL   C20033722   1.836   4.659   3.339  0.1469  0.3018  0.2045
  152MOL   C20133723   1.917   4.772   3.402  0.1342 -0.1941 -0.5177
  152MOL   C20233724   1.955   4.865   3.282 -0.3792 -0.4346  0.7508
  152MOL   O20333725   1.914   4.976   3.281 -0.1712  0.3494 -0.1011
  152MOL   C20433726   2.031   4.810   3.159 -0.1647 -0.6776 -0.4905
  152MOL   H20533727   1.811   4.576   3.405 -3.1268  0.0982 -1.1968
  152MOL   H20633728   1.908   4.617   3.269  3.5732  1.9933  2.5559
  152MOL   H20733729   1.848   4.826   3.467 -0.0781 -1.9992  0.7753
  152MOL   H20833730   2.099   4.729   3.184 -0.9879 -1.2405 -0.0552
  152MOL   H20933731   1.960   4.776   3.084 -0.7561  0.1272 -0.2987
  152MOL   H21033732   2.088   4.895   3.122 -1.7294 -0.1968 -1.8268
  152MOL   C21133733   2.050   4.726   3.466 -0.5831  0.8777  0.3466
  152MOL   C21233734   2.114   4.846   3.546  0.4463 -0.8143  0.0024
  152MOL   C21333735   2.247   4.820   3.611  0.6236 -0.5951 -0.0310
  152MOL   O21433736   2.307   4.716   3.591 -0.1538 -0.3656 -0.2295
  152MOL   C21533737   2.298   4.924   3.714 -0.4648 -0.0032 -0.2871
  152MOL   H21633738   2.029   4.639   3.528  2.2248  0.7020  1.1170
  152MOL   H21733739   2.132   4.700   3.399 -0.0768 -0.1943  1.3589
  152MOL   H21833740   2.050   4.873   3.630  2.2528  0.9134  0.8849
  152MOL   H21933741   2.391   4.890   3.760  0.4549  1.9693 -0.6383
  152MOL   H22033742   2.315   5.022   3.671 -0.3773 -0.1159 -0.5063
  152MOL   H22133743   2.229   4.934   3.798  0.0948  2.3467 -0.0666
  152MOL   H22233744   2.129   4.940   3.492 -0.1305 -0.6681  0.0936
  153MOL     C133745   6.738   7.147   3.363 -0.3644 -0.5861  0.0841
  153MOL     C233746   6.648   7.235   3.446 -0.3596 -1.1522 -0.1884
  153MOL     C333747   6.687   7.231   3.592  0.2988  0.1490 -0.2319
  153MOL     O433748   6.774   7.295   3.644  0.3810 -0.2235 -0.4006
  153MOL     C533749   6.620   7.126   3.677 -0.2076 -0.1095  0.1454
  153MOL     H633750   6.732   7.041   3.388  1.7435 -0.2492  2.1444
  153MOL     H733751   6.840   7.182   3.375 -0.6390 -0.8268  3.5625
  153MOL     H833752   6.550   7.188   3.442 -0.1542 -1.6976  1.0633
  153MOL     H933753   6.597   7.161   3.778 -3.4859  1.0666 -0.9435
  153MOL    H1033754   6.522   7.123   3.630 -0.5127  1.2546  0.6803
  153MOL    H1133755   6.661   7.025   3.679 -0.5841 -0.2554  0.6631
  153MOL    H1233756   6.706   7.161   3.259 -2.3940 -1.1864  0.6110
  153MOL    C1333757   6.642   7.379   3.381 -0.4349 -0.1887  0.0910
  153MOL    C1433758   6.524   7.474   3.432  0.1093  0.4702  0.5400
  153MOL    C1533759   6.394   7.417   3.376 -0.0949 -0.2270  0.4864
  153MOL    O1633760   6.387   7.380   3.263 -0.8229 -0.8668  0.2227
  153MOL    C1733761   6.264   7.414   3.459 -0.4998  0.5290  0.1335
  153MOL    H1833762   6.734   7.433   3.404  0.2922 -1.4669  0.2236
  153MOL    H1933763   6.638   7.376   3.272 -0.6525 -1.9463  0.1374
  153MOL    H2033764   6.515   7.462   3.540  1.1319 -0.2462  0.5500
  153MOL    H2133765   6.177   7.377   3.404  1.5579 -0.5816 -2.4716
  153MOL    H2233766   6.290   7.341   3.536 -1.0211  0.9614  0.7293
  153MOL    H2333767   6.240   7.504   3.516 -0.1051  0.3365  0.6051
  153MOL    C2433768   6.539   7.621   3.399 -0.0580  0.0224 -0.4508
  153MOL    C2533769   6.437   7.713   3.458 -0.0280 -0.2675 -0.3177
  153MOL    C2633770   6.453   7.718   3.614 -0.5238 -0.1279  0.2236
  153MOL    O2733771   6.355   7.697   3.691  0.2099 -0.0982 -0.1013
  153MOL    C2833772   6.598   7.736   3.668 -0.1056 -0.6763 -0.3586
  153MOL    H2933773   6.641   7.653   3.421  0.3227 -2.2420  1.2218
  153MOL    H3033774   6.545   7.634   3.290  0.0648 -0.0113 -0.4479
  153MOL    H3133775   6.337   7.682   3.426  0.2571 -2.4589  0.7743
  153MOL    H3233776   6.628   7.640   3.710 -1.4711  0.0371  2.3399
  153MOL    H3333777   6.671   7.769   3.594  0.3890 -0.3742  0.2673
  153MOL    H3433778   6.618   7.813   3.742 -1.4069 -0.9170  0.2725
  153MOL    C3533779   6.448   0.004   3.416  0.4050 -0.8045 -0.1430
  153MOL    C3633780   6.328   0.106   3.449  0.0319  0.0725  0.1610
  153MOL    C3733781   6.368   0.224   3.534 -0.1646 -0.4618 -0.0981
  153MOL    O3833782   6.486   0.238   3.570  0.0109  0.4902 -0.3276
  153MOL    C3933783   6.269   0.333   3.570 -0.1608 -1.0318  0.0686
  153MOL    H4033784   6.447   0.000   3.307 -0.8049 -1.4414 -0.1090
  153MOL    H4133785   6.547   0.048   3.431  0.8314 -1.6724 -0.4041
  153MOL    H4233786   6.257   0.042   3.501 -0.6377 -0.2796 -1.1582
  153MOL    H4333787   6.289   0.397   3.656 -0.4606  0.1980 -0.7680
  153MOL    H4433788   6.173   0.291   3.601  0.0478 -0.5111  1.4250
  153MOL    H4533789   6.248   0.399   3.486 -0.3463  0.1431  1.0332
  153MOL    C4633790   6.255   0.164   3.324  0.1564 -0.5413  0.2165
  153MOL    C4733791   6.343   0.274   3.247  0.3795  0.0537  0.1974
  153MOL    C4833792   6.460   0.215   3.172  0.1683  0.1311 -0.1417
  153MOL    O4933793   6.442   0.134   3.078  0.1727 -0.3515  0.4318
  153MOL    C5033794   6.600   0.242   3.211 -1.5216 -0.3515  0.3611
  153MOL    H5133795   6.159   0.212   3.344  0.8320  0.8980  0.0802
  153MOL    H5233796   6.229   0.080   3.261  2.2539  0.2100 -1.7082
  153MOL    H5333797   6.381   0.348   3.318  3.0794 -1.9043  0.8914
  153MOL    H5433798   6.643   0.332   3.165  0.4737 -1.3069  0.2962
  153MOL    H5533799   6.626   0.230   3.316 -0.5348  0.1712  0.1851
  153MOL    H5633800   6.656   0.161   3.165  3.4049  2.4487  1.0904
  153MOL    C5733801   6.242   0.336   3.142  0.2353  0.7960  0.5651
  153MOL    C5833802   6.283   0.441   3.035  0.0091 -0.3542  0.4485
  153MOL    C5933803   6.174   0.446   2.920 -0.2753  0.3363  0.1140
  153MOL    O6033804   6.089   0.534   2.925  0.2556  0.2407  0.5304
  153MOL    C6133805   6.188   0.353   2.805 -0.3482 -0.4678  0.0958
  153MOL    H6233806   6.170   0.385   3.207  0.7522  2.5744 -0.1712
  153MOL    H6333807   6.191   0.255   3.090  0.6257 -0.7961  2.5992
  153MOL    H6433808   6.377   0.404   2.995  0.9286 -1.0716  3.2188
  153MOL    H6533809   6.275   0.294   2.833 -0.8153 -0.1197  2.3132
  153MOL    H6633810   6.099   0.299   2.774 -0.6928 -1.2983  2.4483
  153MOL    H6733811   6.235   0.415   2.728  1.1136 -0.2891  1.1052
  153MOL    C6833812   6.316   0.579   3.101 -0.4651 -0.1578 -0.1039
  153MOL    C6933813   6.351   0.698   3.005  0.2396 -1.1320  0.2791
  153MOL    C7033814   6.489   0.676   2.950  0.1102 -0.1705  0.3214
  153MOL    O7133815   6.585   0.652   3.020 -0.5183  0.0966 -0.3494
  153MOL    C7233816   6.504   0.697   2.802 -0.1363  0.3484  0.1355
  153MOL    H7333817   6.229   0.615   3.157 -0.7135 -0.8042 -0.0577
  153MOL    H7433818   6.386   0.569   3.184 -1.5318  0.7250  0.9160
  153MOL    H7533819   6.274   0.702   2.927 -0.5757  0.7535  1.1711
  153MOL    H7633820   6.477   0.800   2.777  0.4791  0.7606  1.1635
  153MOL    H7733821   6.608   0.681   2.775  0.2306  0.5752  1.3799
  153MOL    H7833822   6.451   0.622   2.744 -2.0431  0.4831  1.6650
  153MOL    C7933823   6.355   0.835   3.085  0.0811  0.3227 -0.3321
  153MOL    C8033824   6.373   0.976   3.011 -0.5827  0.1182  0.3499
  153MOL    C8133825   6.491   1.062   3.067 -0.0083  0.6873  0.0995
  153MOL    O8233826   6.480   1.127   3.169 -0.2987  0.1511 -0.8252
  153MOL    C8333827   6.627   1.050   2.993  0.0687 -0.2130  0.1135
  153MOL    H8433828   6.422   0.832   3.171 -1.3556  0.8813  0.8270
  153MOL    H8533829   6.254   0.843   3.127 -0.6182 -1.7609 -1.5186
  153MOL    H8633830   6.406   0.962   2.908 -1.5126 -0.1315  0.0730
  153MOL    H8733831   6.715   1.093   3.042 -0.9396  2.2792 -0.2076
  153MOL    H8833832   6.629   1.100   2.896 -0.1743  0.3097  0.3764
  153MOL    H8933833   6.653   0.947   2.966  0.0534  0.1318 -1.2720
  153MOL    C9033834   6.251   1.061   3.028 -0.2030  0.2287  0.1315
  153MOL    C9133835   6.130   1.005   2.951  0.2668 -0.4502  0.0617
  153MOL    C9233836   5.999   1.014   3.023  0.2912 -0.1735 -0.4881
  153MOL    O9333837   5.935   1.122   3.045 -0.4024  0.2411  0.1542
  153MOL    C9433838   5.947   0.878   3.071 -0.3758 -0.9326 -0.3023
  153MOL    H9533839   6.230   1.066   3.135  1.3182  3.8157  0.3392
  153MOL    H9633840   6.274   1.161   2.991  0.6241 -0.2141 -0.5662
  153MOL    H9733841   6.154   0.900   2.940  0.7502 -0.4360  0.9295
  153MOL    H9833842   5.883   0.881   3.160  0.1736  1.9701  0.0419
  153MOL    H9933843   5.906   0.807   2.999 -0.7878 -1.1795  0.1732
  153MOL   H10033844   6.028   0.825   3.120  0.1832  0.6602  0.5367
  153MOL   C10133845   6.118   1.065   2.802 -0.1634  0.0818 -0.7331
  153MOL   C10233846   6.015   1.000   2.708 -1.4541 -0.8816 -0.0460
  153MOL   C10333847   6.036   0.857   2.674 -0.4753 -0.0384  0.1291
  153MOL   O10433848   6.147   0.810   2.650  0.1476 -0.4574 -0.0421
  153MOL   C10533849   5.916   0.770   2.647 -0.0844  0.1557  0.0943
  153MOL   H10633850   6.089   1.169   2.799  0.1955  0.2148  0.4053
  153MOL   H10733851   6.216   1.063   2.753  0.6069 -0.6861  0.7963
  153MOL   H10833852   5.915   1.011   2.752 -1.0134  0.4402  0.6407
  153MOL   H10933853   5.911   0.756   2.539 -0.7677 -1.9501  0.3642
  153MOL   H11033854   5.931   0.669   2.687 -1.7992  0.5037  1.7012
  153MOL   H11133855   5.832   0.819   2.696 -0.0719 -1.0540  1.3719
  153MOL   C11233856   5.992   1.078   2.574  0.2270  0.0068  0.1299
  153MOL   C11333857   6.109   1.083   2.476  0.3992 -0.4980  1.0599
  153MOL   C11433858   6.196   1.208   2.509 -0.6888 -0.0330  0.5491
  153MOL   O11533859   6.313   1.194   2.537  0.1757 -0.3556  0.0436
  153MOL   C11633860   6.137   1.346   2.509 -0.1296  0.1178  0.2296
  153MOL   H11733861   5.956   1.178   2.599  0.9833 -0.6285  4.2159
  153MOL   H11833862   5.906   1.031   2.525  0.2653  1.1335 -1.0431
  153MOL   H11933863   6.166   0.992   2.489 -1.2650 -1.7806 -0.3046
  153MOL   H12033864   6.210   1.425   2.494  0.4096 -0.5116 -0.5015
  153MOL   H12133865   6.056   1.359   2.438 -0.6925  1.0265  1.0220
  153MOL   H12233866   6.087   1.351   2.606  1.3738 -1.3570  1.1120
  153MOL   C12333867   6.072   1.085   2.327 -0.3264 -0.1222  0.4355
  153MOL   C12433868   6.006   0.963   2.258 -0.4557 -0.4290 -0.2526
  153MOL   C12533869   6.106   0.850   2.229  0.3633  0.2366 -0.0024
  153MOL   O12633870   6.091   0.748   2.293  0.1974  0.2359  0.0906
  153MOL   C12733871   6.218   0.869   2.122  0.4264 -1.0703  1.0289
  153MOL   H12833872   6.156   1.113   2.263  1.5008 -1.9888  1.9529
  153MOL   H12933873   6.020   1.179   2.308 -0.7796 -0.0878  1.7532
  153MOL   H13033874   5.934   0.917   2.326 -2.7518  0.9606 -1.6422
  153MOL   H13133875   6.259   0.775   2.086 -1.9230 -2.2842  1.3859
  153MOL   H13233876   6.303   0.919   2.167 -0.3975  0.3138  1.0750
  153MOL   H13333877   6.175   0.925   2.039 -0.1320 -2.1523  0.5843
  153MOL   C13433878   5.926   0.998   2.129 -0.3930  0.6859  0.2023
  153MOL   C13533879   5.829   0.893   2.071 -0.6249 -0.1273 -0.1135
  153MOL   C13633880   5.686   0.906   2.139  0.2078  0.5129 -1.0437
  153MOL   O13733881   5.614   1.004   2.133  0.1410 -0.0944  0.2765
  153MOL   C13833882   5.634   0.790   2.221 -0.0525 -0.0562  0.4307
  153MOL   H13933883   5.983   1.039   2.045  1.4748  1.2263  1.6877
  153MOL   H14033884   5.866   1.088   2.145 -2.7960 -0.8467 -0.0258
  153MOL   H14133885   5.877   0.798   2.094  0.4401  0.7078  1.2006
  153MOL   H14233886   5.674   0.798   2.322 -1.5343 -0.8301  1.0981
  153MOL   H14333887   5.668   0.703   2.164  0.5183 -0.8621  1.9757
  153MOL   H14433888   5.526   0.791   2.234 -0.0949 -0.8554  0.1643
  153MOL   C14533889   5.809   0.915   1.919  0.6901 -0.8086 -0.5070
  153MOL   C14633890   5.921   0.868   1.830  0.4318 -0.1454  0.4026
  153MOL   C14733891   5.929   0.715   1.841 -0.1419 -1.3243  0.0240
  153MOL   O14833892   6.024   0.653   1.898  0.7045 -0.4858  0.2235
  153MOL   C14933893   5.809   0.634   1.779  0.2627 -0.5046  0.0281
  153MOL   H15033894   5.799   1.021   1.897 -0.2819 -1.0059 -1.0301
  153MOL   H15133895   5.718   0.867   1.885 -0.3251  1.1155 -0.5205
  153MOL   H15233896   6.014   0.917   1.860 -0.4646  1.3304  0.8254
  153MOL   H15333897   5.712   0.649   1.825  1.4066  0.1008  2.3104
  153MOL   H15433898   5.775   0.659   1.678  0.9727  0.3100 -0.0199
  153MOL   H15533899   5.825   0.527   1.769  2.0338 -0.2463 -0.1295
  153MOL   C15633900   5.895   0.917   1.684  0.4790  0.1400 -0.8083
  153MOL   C15733901   5.998   0.880   1.577  0.4738  0.1332  0.2301
  153MOL   C15833902   6.137   0.933   1.621  0.2224 -0.5292  0.5841
  153MOL   O15933903   6.176   1.048   1.614 -0.1518 -0.2879 -0.5881
  153MOL   C16033904   6.231   0.826   1.674 -0.2491  0.0206 -0.7420
  153MOL   H16133905   5.804   0.873   1.646 -1.6728  0.3048  3.7655
  153MOL   H16233906   5.885   1.026   1.675  0.0613  0.2461  0.7851
  153MOL   H16333907   6.007   0.771   1.572 -1.5370  0.0143 -1.5812
  153MOL   H16433908   6.305   0.860   1.747 -1.0995 -0.8148  0.5482
  153MOL   H16533909   6.290   0.776   1.598  0.0198 -0.3435 -0.3003
  153MOL   H16633910   6.171   0.756   1.733 -2.0477  0.5298 -1.9236
  153MOL   C16733911   5.957   0.921   1.430  0.3851 -0.4751  0.3990
  153MOL   C16833912   6.034   0.855   1.310  0.8720  0.2175  0.4831
  153MOL   C16933913   5.972   0.900   1.171  0.3216 -0.0356 -0.1669
  153MOL   O17033914   5.867   0.964   1.161  0.4062 -0.1923  0.0616
  153MOL   C17133915   6.061   0.893   1.049  0.0614 -0.2383 -0.6229
  153MOL   H17233916   5.851   0.894   1.432  0.5847 -1.3153 -0.1076
  153MOL   H17333917   5.953   1.029   1.414  1.6930 -0.3989  0.5804
  153MOL   H17433918   6.126   0.914   1.309  0.2383  1.2113  0.2801
  153MOL   H17533919   6.020   0.949   0.965  1.3735 -1.2614 -1.9757
  153MOL   H17633920   6.066   0.789   1.016 -0.3578 -0.2202 -0.7482
  153MOL   H17733921   6.159   0.931   1.077 -0.0514 -0.0831 -0.4431
  153MOL   C17833922   6.072   0.701   1.325  0.3605  0.1560  0.6443
  153MOL   C17933923   5.959   0.604   1.365  0.2086 -0.5194 -0.1959
  153MOL   C18033924   6.012   0.489   1.453  0.5819 -0.9595 -0.4400
  153MOL   O18133925   5.971   0.476   1.569 -0.2298  0.2261  0.4608
  153MOL   C18233926   6.115   0.387   1.400 -0.0823 -0.0706  0.1765
  153MOL   H18333927   6.120   0.672   1.231  0.2742 -0.4246  0.7765
  153MOL   H18433928   6.157   0.695   1.393 -0.6193 -1.6196  1.7533
  153MOL   H18533929   5.877   0.660   1.410  0.0661  0.4037 -1.5504
  153MOL   H18633930   6.164   0.327   1.477  2.3651  0.1787 -1.1489
  153MOL   H18733931   6.189   0.439   1.340 -0.2636 -0.9649 -0.8288
  153MOL   H18833932   6.071   0.317   1.330  3.2959 -2.2630  0.1417
  153MOL   C18933933   5.895   0.548   1.229  0.1129  0.0448  0.6117
  153MOL   C19033934   5.761   0.458   1.242 -0.2280  0.4096 -0.7704
  153MOL   C19133935   5.654   0.523   1.326  0.2150  0.3924 -0.2249
  153MOL   O19233936   5.603   0.627   1.296 -0.1415 -0.3616 -0.4301
  153MOL   C19333937   5.623   0.457   1.457  0.4288 -0.2304 -0.5212
  153MOL   H19433938   5.888   0.633   1.161 -1.6508 -1.5287 -1.2261
  153MOL   H19533939   5.970   0.482   1.185  1.0795  1.9223 -0.6191
  153MOL   H19633940   5.780   0.366   1.298 -1.0569 -0.1202 -1.3485
  153MOL   H19733941   5.681   0.370   1.488  1.1043 -0.6642 -2.9303
  153MOL   H19833942   5.653   0.528   1.534 -0.3542 -0.0872 -0.3437
  153MOL   H19933943   5.523   0.416   1.471 -0.0547  0.9885 -0.2867
  153MOL   C20033944   5.707   0.424   1.101  0.4269  0.4484  0.5386
  153MOL   C20133945   5.585   0.326   1.093 -0.2223  0.8020 -0.2064
  153MOL   C20233946   5.620   0.183   1.133 -0.1733  0.1820 -0.5901
  153MOL   O20333947   5.736   0.145   1.137  0.2441 -0.0688  0.8223
  153MOL   C20433948   5.508   0.097   1.188 -0.2761  0.0153 -0.0831
  153MOL   H20533949   5.690   0.512   1.040  0.1826 -1.5960 -2.4421
  153MOL   H20633950   5.791   0.371   1.056  1.1810  0.0465  2.3694
  153MOL   H20733951   5.501   0.352   1.158 -0.9396 -1.6316 -0.1032
  153MOL   H20833952   5.480   0.137   1.286  1.6415  0.9861  0.0998
  153MOL   H20933953   5.422   0.091   1.122  0.3197  0.5366 -0.9193
  153MOL   H21033954   5.542   7.851   1.185  1.5565  0.6519 -4.0706
  153MOL   C21133955   5.542   0.328   0.943 -0.7176  0.2747 -0.6473
  153MOL   C21233956   5.459   0.453   0.895 -0.7685 -0.2131  0.1494
  153MOL   C21333957   5.454   0.485   0.746 -0.5987  0.4129  0.0541
  153MOL   O21433958   5.537   0.435   0.672  0.0412  0.0296  0.2499
  153MOL   C21533959   5.348   0.588   0.708 -0.3843  0.0879  0.0823
  153MOL   H21633960   5.635   0.324   0.887  0.7725 -0.1230  1.7832
  153MOL   H21733961   5.491   0.238   0.907  1.7029 -1.0334 -0.9241
  153MOL   H21833962   5.498   0.539   0.950 -0.4826 -2.4405  3.5933
  153MOL   H21933963   5.253   0.577   0.760 -1.2402  2.3323 -0.9296
  153MOL   H22033964   5.384   0.691   0.700 -0.7364  0.2207  0.2173
  153MOL   H22133965   5.325   0.562   0.604 -1.1634  0.4695  0.1565
  153MOL   H22233966   5.359   0.436   0.934 -2.0808  4.8272 -0.6866
  154MOL     C133967   4.595   5.746   4.016  0.4017  0.3829 -0.1337
  154MOL     C233968   4.456   5.677   4.024  0.2535 -0.3062 -0.0210
  154MOL     C333969   4.450   5.565   4.129 -0.5569  0.0423 -0.0352
  154MOL     O433970   4.502   5.575   4.238 -0.5012  0.1912  0.3533
  154MOL     C533971   4.369   5.436   4.088  0.4210 -0.6482  0.1284
  154MOL     H633972   4.668   5.668   3.995 -1.0357 -0.4823 -2.0733
  154MOL     H733973   4.610   5.790   4.114 -0.2832 -0.6809  0.4511
  154MOL     H833974   4.422   5.639   3.927  0.2085  0.3022 -0.2514
  154MOL     H933975   4.365   5.417   3.980 -2.2743  0.3562  0.0027
  154MOL    H1033976   4.401   5.346   4.140  0.5252 -1.0729 -0.6619
  154MOL    H1133977   4.268   5.457   4.122  0.8895  0.8544  0.6015
  154MOL    H1233978   4.584   5.826   3.943  0.8692  0.0872 -0.5308
  154MOL    C1333979   4.343   5.782   4.044  0.2536  0.3663  0.5865
  154MOL    C1433980   4.194   5.735   4.069 -0.1922 -0.2344 -0.2941
  154MOL    C1533981   4.141   5.643   3.960 -0.5061 -1.1522  0.3058
  154MOL    O1633982   4.184   5.651   3.846 -0.0331 -0.3147  0.2974
  154MOL    C1733983   4.018   5.558   3.983  0.0293  0.3684 -0.0951
  154MOL    H1833984   4.376   5.843   4.129 -0.4318  0.7331  0.5874
  154MOL    H1933985   4.344   5.846   3.956 -4.0953 -0.3569 -0.0816
  154MOL    H2033986   4.196   5.679   4.162  1.9286 -1.7922 -1.2420
  154MOL    H2133987   3.939   5.594   4.049 -2.5062 -0.9687 -2.3159
  154MOL    H2233988   3.970   5.537   3.887 -0.1235  0.1287  0.0349
  154MOL    H2333989   4.053   5.460   4.014 -0.8212 -0.7903 -2.6866
  154MOL    C2433990   4.099   5.860   4.082 -0.6142 -0.5698 -0.4804
  154MOL    C2533991   4.090   5.905   4.235  0.1066  0.8061  0.5603
  154MOL    C2633992   4.085   6.062   4.250  0.6193  1.0664  0.3213
  154MOL    O2733993   4.036   6.139   4.163  0.2780  0.3451 -0.3716
  154MOL    C2833994   4.149   6.125   4.371  0.5709 -0.3435  0.4663
  154MOL    H2933995   4.125   5.951   4.028  0.6593  0.9855  2.6226
  154MOL    H3033996   4.000   5.836   4.042 -0.3525 -0.8739 -0.9470
  154MOL    H3133997   4.182   5.884   4.290 -0.1467  0.5709  0.8911
  154MOL    H3233998   4.227   6.053   4.397  0.8423 -0.7555 -1.4366
  154MOL    H3333999   4.209   6.208   4.334  0.0259 -0.3718 -0.5044
  154MOL    H3434000   4.087   6.164   4.452 -1.1044  0.2627 -1.0774
  154MOL    C3534001   3.971   5.839   4.296 -0.3125  0.1492  0.5193
  154MOL    C3634002   3.943   5.872   4.445 -0.1172 -0.5605  0.1990
  154MOL    C3734003   3.795   5.828   4.458  0.2457 -0.6523 -0.1731
  154MOL    O3834004   3.762   5.719   4.507  0.0238 -0.7775  0.1885
  154MOL    C3934005   3.685   5.926   4.419 -0.5457  0.6369  0.5244
  154MOL    H4034006   3.975   5.731   4.289  1.7212  0.2856 -0.8124
  154MOL    H4134007   3.894   5.877   4.228  1.7161 -0.1321 -1.9856
  154MOL    H4234008   3.947   5.979   4.466 -0.2269 -0.3457 -0.8512
  154MOL    H4334009   3.677   5.996   4.501 -1.4533 -0.1072  1.0921
  154MOL    H4434010   3.585   5.888   4.396  0.6221 -1.5819 -1.1809
  154MOL    H4534011   3.725   5.980   4.333 -0.3432 -2.4250 -1.4163
  154MOL    C4634012   4.045   5.798   4.539  0.3965  0.0699  0.4458
  154MOL    C4734013   4.031   5.826   4.684 -0.2289 -0.1491 -0.3443
  154MOL    C4834014   4.083   5.710   4.780  0.7673  0.1901  0.2309
  154MOL    O4934015   4.182   5.645   4.757 -0.2460  0.0557  0.4599
  154MOL    C5034016   4.004   5.678   4.903  0.3985  0.3873  0.5095
  154MOL    H5134017   4.141   5.835   4.505 -0.5698  2.8028  0.5693
  154MOL    H5234018   4.041   5.691   4.520 -2.6022  0.1932  0.1563
  154MOL    H5334019   3.924   5.830   4.703 -0.0430  2.9922  0.2946
  154MOL    H5434020   4.046   5.735   4.985 -0.7595  1.7869  0.1457
  154MOL    H5534021   3.896   5.692   4.896  0.0409 -2.3763 -0.2803
  154MOL    H5634022   4.017   5.575   4.935 -2.2122 -0.1584 -0.0542
  154MOL    C5734023   4.093   5.965   4.724 -0.2674  0.7895  0.6520
  154MOL    C5834024   4.092   6.001   4.871 -0.0891  0.3943  0.1381
  154MOL    C5934025   4.235   6.016   4.927  0.3458  0.4476  1.3529
  154MOL    O6034026   4.300   6.125   4.911  0.3360  0.1002 -0.4504
  154MOL    C6134027   4.298   5.894   4.995  0.5577 -0.2928  0.4869
  154MOL    H6234028   4.017   6.033   4.684 -1.2843 -1.1129 -0.7115
  154MOL    H6334029   4.187   5.997   4.679 -0.3772  3.1553  2.0115
  154MOL    H6434030   4.038   5.923   4.924 -2.8930  2.0950 -0.0810
  154MOL    H6534031   4.289   5.806   4.932 -0.8565  0.5485 -0.4984
  154MOL    H6634032   4.402   5.912   5.023  0.5139  2.2899 -0.7992
  154MOL    H6734033   4.243   5.881   5.088 -1.9595  0.4491 -0.8638
  154MOL    C6834034   4.007   6.127   4.905 -0.5465 -0.4498 -0.4389
  154MOL    C6934035   3.855   6.107   4.900  0.2990 -0.3570 -0.3329
  154MOL    C7034036   3.784   6.102   4.767  0.5799 -0.4220 -0.1721
  154MOL    O7134037   3.761   5.997   4.710 -0.5710 -0.2766 -0.1499
  154MOL    C7234038   3.749   6.238   4.701  0.4659  1.0844  0.5051
  154MOL    H7334039   4.043   6.170   4.999  0.0776  0.7170 -1.2006
  154MOL    H7434040   4.036   6.213   4.845 -0.6169 -0.0396  0.1139
  154MOL    H7534041   3.848   6.003   4.930  1.5165  0.4844  3.0661
  154MOL    H7634042   3.819   6.313   4.738 -0.5459  1.1993  2.2445
  154MOL    H7734043   3.755   6.222   4.594 -0.1536  1.8037  0.3551
  154MOL    H7834044   3.646   6.270   4.719  0.3189  0.8623  0.0443
  154MOL    C7934045   3.777   6.199   5.000  0.1944  0.1192 -0.4190
  154MOL    C8034046   3.632   6.144   5.037 -0.3619  0.5867 -0.0497
  154MOL    C8134047   3.533   6.245   4.982  0.0315  0.4129 -0.2588
  154MOL    O8234048   3.519   6.364   5.023 -0.2736 -0.4060 -0.2654
  154MOL    C8334049   3.433   6.190   4.879  0.0863  0.6522 -0.8316
  154MOL    H8434050   3.764   6.302   4.964 -3.1873  0.0106  0.3240
  154MOL    H8534051   3.840   6.217   5.087 -0.7435 -4.3302  1.3119
  154MOL    H8634052   3.623   6.043   4.997 -0.7898  0.9319 -0.8391
  154MOL    H8734053   3.414   6.254   4.794 -1.8643 -0.1370 -1.0197
  154MOL    H8834054   3.341   6.171   4.936  1.7506  0.5343  1.9276
  154MOL    H8934055   3.473   6.101   4.831 -2.4993 -0.7326 -0.4993
  154MOL    C9034056   3.623   6.123   5.188  0.1487  0.0367 -0.7992
  154MOL    C9134057   3.501   6.038   5.230  0.2833  0.5789 -0.3443
  154MOL    C9234058   3.540   5.935   5.337  0.1347  0.3225  0.0356
  154MOL    O9334059   3.515   5.944   5.459 -0.0958 -0.0574  0.2882
  154MOL    C9434060   3.616   5.817   5.283 -0.1801  0.0877  0.4237
  154MOL    H9534061   3.712   6.066   5.214 -0.1629 -0.0013  0.1967
  154MOL    H9634062   3.629   6.211   5.251  2.8114 -0.7963  0.1919
  154MOL    H9734063   3.465   5.976   5.148  1.4151 -1.2973  0.5367
  154MOL    H9834064   3.657   5.835   5.183 -1.9258  0.5147 -0.2338
  154MOL    H9934065   3.704   5.798   5.344  0.1142  1.2062  0.3413
  154MOL   H10034066   3.555   5.727   5.290  0.4215 -0.4686 -1.2171
  154MOL   C10134067   3.381   6.133   5.261 -0.2214 -0.0398  0.3187
  154MOL   C10234068   3.247   6.068   5.288  0.6386  0.1287  0.0674
  154MOL   C10334069   3.160   6.064   5.159 -0.0836  0.4340  0.3296
  154MOL   O10434070   3.161   6.156   5.076  0.0748 -0.4578  0.3964
  154MOL   C10534071   3.083   5.941   5.132  0.0953 -0.0298 -0.2254
  154MOL   H10634072   3.411   6.185   5.352  1.9727  1.6382 -1.2852
  154MOL   H10734073   3.371   6.218   5.194  0.7647 -0.7488 -0.7439
  154MOL   H10834074   3.253   5.965   5.323 -1.2521 -0.3675 -1.0226
  154MOL   H10934075   3.113   5.898   5.037  1.8333 -1.0560  0.7691
  154MOL   H11034076   3.099   5.868   5.212  1.7581  0.3567 -0.1864
  154MOL   H11134077   2.980   5.976   5.124 -0.3283 -0.3191  2.9657
  154MOL   C11234078   3.174   6.154   5.397  0.2929  0.2061 -0.8957
  154MOL   C11334079   3.025   6.114   5.425 -0.3421  0.0968 -0.3824
  154MOL   C11434080   2.955   6.210   5.519 -0.1085 -0.1148 -0.5182
  154MOL   O11534081   2.945   6.198   5.636  0.5017 -0.1958  0.0495
  154MOL   C11634082   2.895   6.338   5.456 -0.4479 -0.3918 -0.1744
  154MOL   H11734083   3.173   6.255   5.356  0.3821 -0.1284 -1.7215
  154MOL   H11834084   3.230   6.152   5.491  1.4321  0.1536 -1.5674
  154MOL   H11934085   2.968   6.116   5.333  0.7744 -2.6187 -1.1998
  154MOL   H12034086   2.945   6.363   5.363 -3.5990  0.0766 -1.8310
  154MOL   H12134087   2.787   6.334   5.442 -0.2482 -1.8672 -1.3216
  154MOL   H12234088   2.897   6.415   5.533 -2.6399  0.3549 -0.8239
  154MOL   C12334089   3.015   5.977   5.487 -0.5107  0.7250 -0.2503
  154MOL   C12434090   2.884   5.898   5.502 -0.0706  0.0989  0.3642
  154MOL   C12534091   2.903   5.779   5.594  0.3786  0.2471 -0.3158
  154MOL   O12634092   2.914   5.663   5.550 -0.2242  0.1464 -0.2506
  154MOL   C12734093   2.895   5.808   5.743 -0.3540 -0.4866  0.1888
  154MOL   H12834094   3.062   5.978   5.586 -1.5097 -2.0615  0.3111
  154MOL   H12934095   3.083   5.923   5.421 -1.2690  1.5835 -1.7734
  154MOL   H13034096   2.812   5.966   5.547  0.7974  0.2898  1.4600
  154MOL   H13134097   2.806   5.759   5.781 -0.6523  0.9099  1.3272
  154MOL   H13234098   2.889   5.915   5.760  1.6478 -0.4450  0.8329
  154MOL   H13334099   2.979   5.765   5.799 -0.1528 -0.8309 -0.3812
  154MOL   C13434100   2.819   5.876   5.371  0.0069 -0.1313  0.0790
  154MOL   C13534101   2.672   5.813   5.376  0.4169 -0.6189  0.2583
  154MOL   C13634102   2.580   5.916   5.444  0.5874 -0.3360 -0.1710
  154MOL   O13734103   2.613   6.034   5.434 -0.2788  0.3169  0.5714
  154MOL   C13834104   2.441   5.872   5.479  0.2945  0.4893 -0.9900
  154MOL   H13934105   2.885   5.822   5.302  0.9771  2.0679 -0.7409
  154MOL   H14034106   2.812   5.971   5.319  0.8799  0.0375  0.2661
  154MOL   H14134107   2.660   5.730   5.447 -0.6893 -2.3401 -1.8865
  154MOL   H14234108   2.413   5.794   5.408  2.1740 -1.9261  0.8384
  154MOL   H14334109   2.378   5.958   5.457  0.0006  0.3410 -0.7478
  154MOL   H14434110   2.420   5.826   5.576 -0.6738  1.4124 -0.7491
  154MOL   C14534111   2.620   5.773   5.241  0.2846  0.3156 -0.2621
  154MOL   C14634112   2.685   5.644   5.184 -0.2055 -1.1840  0.0753
  154MOL   C14734113   2.640   5.523   5.273 -0.0751 -0.2257  0.2438
  154MOL   O14834114   2.524   5.510   5.304  0.4427 -0.6161 -0.1465
  154MOL   C14934115   2.754   5.420   5.309  0.0310 -0.0201  0.0445
  154MOL   H15034116   2.633   5.852   5.168  3.6420 -0.5060 -0.6158
  154MOL   H15134117   2.512   5.753   5.239  0.5027 -0.8328 -2.2122
  154MOL   H15234118   2.793   5.654   5.195 -0.2296 -0.2636 -0.4597
  154MOL   H15334119   2.807   5.379   5.223 -2.8456  0.3247 -1.9457
  154MOL   H15434120   2.829   5.467   5.372  0.7215 -0.1073 -0.7089
  154MOL   H15534121   2.714   5.337   5.368 -0.6430 -0.3401 -0.8534
  154MOL   C15634122   2.647   5.625   5.036  0.2075  0.0644 -0.1786
  154MOL   C15734123   2.717   5.502   4.965  0.1087 -0.3878  0.5235
  154MOL   C15834124   2.869   5.504   4.960 -0.3118 -0.3290 -0.1622
  154MOL   O15934125   2.927   5.609   4.981  0.5612  0.0326  0.2734
  154MOL   C16034126   2.952   5.378   4.938  0.4824 -0.1650  0.2409
  154MOL   H16134127   2.538   5.622   5.042  0.2906  0.9233  2.8493
  154MOL   H16234128   2.659   5.720   4.984  0.2381  0.6267  0.8276
  154MOL   H16334129   2.696   5.410   5.020  1.7290  0.0861  1.9450
  154MOL   H16434130   2.950   5.356   4.831  0.2925  2.0377 -0.2375
  154MOL   H16534131   2.912   5.293   4.994  0.1900 -0.4323 -0.3701
  154MOL   H16634132   3.056   5.391   4.966  0.8784 -0.8512 -0.8822
  154MOL   C16734133   2.669   5.489   4.814 -0.8773 -0.2749  0.8971
  154MOL   C16834134   2.532   5.413   4.806 -0.1219 -0.3625  0.1453
  154MOL   C16934135   2.541   5.257   4.835 -0.5337 -0.0692  0.1518
  154MOL   O17034136   2.647   5.198   4.837 -0.2422 -0.2128  0.2707
  154MOL   C17134137   2.411   5.196   4.888  0.0629 -0.3270 -0.2779
  154MOL   H17234138   2.663   5.593   4.782 -1.5643 -0.4971  0.3118
  154MOL   H17334139   2.738   5.439   4.746  0.3419  0.9051  1.2423
  154MOL   H17434140   2.483   5.445   4.897  0.6357  0.0214  0.4285
  154MOL   H17534141   2.431   5.092   4.915  0.2254 -0.0804  0.5354
  154MOL   H17634142   2.327   5.196   4.818 -0.5880 -0.9059  0.4965
  154MOL   H17734143   2.391   5.237   4.987 -1.3519  1.4632 -1.2693
  154MOL   C17834144   2.459   5.439   4.672  0.3319 -0.6813  0.6515
  154MOL   C17934145   2.389   5.576   4.650 -0.4682 -0.3890  0.5700
  154MOL   C18034146   2.293   5.602   4.767 -0.0326 -0.2387 -0.4059
  154MOL   O18134147   2.226   5.508   4.811  0.0840 -0.1777 -0.6030
  154MOL   C18234148   2.274   5.748   4.818 -0.6182 -0.4594  0.2894
  154MOL   H18334149   2.521   5.411   4.587  1.0043 -0.9015  1.2113
  154MOL   H18434150   2.376   5.368   4.676 -0.0871 -0.2121  0.2930
  154MOL   H18534151   2.457   5.659   4.630  0.3607 -1.3610 -0.7326
  154MOL   H18634152   2.301   5.806   4.729  1.7836 -0.3767  1.0445
  154MOL   H18734153   2.346   5.775   4.895  0.8738  0.1543 -1.2918
  154MOL   H18834154   2.173   5.783   4.842 -1.4076 -1.6190 -1.2223
  154MOL   C18934155   2.311   5.565   4.522 -0.3053  0.6014  0.2710
  154MOL   C19034156   2.238   5.690   4.460 -0.1063  0.4800 -0.4790
  154MOL   C19134157   2.341   5.799   4.444  1.0703 -0.6693 -0.0621
  154MOL   O19234158   2.459   5.777   4.427 -0.5692  0.0499 -0.1860
  154MOL   C19334159   2.285   5.942   4.436  0.3745 -0.1712 -0.5365
  154MOL   H19434160   2.366   5.516   4.440 -0.3891 -0.9033  1.0940
  154MOL   H19534161   2.234   5.491   4.543  0.1377  0.2788  0.7750
  154MOL   H19634162   2.176   5.730   4.541 -2.4803 -0.1154 -1.9354
  154MOL   H19734163   2.357   6.016   4.471  0.6854 -0.8984  0.4028
  154MOL   H19834164   2.254   5.969   4.335 -1.3670  0.0218  0.0306
  154MOL   H19934165   2.207   5.958   4.511  0.3980 -0.5936 -0.4191
  154MOL   C20034166   2.159   5.669   4.334 -0.1632 -0.3276  0.7121
  154MOL   C20134167   2.024   5.584   4.358  0.3399  0.1719 -0.7207
  154MOL   C20234168   1.973   5.511   4.227  0.1549  0.4111  0.4885
  154MOL   O20334169   1.976   5.388   4.217 -0.6081 -0.3870  0.0808
  154MOL   C20434170   1.953   5.599   4.105 -0.3680 -0.1156 -0.4989
  154MOL   H20534171   2.135   5.768   4.294 -0.5758  1.0983  4.3695
  154MOL   H20634172   2.219   5.617   4.259 -0.1844 -1.2502  1.3337
  154MOL   H20734173   2.043   5.504   4.429 -2.1451  1.0387  0.9840
  154MOL   H20834174   2.040   5.656   4.071  0.7785 -1.3082  0.3654
  154MOL   H20934175   1.916   5.542   4.020  0.8077 -0.2745 -0.9230
  154MOL   H21034176   1.878   5.677   4.119 -0.2687  0.4058 -2.6420
  154MOL   C21134177   1.912   5.667   4.422  0.2138 -0.7970 -0.0939
  154MOL   C21234178   1.807   5.609   4.522 -0.3150  0.0178 -0.5478
  154MOL   C21334179   1.871   5.598   4.656 -0.6370 -0.6057  0.4318
  154MOL   O21434180   1.876   5.693   4.731  0.4433  0.2341  0.0404
  154MOL   C21534181   1.929   5.465   4.693  0.8018  0.2220 -0.2529
  154MOL   H21634182   1.959   5.754   4.468 -0.5973  0.2700 -1.2438
  154MOL   H21734183   1.859   5.715   4.340  3.1102  1.9456 -0.4703
  154MOL   H21834184   1.776   5.512   4.483 -1.4743 -0.3460  1.2298
  154MOL   H21934185   1.958   5.452   4.797 -0.7238 -2.8682 -0.1317
  154MOL   H22034186   1.860   5.388   4.658 -0.0062 -0.3236  2.4000
  154MOL   H22134187   2.023   5.456   4.639 -0.1353 -1.3134 -1.6974
  154MOL   H22234188   1.716   5.668   4.526 -2.0736 -2.7507  1.8584
  155MOL     C134189   6.584   5.583   0.934  0.1108  0.2158  0.3454
  155MOL     C234190   6.667   5.693   0.996  0.2963  0.1605 -0.3428
  155MOL     C334191   6.615   5.822   0.947  0.3207 -0.3358  0.4220
  155MOL     O434192   6.499   5.856   0.967 -0.2336 -0.1133  0.3666
  155MOL     C534193   6.712   5.916   0.880 -0.0207  0.2750  0.0007
  155MOL     H634194   6.495   5.571   0.997  0.4466  0.7149  0.9224
  155MOL     H734195   6.626   5.482   0.938 -0.2769  0.0575  0.4964
  155MOL     H834196   6.768   5.683   0.956  0.4110 -0.6714  0.1442
  155MOL     H934197   6.801   5.911   0.943 -0.7924 -1.2623  1.0017
  155MOL    H1034198   6.740   5.902   0.776  1.6982 -1.6633  0.6924
  155MOL    H1134199   6.668   6.015   0.889  0.1520  0.4019 -0.5446
  155MOL    H1234200   6.537   5.597   0.837 -0.1754 -0.7980  0.3337
  155MOL    C1334201   6.673   5.682   1.148 -0.1946  0.4688  0.1134
  155MOL    C1434202   6.766   5.771   1.233  0.2476 -0.1725  0.9478
  155MOL    C1534203   6.863   5.684   1.319 -0.5380 -0.3247  0.4631
  155MOL    O1634204   6.983   5.681   1.303 -0.2734 -0.2275  0.1845
  155MOL    C1734205   6.810   5.605   1.441  0.1651 -0.5256  0.1952
  155MOL    H1834206   6.575   5.693   1.196 -0.4693 -2.1641  0.2325
  155MOL    H1934207   6.705   5.579   1.161 -0.0276  0.6727  1.4022
  155MOL    H2034208   6.833   5.812   1.157 -0.3119  1.8379  1.5367
  155MOL    H2134209   6.862   5.642   1.530  0.8157 -2.0204  0.4463
  155MOL    H2234210   6.703   5.595   1.455  0.0966  0.4561  0.4636
  155MOL    H2334211   6.847   5.505   1.421 -0.7155 -0.5837 -1.2114
  155MOL    C2434212   6.686   5.886   1.296 -1.2681 -0.1131  0.1135
  155MOL    C2534213   6.772   6.008   1.336  0.0995  0.0228 -0.0389
  155MOL    C2634214   6.767   6.111   1.231 -0.3054 -0.2508  0.1915
  155MOL    O2734215   6.877   6.148   1.194 -0.0333 -0.0790  0.5406
  155MOL    C2834216   6.637   6.182   1.176  0.8576  0.0767  0.1407
  155MOL    H2934217   6.593   5.914   1.247 -0.6179 -0.5414 -1.3604
  155MOL    H3034218   6.641   5.846   1.387 -3.6210  0.2677 -0.8529
  155MOL    H3134219   6.874   5.971   1.338 -0.2633 -1.0891 -1.2435
  155MOL    H3234220   6.654   6.238   1.084 -0.7395  1.9261  0.9508
  155MOL    H3334221   6.564   6.105   1.151  0.4853  0.1553  0.9924
  155MOL    H3434222   6.597   6.256   1.245  1.6691  1.2552 -0.6184
  155MOL    C3534223   6.725   6.081   1.463  0.5243  0.9116 -0.4052
  155MOL    C3634224   6.846   6.102   1.562  0.4535  0.1472  0.2715
  155MOL    C3734225   6.811   6.213   1.658  0.1577  0.5992 -0.0557
  155MOL    O3834226   6.831   6.202   1.776 -0.1929  0.2853  0.6932
  155MOL    C3934227   6.758   6.340   1.599  0.5034  0.4358  0.1206
  155MOL    H4034228   6.661   6.004   1.506 -0.6738  2.7917  1.2059
  155MOL    H4134229   6.659   6.166   1.449  0.5742  1.0457  0.1563
  155MOL    H4234230   6.930   6.138   1.503 -0.0106 -1.5640 -1.4695
  155MOL    H4334231   6.768   6.426   1.665  2.0685  0.2743  0.1208
  155MOL    H4434232   6.658   6.330   1.558  0.9780  2.1914 -1.5948
  155MOL    H4534233   6.816   6.368   1.510 -0.7202 -1.2651 -1.2273
  155MOL    C4634234   6.877   5.970   1.625 -0.2709  0.3178 -0.3426
  155MOL    C4734235   7.031   5.968   1.670 -0.3567 -0.0155  0.4908
  155MOL    C4834236   7.025   5.861   1.778 -0.2226  0.6982  0.8513
  155MOL    O4934237   7.043   5.738   1.759 -0.0897  0.0043  0.5569
  155MOL    C5034238   6.966   5.902   1.916 -0.2182  0.2118 -0.1177
  155MOL    H5134239   6.867   5.888   1.554  0.8756  0.5544 -0.7725
  155MOL    H5234240   6.801   5.946   1.700  1.1314 -1.5911  0.5099
  155MOL    H5334241   7.065   6.066   1.703  1.1528 -1.1366  2.3256
  155MOL    H5434242   7.043   5.936   1.985 -0.8599 -0.2715  0.8552
  155MOL    H5534243   6.882   5.970   1.906 -0.8380 -0.4570  0.4783
  155MOL    H5634244   6.934   5.809   1.963  0.6076 -0.2002 -0.3669
  155MOL    C5734245   7.120   5.922   1.553 -0.9158  0.3881  0.4648
  155MOL    C5834246   7.270   5.919   1.586  0.3992  0.0432 -0.0693
  155MOL    C5934247   7.338   5.836   1.475 -0.0049 -0.6383 -0.2026
  155MOL    O6034248   7.357   5.884   1.358 -0.0091 -0.3638 -0.1634
  155MOL    C6134249   7.366   5.692   1.497 -0.8911  0.6837  0.8828
  155MOL    H6234250   7.104   5.982   1.464 -1.7482 -1.8979 -0.9718
  155MOL    H6334251   7.088   5.824   1.518 -0.9853  0.2775  0.8290
  155MOL    H6434252   7.292   5.857   1.672 -1.8998 -2.2155 -1.0359
  155MOL    H6534253   7.376   5.636   1.404  2.0887 -0.7174  1.9662
  155MOL    H6634254   7.464   5.676   1.543 -1.1696  0.4607  1.4059
  155MOL    H6734255   7.285   5.640   1.548 -1.4264 -0.3414 -0.9732
  155MOL    C6834256   7.328   6.069   1.599 -0.0135 -0.3654  0.2238
  155MOL    C6934257   7.476   6.078   1.622 -1.2776  0.5899 -0.1259
  155MOL    C7034258   7.521   5.976   1.725  0.2860  0.4566 -1.1078
  155MOL    O7134259   7.463   5.970   1.834  0.5658  0.6291 -0.4188
  155MOL    C7234260   7.641   5.884   1.690  0.7099 -0.7195 -0.5480
  155MOL    H7334261   7.306   6.130   1.511 -1.6137  1.1200  1.6099
  155MOL    H7434262   7.273   6.129   1.671 -0.1963 -1.6045  1.1201
  155MOL    H7534263   7.522   6.058   1.525 -0.7551 -2.3799  0.7011
  155MOL    H7634264   7.691   5.924   1.602  0.9313 -0.3414 -0.2536
  155MOL    H7734265   7.711   5.890   1.774  0.8859  0.0707 -0.7502
  155MOL    H7834266   7.597   5.785   1.675 -1.7585  0.2405  0.0382
  155MOL    C7934267   7.522   6.222   1.661 -0.0900  0.1509 -0.0387
  155MOL    C8034268   7.483   6.330   1.562 -0.5241 -0.1768 -0.7727
  155MOL    C8134269   7.545   6.306   1.420 -0.3411 -0.8595 -0.5641
  155MOL    O8234270   7.657   6.256   1.420 -0.5280 -0.1313 -0.1590
  155MOL    C8334271   7.459   6.322   1.301 -0.2880 -0.7974 -0.1172
  155MOL    H8434272   7.630   6.213   1.677 -0.1587 -1.4516 -0.4451
  155MOL    H8534273   7.479   6.245   1.758  0.1975  1.9614 -0.3188
  155MOL    H8634274   7.374   6.331   1.550 -0.7168 -0.8229  0.8553
  155MOL    H8734275   7.503   6.282   1.209 -0.4212 -2.7900  0.6449
  155MOL    H8834276   7.454   6.428   1.276 -2.1515 -0.7673  0.3362
  155MOL    H8934277   7.358   6.282   1.305 -0.3185 -0.9213 -1.8432
  155MOL    C9034278   7.521   6.472   1.610  0.2018 -0.1069 -0.6087
  155MOL    C9134279   7.415   6.535   1.709  0.4278  0.2432  0.2853
  155MOL    C9234280   7.488   6.651   1.782 -0.0617 -0.5656 -0.1238
  155MOL    O9334281   7.544   6.628   1.886  0.4547 -0.3604 -0.6051
  155MOL    C9434282   7.487   6.786   1.720 -0.0977 -0.1981  0.3017
  155MOL    H9534283   7.621   6.472   1.654 -0.0203  2.3191 -0.0115
  155MOL    H9634284   7.510   6.548   1.533 -0.1325  0.2117 -0.2514
  155MOL    H9734285   7.404   6.466   1.792  0.3110 -2.9254 -2.2368
  155MOL    H9834286   7.410   6.850   1.761  0.3804  0.4446  0.2095
  155MOL    H9934287   7.583   6.836   1.736  1.7624 -3.5174  0.1166
  155MOL   H10034288   7.467   6.781   1.613  0.5055  0.6136  0.1436
  155MOL   C10134289   7.278   6.569   1.651  0.1395  0.2363 -0.1791
  155MOL   C10234290   7.167   6.547   1.761 -0.4119 -0.3390 -0.0362
  155MOL   C10334291   7.129   6.394   1.779  0.1521 -0.4058  0.2379
  155MOL   O10434292   7.113   6.321   1.681 -0.1232 -0.4174  0.1200
  155MOL   C10534293   7.102   6.342   1.925 -0.4885  0.1161  0.4690
  155MOL   H10634294   7.278   6.669   1.608  0.2478 -0.6882 -2.4142
  155MOL   H10734295   7.254   6.507   1.565 -0.7341 -0.7297  0.7543
  155MOL   H10834296   7.207   6.582   1.857 -1.5547  0.5531  0.1209
  155MOL   H10934297   7.135   6.406   2.007 -1.1638  1.1805 -0.0756
  155MOL   H11034298   6.994   6.340   1.935 -0.3365 -2.2348  2.1829
  155MOL   H11134299   7.143   6.242   1.938 -1.2644 -0.0836  1.4472
  155MOL   C11234300   7.041   6.629   1.727  0.0892  0.3080 -0.2982
  155MOL   C11334301   7.003   6.731   1.840 -0.2066 -0.4069  0.6461
  155MOL   C11434302   7.105   6.849   1.849  0.2591 -0.4277 -0.2665
  155MOL   O11534303   7.210   6.846   1.919  0.0374 -0.2330 -0.1626
  155MOL   C11634304   7.072   6.978   1.779 -0.5666 -0.1911  0.4233
  155MOL   H11734305   6.963   6.555   1.711 -1.9756  1.6443  3.0444
  155MOL   H11834306   7.038   6.682   1.632 -1.0961 -0.3295 -0.6163
  155MOL   H11934307   6.904   6.758   1.803  0.0895 -1.7461 -1.1823
  155MOL   H12034308   7.108   7.074   1.817  0.5003 -0.0672 -0.8631
  155MOL   H12134309   7.113   6.965   1.680  1.0574 -0.3091  1.1063
  155MOL   H12234310   6.963   6.984   1.780 -0.4571  2.6434  0.8218
  155MOL   C12334311   6.984   6.673   1.981  0.0096 -0.6506  0.1336
  155MOL   C12434312   6.940   6.772   2.091  1.0086 -0.6636 -0.2030
  155MOL   C12534313   6.947   6.702   2.228  0.8359  0.0886 -0.1820
  155MOL   O12634314   6.865   6.615   2.257  0.2654  0.4889 -0.3192
  155MOL   C12734315   7.043   6.759   2.328 -0.0643  0.5292  0.1139
  155MOL   H12834316   7.068   6.607   2.002  1.6129  1.2652 -0.1467
  155MOL   H12934317   6.898   6.607   1.967 -1.2466  1.1447 -0.7653
  155MOL   H13034318   7.024   6.842   2.092 -0.1505  0.8474 -2.9567
  155MOL   H13134319   7.089   6.685   2.394  0.4347  0.9282  0.2139
  155MOL   H13234320   7.000   6.829   2.400  2.8755  0.2806  2.2221
  155MOL   H13334321   7.122   6.813   2.278  1.4323 -1.0709  0.6818
  155MOL   C13434322   6.807   6.846   2.060 -0.2972  0.3837  0.5509
  155MOL   C13534323   6.778   6.961   2.153  0.1782  0.5493  0.0300
  155MOL   C13634324   6.795   7.105   2.101 -0.1405  1.0239  0.7825
  155MOL   O13734325   6.773   7.138   1.984 -0.1853  0.7772  0.7067
  155MOL   C13834326   6.822   7.212   2.208 -0.5165 -0.7576 -0.4212
  155MOL   H13934327   6.728   6.771   2.057 -0.3184  0.3437  1.7589
  155MOL   H14034328   6.826   6.886   1.960  2.7949 -0.4397  0.7810
  155MOL   H14134329   6.843   6.963   2.240  0.8250  3.3609 -0.4449
  155MOL   H14234330   6.885   7.176   2.290  0.1236  1.0475 -0.0947
  155MOL   H14334331   6.728   7.240   2.256 -1.0163  0.7816 -2.2116
  155MOL   H14434332   6.880   7.297   2.173  0.0071  0.4435  3.1448
  155MOL   C14534333   6.650   6.951   2.233  0.5656  0.5461  0.0326
  155MOL   C14634334   6.523   6.941   2.148 -0.4581  0.2896 -0.0340
  155MOL   C14734335   6.435   6.825   2.203  0.4875  0.4602  0.1381
  155MOL   O14834336   6.333   6.848   2.268  0.1464  0.2519 -0.4164
  155MOL   C14934337   6.483   6.682   2.191 -0.1482  1.3202 -0.3327
  155MOL   H15034338   6.638   7.029   2.308 -1.2558 -0.5851  0.9491
  155MOL   H15134339   6.658   6.863   2.297  0.8057  1.2843  1.0361
  155MOL   H15234340   6.544   6.912   2.045 -2.6556 -1.8178  0.0654
  155MOL   H15334341   6.405   6.626   2.242 -0.2781  2.4807  0.7520
  155MOL   H15434342   6.493   6.642   2.090  2.0539 -0.5270  0.5528
  155MOL   H15534343   6.577   6.673   2.246  0.5099  0.2352 -1.5771
  155MOL   C15634344   6.445   7.067   2.135  0.5707 -0.7698  0.4983
  155MOL   C15734345   6.342   7.062   2.019  0.1980 -0.0443 -0.5834
  155MOL   C15834346   6.404   7.096   1.880 -0.0505 -0.4016 -0.3831
  155MOL   O15934347   6.381   7.033   1.780  0.5181  0.2263 -0.5574
  155MOL   C16034348   6.475   7.232   1.866 -0.0453  0.7646  0.0572
  155MOL   H16134349   6.394   7.079   2.230  2.5191  2.8234  1.1897
  155MOL   H16234350   6.516   7.150   2.123  1.4454 -1.3094  1.8423
  155MOL   H16334351   6.316   6.956   2.016 -2.8267  0.4516  3.4484
  155MOL   H16434352   6.528   7.265   1.956 -0.7284  1.1710  0.3171
  155MOL   H16534353   6.412   7.316   1.836 -2.8291 -0.7433  1.4685
  155MOL   H16634354   6.557   7.218   1.796 -0.2209  0.0055  0.0027
  155MOL   C16734355   6.213   7.142   2.048 -0.0530  0.2885 -0.0106
  155MOL   C16834356   6.092   7.093   1.969  0.1594  0.3445 -0.4183
  155MOL   C16934357   6.036   7.198   1.869  0.1141 -0.0456  0.1792
  155MOL   O17034358   6.034   7.317   1.889 -0.2507  0.6678 -0.3536
  155MOL   C17134359   5.985   7.155   1.736 -0.2324  0.6383  0.6016
  155MOL   H17234360   6.191   7.126   2.154  1.6756 -1.5499  0.1019
  155MOL   H17334361   6.229   7.247   2.027  1.3029  0.0853  0.0117
  155MOL   H17434362   6.122   7.010   1.905  1.4470  1.0446 -0.7393
  155MOL   H17534363   5.889   7.200   1.710 -0.5105  0.7321  1.8015
  155MOL   H17634364   5.982   7.047   1.733 -0.5842  0.6676 -0.9789
  155MOL   H17734365   6.050   7.195   1.658 -0.4447  0.0708  0.1295
  155MOL   C17834366   5.980   7.040   2.052  1.0702 -0.9339  0.3547
  155MOL   C17934367   6.010   6.909   2.128  0.0756 -0.0941  0.1658
  155MOL   C18034368   6.058   6.791   2.030  0.1547 -0.2315  0.6128
  155MOL   O18134369   6.169   6.734   2.034  0.7995 -0.7257  0.2805
  155MOL   C18234370   5.957   6.716   1.953  0.2074 -0.2974  0.2607
  155MOL   H18334371   5.953   7.109   2.132 -0.4402 -1.8055  0.6323
  155MOL   H18434372   5.893   7.023   1.988  1.8500 -0.4644 -0.8357
  155MOL   H18534373   6.095   6.930   2.192  1.0228  1.3633 -1.5141
  155MOL   H18634374   5.853   6.747   1.964  0.2579 -0.1131  0.2238
  155MOL   H18734375   5.968   6.608   1.944 -3.4252 -0.8240  1.1682
  155MOL   H18834376   5.973   6.743   1.848 -0.2514 -0.1903  0.2173
  155MOL   C18934377   5.891   6.867   2.222 -0.1396  0.2501  0.0866
  155MOL   C19034378   5.919   6.730   2.302 -0.9201 -0.1387 -0.3255
  155MOL   C19134379   6.042   6.723   2.387 -0.3191 -0.0481 -0.9215
  155MOL   O19234380   6.120   6.628   2.381  0.4593  0.4162 -0.2264
  155MOL   C19334381   6.080   6.843   2.469  0.0335  0.1403  0.4768
  155MOL   H19434382   5.861   6.946   2.291 -0.6918 -0.5611  0.7907
  155MOL   H19534383   5.800   6.858   2.163  0.0270 -0.6977 -0.0352
  155MOL   H19634384   5.935   6.657   2.223 -0.7877  0.4027 -0.7966
  155MOL   H19734385   6.185   6.826   2.492  0.7448  1.3124 -1.8053
  155MOL   H19834386   6.072   6.937   2.414 -1.4274  2.1260  3.8745
  155MOL   H19934387   6.030   6.859   2.565 -1.8717  0.9848 -0.6174
  155MOL   C20034388   5.801   6.690   2.382  0.6151 -0.4723  0.1838
  155MOL   C20134389   5.814   6.568   2.473 -0.2006  0.5262 -0.3303
  155MOL   C20234390   5.837   6.438   2.397  0.1670  0.4918  0.1316
  155MOL   O20334391   5.901   6.345   2.447  0.2948 -0.3394 -0.2216
  155MOL   C20434392   5.773   6.426   2.262  0.7992 -0.6731 -0.8694
  155MOL   H20534393   5.782   6.772   2.452 -0.3643 -1.5302  1.1787
  155MOL   H20634394   5.707   6.685   2.327  0.5864 -0.8095  0.2638
  155MOL   H20734395   5.902   6.558   2.536 -1.3591  2.2081  1.6365
  155MOL   H20834396   5.755   6.320   2.243 -3.1730 -0.3911  0.8398
  155MOL   H20934397   5.670   6.461   2.268  1.0981  0.1795 -0.5763
  155MOL   H21034398   5.834   6.472   2.185 -1.2287  2.8162 -0.4664
  155MOL   C21134399   5.691   6.555   2.572  0.9127 -0.2986  0.0749
  155MOL   C21234400   5.699   6.448   2.684  0.3375  0.4206 -0.1743
  155MOL   C21334401   5.792   6.476   2.799  0.1636  0.1089  0.2025
  155MOL   O21434402   5.825   6.591   2.822  0.3696 -0.9054 -0.5355
  155MOL   C21534403   5.845   6.367   2.893 -0.9711  0.1918  0.6170
  155MOL   H21634404   5.666   6.646   2.626 -0.6756 -1.6763  1.7016
  155MOL   H21734405   5.600   6.531   2.517 -0.1578  1.4361  1.0515
  155MOL   H21834406   5.719   6.352   2.636 -1.7754  0.2611 -0.8140
  155MOL   H21934407   5.897   6.307   2.819  1.1311  2.6064  0.0475
  155MOL   H22034408   5.914   6.403   2.970 -0.4734  0.2703  0.1339
  155MOL   H22134409   5.758   6.317   2.935 -1.3459 -0.1181 -0.4997
  155MOL   H22234410   5.602   6.434   2.733  1.0249 -0.6235  0.9197
  156MOL     C134411   0.841   6.945   4.416  0.8018  0.1809  0.5433
  156MOL     C234412   0.848   6.862   4.548 -0.5822 -0.1128  0.9045
  156MOL     C334413   0.704   6.859   4.599 -0.3949  0.2667  0.5447
  156MOL     O434414   0.624   6.775   4.564  0.1328  0.4315 -0.6253
  156MOL     C534415   0.649   6.984   4.662 -0.3308 -0.0589 -0.2860
  156MOL     H634416   0.781   6.887   4.347  0.8894 -0.5617  1.0930
  156MOL     H734417   0.939   6.964   4.371  0.8494 -1.3164 -0.0140
  156MOL     H834418   0.918   6.920   4.608  2.6869 -0.1779 -2.6402
  156MOL     H934419   0.611   6.952   4.759  0.1721  0.3260  0.0416
  156MOL    H1034420   0.733   7.050   4.686 -0.9385  0.2298  1.1007
  156MOL    H1134421   0.572   7.019   4.593 -1.7820 -3.0882 -0.2645
  156MOL    H1234422   0.792   7.042   4.423  0.9261  0.3654 -0.9764
  156MOL    C1334423   0.904   6.726   4.519 -1.0451  0.5789 -0.1913
  156MOL    C1434424   0.925   6.643   4.651 -0.2100 -0.2699  0.1620
  156MOL    C1534425   1.073   6.610   4.675 -0.2870 -0.2066 -0.1825
  156MOL    O1634426   1.108   6.491   4.692 -0.4416  0.2306 -0.1059
  156MOL    C1734427   1.171   6.726   4.668 -0.4152  1.0777 -0.1514
  156MOL    H1834428   0.833   6.676   4.454 -0.8493  0.2433 -0.1479
  156MOL    H1934429   0.991   6.731   4.452 -2.7712 -0.7058 -2.6034
  156MOL    H2034430   0.897   6.693   4.744  0.4676 -0.6491  0.5669
  156MOL    H2134431   1.237   6.716   4.582 -1.1371  1.2033 -0.7201
  156MOL    H2234432   1.131   6.827   4.662 -0.0331  1.3230  1.2083
  156MOL    H2334433   1.230   6.723   4.760 -0.4176  2.2640 -0.1037
  156MOL    C2434434   0.834   6.519   4.643 -0.3882 -0.6203 -0.1338
  156MOL    C2534435   0.815   6.450   4.772 -0.4618 -1.1293 -0.0136
  156MOL    C2634436   0.715   6.523   4.861  0.2551  0.1969 -0.1255
  156MOL    O2734437   0.634   6.608   4.825  0.3732  0.0658  0.3515
  156MOL    C2834438   0.720   6.486   5.011  0.2105 -0.7362 -0.7272
  156MOL    H2934439   0.741   6.549   4.595  0.5107  1.1021 -0.8234
  156MOL    H3034440   0.879   6.454   4.567  0.7194 -0.5724  0.4690
  156MOL    H3134441   0.909   6.429   4.824 -0.2201 -2.4862 -0.9751
  156MOL    H3234442   0.622   6.443   5.030 -0.5801  1.7138  1.0428
  156MOL    H3334443   0.790   6.408   5.042  0.6304 -0.2632 -0.4737
  156MOL    H3434444   0.719   6.570   5.080 -2.5930  0.1148 -1.7348
  156MOL    C3534445   0.754   6.302   4.756  0.0071  0.6785 -0.4144
  156MOL    C3634446   0.857   6.195   4.717 -0.7359 -0.7776 -0.0182
  156MOL    C3734447   0.948   6.143   4.832 -1.3179  0.3249 -0.5570
  156MOL    O3834448   0.935   6.028   4.879  0.3160  0.0885 -0.4302
  156MOL    C3934449   1.046   6.237   4.898 -0.0188 -0.1330 -0.0526
  156MOL    H4034450   0.677   6.299   4.678 -1.1363 -0.7439  0.7420
  156MOL    H4134451   0.690   6.278   4.842 -0.5037  0.2931 -0.8991
  156MOL    H4234452   0.932   6.252   4.662 -0.7208 -1.0903 -0.3218
  156MOL    H4334453   1.124   6.260   4.825 -1.3178 -0.4619 -1.5668
  156MOL    H4434454   1.086   6.175   4.978 -0.3205 -1.8007 -1.1621
  156MOL    H4534455   0.999   6.327   4.936  0.6747  0.5895 -0.8849
  156MOL    C4634456   0.811   6.092   4.615  0.5769 -0.2085 -0.3591
  156MOL    C4734457   0.925   6.005   4.557  1.5216  0.0799  0.0877
  156MOL    C4834458   0.859   5.872   4.513  0.3109 -0.7078  0.1483
  156MOL    O4934459   0.822   5.860   4.397  0.4430  0.0390 -0.1629
  156MOL    C5034460   0.843   5.762   4.615  0.4339 -0.2654  0.5996
  156MOL    H5134461   0.761   6.149   4.537  2.0659  2.2473  0.4304
  156MOL    H5234462   0.739   6.034   4.672 -1.2833  1.4991 -0.9325
  156MOL    H5334463   0.997   5.973   4.632 -1.0898 -1.8376  1.8523
  156MOL    H5434464   0.879   5.675   4.561 -2.3941 -1.7891  1.1053
  156MOL    H5534465   0.912   5.780   4.697  0.2368  1.1717  0.4809
  156MOL    H5634466   0.741   5.746   4.649  0.2165  2.3623  1.3466
  156MOL    C5734467   1.009   6.065   4.447 -0.0445 -0.2793  0.3270
  156MOL    C5834468   1.115   5.978   4.386 -0.6194  0.3832 -0.7884
  156MOL    C5934469   1.139   6.023   4.247  0.3383  0.1754 -0.1204
  156MOL    O6034470   1.241   6.085   4.217 -0.1999  0.4782  0.5335
  156MOL    C6134471   1.034   5.991   4.141 -0.0843  0.1806 -0.3238
  156MOL    H6234472   1.047   6.159   4.488 -3.5572  1.0589  0.6736
  156MOL    H6334473   0.945   6.101   4.367  0.2349 -1.0343 -0.2465
  156MOL    H6434474   1.081   5.874   4.384 -1.8391  0.7634  0.1589
  156MOL    H6534475   0.981   5.897   4.157  0.8709 -0.1553  0.9638
  156MOL    H6634476   0.968   6.077   4.128 -0.8630 -0.2692  0.5843
  156MOL    H6734477   1.084   5.970   4.046  2.7319  1.8337  0.7183
  156MOL    C6834478   1.240   5.972   4.468  0.5504  0.9322  0.0911
  156MOL    C6934479   1.327   5.839   4.454 -0.1141  0.0737  0.4517
  156MOL    C7034480   1.255   5.725   4.533 -1.1509  0.7197  0.2892
  156MOL    O7134481   1.181   5.751   4.627  0.4991 -0.2256  0.4639
  156MOL    C7234482   1.280   5.580   4.483  0.5559  0.2322 -0.1694
  156MOL    H7334483   1.305   6.059   4.459  0.7622  0.7595 -0.0426
  156MOL    H7434484   1.222   5.976   4.575 -0.5032 -2.3712  0.1069
  156MOL    H7534485   1.347   5.813   4.351  2.7046 -0.0625  0.9939
  156MOL    H7634486   1.207   5.514   4.529  1.5186 -0.8519 -0.1766
  156MOL    H7734487   1.262   5.581   4.376 -0.0459  1.4002 -0.0663
  156MOL    H7834488   1.380   5.539   4.496  1.1190  0.3038 -3.6859
  156MOL    C7934489   1.472   5.857   4.512  0.6604  0.5065 -0.1010
  156MOL    C8034490   1.568   5.937   4.424 -0.6052  0.4511 -0.5381
  156MOL    C8134491   1.575   5.874   4.287  0.3439  0.0220  0.1641
  156MOL    O8234492   1.562   5.752   4.269 -0.1591 -0.1940 -0.0882
  156MOL    C8334493   1.609   5.967   4.167 -0.7343 -0.7125 -0.0134
  156MOL    H8434494   1.513   5.756   4.510  1.2680  0.7547 -0.3191
  156MOL    H8534495   1.473   5.890   4.616 -1.5891  1.9963 -0.5129
  156MOL    H8634496   1.530   6.039   4.410 -0.0164  0.5873 -1.1543
  156MOL    H8734497   1.698   6.029   4.175 -0.3107 -1.3611  0.3797
  156MOL    H8834498   1.533   6.042   4.146  0.3311  0.1688 -0.7556
  156MOL    H8934499   1.622   5.904   4.079 -0.6036  0.4329 -0.8179
  156MOL    C9034500   1.710   5.957   4.479 -0.9412  0.1269  0.0007
  156MOL    C9134501   1.723   6.055   4.606 -0.2914  0.7086 -1.0564
  156MOL    C9234502   1.870   6.048   4.664  0.0322  0.9157  0.0444
  156MOL    O9334503   1.963   6.015   4.593 -0.0891  0.3382 -0.0892
  156MOL    C9434504   1.890   6.094   4.805  0.2405 -0.2236  0.2140
  156MOL    H9534505   1.749   5.861   4.513 -0.5364  0.3905  0.2839
  156MOL    H9634506   1.780   5.986   4.401 -0.6455 -1.5252 -0.3529
  156MOL    H9734507   1.655   6.033   4.688 -1.0174 -0.4157 -1.9435
  156MOL    H9834508   1.812   6.053   4.869 -0.3623 -1.6605 -1.4004
  156MOL    H9934509   1.984   6.057   4.845 -0.7404 -2.5000  0.4826
  156MOL   H10034510   1.899   6.202   4.798 -0.0752 -0.1251  1.2395
  156MOL   C10134511   1.688   6.205   4.572 -0.7395 -0.0915 -0.1762
  156MOL   C10234512   1.619   6.268   4.687  0.1114 -0.4161  0.2064
  156MOL   C10334513   1.469   6.241   4.688 -0.9016  0.7534 -0.0919
  156MOL   O10434514   1.419   6.140   4.747 -0.0659  0.5995 -0.1466
  156MOL   C10534515   1.371   6.326   4.605  0.3678  0.4701  0.2590
  156MOL   H10634516   1.787   6.249   4.558  0.5206 -1.8791  2.5598
  156MOL   H10734517   1.634   6.224   4.480  1.6317  0.3144 -1.5356
  156MOL   H10834518   1.653   6.215   4.776  2.6971 -0.7591 -0.9358
  156MOL   H10934519   1.367   6.430   4.638  0.5970  1.3654 -2.4328
  156MOL   H11034520   1.398   6.341   4.501  3.4545  0.7357  1.0653
  156MOL   H11134521   1.274   6.275   4.605  0.0258  1.1131  0.1676
  156MOL   C11234522   1.650   6.422   4.718 -0.1400 -0.5262  1.0641
  156MOL   C11334523   1.647   6.457   4.869  0.1372 -0.2076  0.2128
  156MOL   C11434524   1.499   6.496   4.913 -0.4462  0.9397 -0.0593
  156MOL   O11534525   1.442   6.604   4.878 -0.7010  0.4556  0.1433
  156MOL   C11634526   1.426   6.396   5.003  0.3709  0.2460  0.8131
  156MOL   H11734527   1.588   6.496   4.667 -1.2269 -1.0787  1.5827
  156MOL   H11834528   1.750   6.431   4.674 -0.3284  0.0156  0.7293
  156MOL   H11934529   1.676   6.372   4.930  2.2550 -0.4855 -1.1565
  156MOL   H12034530   1.477   6.301   5.016 -1.0068 -0.6861 -0.4108
  156MOL   H12134531   1.421   6.446   5.100  1.5448  1.1049  0.4410
  156MOL   H12234532   1.327   6.384   4.958  1.2611 -0.2835 -1.0496
  156MOL   C12334533   1.747   6.573   4.900  0.1093 -0.0192 -0.1483
  156MOL   C12434534   1.759   6.634   5.046 -0.1205  0.5191  0.1236
  156MOL   C12534535   1.834   6.767   5.050  0.3994 -0.1246  0.1043
  156MOL   O12634536   1.937   6.786   4.981  0.6235 -0.0909  0.1672
  156MOL   C12734537   1.777   6.882   5.122 -0.2829  0.5342 -0.5033
  156MOL   H12834538   1.728   6.651   4.826  2.4522  0.8179  0.1060
  156MOL   H12934539   1.843   6.527   4.876  0.4111  0.8046 -0.5377
  156MOL   H13034540   1.655   6.661   5.067  0.0537  0.7019  0.7617
  156MOL   H13134541   1.682   6.857   5.169 -0.2343  0.7052 -0.3110
  156MOL   H13234542   1.747   6.955   5.047  1.3355  0.9711 -0.7580
  156MOL   H13334543   1.845   6.929   5.194  0.7780  1.4947 -2.0967
  156MOL   C13434544   1.807   6.530   5.154  0.5620 -0.1830  0.2569
  156MOL   C13534545   1.769   6.571   5.298  0.5312 -0.7607  0.0831
  156MOL   C13634546   1.624   6.515   5.334  0.0148 -0.6080  0.0025
  156MOL   O13734547   1.531   6.594   5.347 -0.1083  0.3919  0.1477
  156MOL   C13834548   1.586   6.367   5.328 -0.6365 -0.4576 -0.3415
  156MOL   H13934549   1.914   6.520   5.137  0.7567  0.3276  1.1775
  156MOL   H14034550   1.778   6.429   5.124 -1.1698  0.6621 -1.0196
  156MOL   H14134551   1.769   6.680   5.298  0.8584 -0.7080 -3.0831
  156MOL   H14234552   1.626   6.322   5.419 -0.8430 -0.2544 -0.1515
  156MOL   H14334553   1.611   6.313   5.236  1.5653 -2.0569  1.1398
  156MOL   H14434554   1.477   6.373   5.326 -0.4996  3.6612  0.8024
  156MOL   C14534555   1.859   6.513   5.419 -1.1209  0.7568 -0.5589
  156MOL   C14634556   1.872   6.610   5.539 -0.4568 -0.6100  0.7114
  156MOL   C14734557   1.916   6.540   5.664 -0.1340 -1.1228  0.4994
  156MOL   O14834558   1.974   6.433   5.666  0.1280 -0.2689 -0.2993
  156MOL   C14934559   1.881   6.616   5.797  0.2100 -0.1517  0.9436
  156MOL   H15034560   1.957   6.481   5.384 -1.4808  1.3389 -2.1814
  156MOL   H15134561   1.816   6.419   5.454  2.6773 -0.2908  1.5810
  156MOL   H15234562   1.772   6.650   5.560  0.1715  3.1943 -2.8523
  156MOL   H15334563   1.963   6.681   5.826  0.7213 -0.2577 -0.2534
  156MOL   H15434564   1.791   6.673   5.773 -1.2039 -3.1903 -1.4107
  156MOL   H15534565   1.860   6.534   5.867  1.2655 -0.6053  0.7357
  156MOL   C15634566   1.963   6.736   5.500  0.4874 -0.3910  0.3288
  156MOL   C15734567   1.955   6.856   5.591 -0.1511  0.1980  0.0957
  156MOL   C15834568   1.885   6.979   5.527 -0.2986  0.3469 -0.5435
  156MOL   O15934569   1.876   6.999   5.405 -0.1914  0.0731  0.1490
  156MOL   C16034570   1.821   7.079   5.621 -0.1752 -0.4511 -1.1182
  156MOL   H16134571   2.062   6.691   5.491  1.0594  0.8439  0.3459
  156MOL   H16234572   1.937   6.766   5.398  0.1045 -1.6753  0.0377
  156MOL   H16334573   1.896   6.830   5.679 -0.3294  0.6675  0.1201
  156MOL   H16434574   1.714   7.092   5.611  0.0592  1.1047 -1.8128
  156MOL   H16534575   1.878   7.172   5.611 -0.9085  0.0527 -0.5987
  156MOL   H16634576   1.835   7.047   5.724 -0.4692  2.0422 -0.2625
  156MOL   C16734577   2.101   6.874   5.641  0.4745 -0.3925  0.1771
  156MOL   C16834578   2.121   6.976   5.754 -0.0817 -0.0860  0.3035
  156MOL   C16934579   2.267   7.013   5.768 -0.4100 -0.5158  0.1584
  156MOL   O17034580   2.300   7.124   5.717 -0.1993  0.1561  0.2424
  156MOL   C17134581   2.372   6.909   5.813 -0.5249 -0.1510  0.2808
  156MOL   H17234582   2.129   6.773   5.670 -0.4698  0.0287  2.7138
  156MOL   H17334583   2.160   6.904   5.554 -0.7389 -0.9210 -0.8313
  156MOL   H17434584   2.076   7.066   5.711 -0.5596 -1.5062 -2.3098
  156MOL   H17534585   2.405   6.856   5.723 -0.3155  1.2884 -0.5084
  156MOL   H17634586   2.326   6.840   5.884  0.0988 -1.1750 -0.2878
  156MOL   H17734587   2.447   6.961   5.872 -0.5077  0.4656 -0.2752
  156MOL   C17834588   2.052   6.928   5.886 -0.4998  0.0031 -0.4336
  156MOL   C17934589   2.056   7.033   6.003 -0.1415 -0.3849 -0.0626
  156MOL   C18034590   2.020   6.961   6.141 -0.3647 -0.1508  0.6647
  156MOL   O18134591   1.943   6.869   6.147 -0.8612  0.1076 -0.2875
  156MOL   C18234592   2.085   6.996   6.272 -0.7217 -0.3364  0.0174
  156MOL   H18334593   1.949   6.900   5.868 -0.4719 -0.1027 -0.4240
  156MOL   H18434594   2.099   6.835   5.917  1.7866  0.8298 -1.2695
  156MOL   H18534595   2.159   7.063   6.019 -0.2757  0.5670 -0.9586
  156MOL   H18634596   2.061   7.095   6.311  1.9364  0.0032  0.8779
  156MOL   H18734597   2.194   6.996   6.266 -0.6148 -0.0784  1.7324
  156MOL   H18834598   2.065   6.920   6.348  1.8645  0.5890  1.6602
  156MOL   C18934599   1.968   7.155   5.973 -0.7159 -0.0944 -0.3045
  156MOL   C19034600   1.983   7.275   6.063 -0.2294  0.2351 -0.1434
  156MOL   C19134601   2.078   7.385   6.007  0.3533  0.3103  0.2479
  156MOL   O19234602   2.049   7.504   6.011 -0.0149  0.7183 -0.1301
  156MOL   C19334603   2.203   7.349   5.924  0.1986  0.3903  0.0654
  156MOL   H19434604   1.987   7.184   5.870 -0.2803 -0.7263 -0.4101
  156MOL   H19534605   1.869   7.109   5.974  0.1151 -1.9661 -0.1940
  156MOL   H19634606   2.021   7.250   6.162  0.1961 -1.7782 -0.7855
  156MOL   H19734607   2.289   7.416   5.936  0.1989  0.7448 -1.7962
  156MOL   H19834608   2.240   7.250   5.950 -0.4689  0.2194  0.3808
  156MOL   H19934609   2.173   7.350   5.819  2.6545 -1.9790 -0.7336
  156MOL   C20034610   1.847   7.335   6.092 -0.6307 -0.1197 -0.1484
  156MOL   C20134611   1.768   7.245   6.182 -0.3445  1.1499 -0.6924
  156MOL   C20234612   1.617   7.245   6.148  0.4396  0.5037 -0.1415
  156MOL   O20334613   1.547   7.345   6.156  0.7175  0.0003  0.4780
  156MOL   C20434614   1.558   7.113   6.119  0.4544  0.4392  0.4281
  156MOL   H20534615   1.842   7.435   6.135 -1.5872 -0.3640  0.3310
  156MOL   H20634616   1.796   7.362   6.000 -0.3804  0.9218  0.0205
  156MOL   H20734617   1.790   7.141   6.159  0.2789  1.3745 -1.1485
  156MOL   H20834618   1.577   7.093   6.013  0.5580 -0.5575  0.6314
  156MOL   H20934619   1.613   7.045   6.184  0.5422 -0.7646 -0.8880
  156MOL   H21034620   1.450   7.108   6.130  0.1767  0.7268 -1.9256
  156MOL   C21134621   1.802   7.286   6.328  0.0744 -0.5752  0.1878
  156MOL   C21234622   1.721   7.236   6.444  0.7947 -0.0833  0.6039
  156MOL   C21334623   1.743   7.091   6.476  0.3000  0.0604  0.4465
  156MOL   O21434624   1.703   7.000   6.409  1.2325  0.4503 -1.0728
  156MOL   C21534625   1.824   7.055   6.595  0.0687 -0.3218 -0.2343
  156MOL   H21634626   1.904   7.257   6.354 -0.3996 -1.8529  0.6151
  156MOL   H21734627   1.799   7.395   6.335  1.4642 -0.4348 -1.0768
  156MOL   H21834628   1.613   7.253   6.438  0.8653 -0.2452 -1.5965
  156MOL   H21934629   1.900   6.988   6.556 -1.0200 -0.1001 -2.8534
  156MOL   H22034630   1.871   7.146   6.633 -0.6119 -0.0676  0.0091
  156MOL   H22134631   1.766   7.006   6.673  0.6537 -0.8077 -0.1077
  156MOL   H22234632   1.746   7.287   6.537  0.3760  0.6476  0.3261
  157MOL     C134633   3.741   3.861   4.063  0.2269  0.2233  0.0319
  157MOL     C234634   3.719   3.804   3.915 -0.1401 -0.3904 -0.0088
  157MOL     C334635   3.825   3.688   3.885  0.3183 -0.4550 -0.4963
  157MOL     O434636   3.791   3.571   3.888  0.5143 -0.3019  0.1407
  157MOL     C534637   3.964   3.726   3.835 -0.2127  0.3002 -0.1169
  157MOL     H634638   3.844   3.890   4.086 -0.2195  0.7320  1.3947
  157MOL     H734639   3.695   3.809   4.147  2.3674 -1.0226  0.4707
  157MOL     H834640   3.729   3.886   3.844 -0.5543  0.8273  1.3035
  157MOL     H934641   3.970   3.835   3.826  0.9227  0.1915 -0.7493
  157MOL    H1034642   4.038   3.682   3.901 -0.7974  1.5739  1.4134
  157MOL    H1134643   3.982   3.686   3.735 -2.6598 -0.2191 -0.3768
  157MOL    H1234644   3.686   3.953   4.077 -1.1249 -0.7627  1.3966
  157MOL    C1334645   3.573   3.749   3.886 -0.9606 -0.0671  0.4955
  157MOL    C1434646   3.538   3.711   3.737 -0.0993  0.9357  0.7165
  157MOL    C1534647   3.569   3.833   3.641  0.2129  0.3799 -0.8940
  157MOL    O1634648   3.644   3.822   3.546 -0.3528  0.2457 -0.2339
  157MOL    C1734649   3.519   3.968   3.678 -0.3097  0.4635 -0.4386
  157MOL    H1834650   3.553   3.663   3.950 -1.3277  0.2085  0.7597
  157MOL    H1934651   3.506   3.819   3.938 -1.0038  0.1696  0.1204
  157MOL    H2034652   3.612   3.636   3.709  0.4171  1.3553  0.9440
  157MOL    H2134653   3.574   4.014   3.760  0.7543 -2.7066  0.7170
  157MOL    H2234654   3.528   4.040   3.597 -0.6797  1.5163  0.4481
  157MOL    H2334655   3.421   3.955   3.725  0.3173 -2.3481  0.2017
  157MOL    C2434656   3.391   3.663   3.719 -0.2762  0.3870  0.7086
  157MOL    C2534657   3.339   3.612   3.579  0.3149 -0.5665 -0.4542
  157MOL    C2634658   3.418   3.487   3.527  0.3715 -0.0504  0.2767
  157MOL    O2734659   3.407   3.376   3.585  0.4168  0.1659 -0.2929
  157MOL    C2834660   3.515   3.510   3.410  0.0754  0.3154 -0.1259
  157MOL    H2934661   3.372   3.580   3.787 -0.1964 -1.2359 -1.2003
  157MOL    H3034662   3.333   3.746   3.758  0.4623  0.9197  0.6950
  157MOL    H3134663   3.371   3.687   3.506 -0.0339 -1.7300 -1.8088
  157MOL    H3234664   3.615   3.477   3.436  0.1540 -0.1944 -1.0708
  157MOL    H3334665   3.480   3.449   3.327  1.7597  0.2085 -0.7746
  157MOL    H3434666   3.539   3.614   3.387  0.7578  0.3479  0.7360
  157MOL    C3534667   3.190   3.594   3.558  0.3103 -0.4448 -0.1191
  157MOL    C3634668   3.105   3.484   3.631  0.3936 -0.2498 -0.0340
  157MOL    C3734669   3.054   3.532   3.771  0.7697 -0.3454 -0.2965
  157MOL    O3834670   3.042   3.651   3.803 -0.0014 -0.8566  0.0743
  157MOL    C3934671   3.028   3.424   3.876  0.5390  0.4946 -0.4877
  157MOL    H4034672   3.178   3.594   3.450 -1.6934  1.5185  0.0762
  157MOL    H4134673   3.149   3.693   3.576  0.8293 -0.3792  0.7418
  157MOL    H4234674   3.164   3.393   3.640  2.1434  0.9940  1.5024
  157MOL    H4334675   3.126   3.409   3.921  0.2759 -0.2018 -0.1309
  157MOL    H4434676   3.005   3.330   3.825  1.6917 -0.0950  0.0734
  157MOL    H4534677   2.951   3.440   3.952 -0.9814 -0.8473 -1.6979
  157MOL    C4634678   2.980   3.436   3.544  0.1725  0.2187  0.0925
  157MOL    C4734679   2.868   3.533   3.519 -0.3718  0.9717  0.5676
  157MOL    C4834680   2.877   3.596   3.378 -0.0048  0.1540  0.7170
  157MOL    O4934681   2.941   3.698   3.349 -0.0024 -0.0421 -0.5978
  157MOL    C5034682   2.796   3.525   3.272  0.0820 -0.4141 -0.4762
  157MOL    H5134683   2.941   3.345   3.591 -1.7214  1.3244  0.7295
  157MOL    H5234684   3.031   3.403   3.453  1.4631 -0.3082  0.9905
  157MOL    H5334685   2.878   3.622   3.582  0.3638  0.7145  0.8158
  157MOL    H5434686   2.824   3.556   3.171  0.7032 -2.4037 -0.9263
  157MOL    H5534687   2.804   3.417   3.277  2.1430 -0.2378  0.3960
  157MOL    H5634688   2.691   3.551   3.285 -0.2106 -2.0063  0.3920
  157MOL    C5734689   2.730   3.471   3.560  0.9854  0.6196 -0.1166
  157MOL    C5834690   2.699   3.467   3.710 -0.3101  0.6317  0.4082
  157MOL    C5934691   2.621   3.594   3.744  0.2083  0.4380 -0.8148
  157MOL    O6034692   2.501   3.614   3.712 -0.0811 -0.3164 -0.2467
  157MOL    C6134693   2.701   3.699   3.823 -0.2488 -0.2303  0.0297
  157MOL    H6234694   2.741   3.367   3.529 -1.0150  0.1839  0.5880
  157MOL    H6334695   2.646   3.513   3.504 -0.3039 -1.1554  0.4327
  157MOL    H6434696   2.793   3.459   3.765  0.1620  2.3547 -0.1351
  157MOL    H6534697   2.688   3.689   3.930 -1.7637 -0.6620 -0.1837
  157MOL    H6634698   2.801   3.720   3.784 -0.7518 -0.3815 -1.3623
  157MOL    H6734699   2.636   3.785   3.810 -0.2267 -0.2032  0.1001
  157MOL    C6834700   2.608   3.343   3.747 -0.6756  0.0232 -0.4591
  157MOL    C6934701   2.586   3.312   3.899  0.0871  0.1633  0.2498
  157MOL    C7034702   2.725   3.288   3.964 -0.4406  0.3456  0.2306
  157MOL    O7134703   2.813   3.232   3.900  0.0510  0.1233 -0.0821
  157MOL    C7234704   2.728   3.310   4.118 -0.5055  0.3667 -0.3992
  157MOL    H7334705   2.512   3.346   3.695 -0.8877 -1.9663 -0.2232
  157MOL    H7434706   2.651   3.252   3.706 -0.7885 -0.4962  0.5695
  157MOL    H7534707   2.551   3.406   3.942  0.9775 -0.3942  2.2705
  157MOL    H7634708   2.804   3.376   4.160 -1.6560  1.3678  0.1429
  157MOL    H7734709   2.628   3.326   4.157 -0.4756  1.6720 -0.8367
  157MOL    H7834710   2.763   3.215   4.159 -0.4422  1.2820  1.7215
  157MOL    C7934711   2.481   3.200   3.927 -0.2714  0.4243 -0.5629
  157MOL    C8034712   2.492   3.073   3.837 -0.0362  0.2504  0.7311
  157MOL    C8134713   2.341   3.024   3.818 -0.6243  0.0196 -0.7170
  157MOL    O8234714   2.272   2.995   3.911  0.0937 -0.1862  0.5338
  157MOL    C8334715   2.271   3.023   3.685  0.3853  0.3392  0.1345
  157MOL    H8434716   2.385   3.249   3.917  0.0869  1.5437  1.2821
  157MOL    H8534717   2.492   3.181   4.033  0.0266  1.4084 -0.4157
  157MOL    H8634718   2.522   3.104   3.737 -1.0762 -1.4614 -0.1357
  157MOL    H8734719   2.336   3.059   3.604  1.2040 -1.7878 -0.1925
  157MOL    H8834720   2.180   3.081   3.678  0.5157  0.4768 -0.4693
  157MOL    H8934721   2.243   2.919   3.666  2.9385 -0.2297 -0.8730
  157MOL    C9034722   2.582   2.958   3.886  0.6897  0.4307 -0.3180
  157MOL    C9134723   2.623   2.849   3.778  1.1692 -1.0660  0.0026
  157MOL    C9234724   2.701   2.910   3.668  0.2098  0.1079  0.6850
  157MOL    O9334725   2.652   2.948   3.559 -0.1047 -0.1655  0.4551
  157MOL    C9434726   2.851   2.931   3.688  0.5064 -0.3222  0.3886
  157MOL    H9534727   2.669   2.992   3.943 -1.0967  1.1395  2.1067
  157MOL    H9634728   2.530   2.908   3.968  2.8485 -1.1882  0.1381
  157MOL    H9734729   2.534   2.806   3.732  0.9374  0.2327 -0.7828
  157MOL    H9834730   2.880   3.008   3.616 -1.3188  0.1906  0.1745
  157MOL    H9934731   2.872   2.963   3.790  1.0796  1.1384 -0.1694
  157MOL   H10034732   2.914   2.849   3.652  1.1201 -0.3966  1.5939
  157MOL   C10134733   2.697   2.734   3.851  0.6218  0.0760  0.2988
  157MOL   C10234734   2.732   2.611   3.768  0.0077 -0.0972 -0.2585
  157MOL   C10334735   2.620   2.545   3.688  0.6612 -0.2711 -0.1383
  157MOL   O10434736   2.543   2.479   3.752 -0.3817 -0.2460  0.0293
  157MOL   C10534737   2.633   2.542   3.539 -0.0143 -0.1341 -0.1204
  157MOL   H10634738   2.782   2.773   3.908  0.4487  0.4054  0.3343
  157MOL   H10734739   2.633   2.689   3.927  1.0366 -1.2328 -0.1077
  157MOL   H10834740   2.793   2.662   3.694 -1.3361  0.9443 -0.6685
  157MOL   H10934741   2.538   2.563   3.489 -0.2405  0.9210  0.7198
  157MOL   H11034742   2.700   2.623   3.511  0.8125 -0.8272 -0.1594
  157MOL   H11134743   2.668   2.445   3.504  0.9929 -0.3270  1.3792
  157MOL   C11234744   2.818   2.507   3.850  0.3820 -0.5055  0.5986
  157MOL   C11334745   2.879   2.379   3.792  0.2823 -0.1494  0.3271
  157MOL   C11434746   2.964   2.315   3.899 -0.6272  0.0326 -0.1760
  157MOL   O11534747   3.086   2.346   3.913  0.2615  0.5499 -0.4445
  157MOL   C11634748   2.905   2.227   4.001 -0.1352 -0.6692  0.7217
  157MOL   H11734749   2.759   2.474   3.936 -0.3717  2.5778  1.3196
  157MOL   H11834750   2.894   2.566   3.901  0.9831 -0.6587 -0.1136
  157MOL   H11934751   2.796   2.313   3.769  0.8206 -0.8463  0.3763
  157MOL   H12034752   2.980   2.157   4.038  0.1204 -0.4262  0.6603
  157MOL   H12134753   2.876   2.278   4.093 -0.0140  0.0956  0.3364
  157MOL   H12234754   2.823   2.167   3.961  0.3940 -0.6832 -0.3514
  157MOL   C12334755   2.965   2.398   3.662  0.0831  0.0573  0.1327
  157MOL   C12434756   2.994   2.274   3.576 -0.2686 -0.7626  0.0041
  157MOL   C12534757   3.105   2.177   3.625 -0.1870 -0.1659 -0.5454
  157MOL   O12634758   3.225   2.208   3.611 -0.1466  0.7097  0.0009
  157MOL   C12734759   3.059   2.034   3.676  0.7009 -0.1765 -0.4119
  157MOL   H12834760   3.059   2.443   3.693 -0.4242  0.9237  0.4415
  157MOL   H12934761   2.925   2.478   3.600 -0.4003  0.5988  1.1294
  157MOL   H13034762   2.898   2.224   3.571 -1.7724  2.1578 -0.9938
  157MOL   H13134763   3.101   2.030   3.777 -0.9396  0.1324  0.2908
  157MOL   H13234764   3.117   1.963   3.616  2.5039 -0.3328  1.4470
  157MOL   H13334765   2.952   2.015   3.675  0.8871 -1.1964 -1.5458
  157MOL   C13434766   3.015   2.329   3.434 -0.3124 -0.1633 -0.1907
  157MOL   C13534767   3.029   2.226   3.316 -0.2713  0.9791 -0.6070
  157MOL   C13634768   2.914   2.127   3.298 -0.2807 -0.2627 -0.0068
  157MOL   O13734769   2.798   2.149   3.325 -0.0151 -0.5182  1.2246
  157MOL   C13834770   2.950   1.988   3.243 -0.2383 -0.4917  0.2567
  157MOL   H13934771   3.112   2.379   3.439  0.7079 -1.9718 -1.0710
  157MOL   H14034772   2.933   2.396   3.407 -1.3508 -1.8603 -1.3788
  157MOL   H14134773   3.117   2.169   3.344 -1.1638  0.2621  0.7957
  157MOL   H14234774   2.865   1.930   3.208  0.6219 -2.2842  1.0792
  157MOL   H14334775   3.005   1.940   3.323  1.1181  2.0976  0.9384
  157MOL   H14434776   3.024   1.999   3.163 -1.1585  2.1012 -0.2941
  157MOL   C14534777   3.085   2.292   3.187 -0.3743  0.1490  0.3366
  157MOL   C14634778   2.999   2.360   3.075 -0.2229 -0.1587 -0.1126
  157MOL   C14734779   2.930   2.485   3.125  0.0678 -0.5636  0.1465
  157MOL   O14834780   3.006   2.581   3.154  0.0920  0.3253  0.0766
  157MOL   C14934781   2.775   2.478   3.135  0.0163 -0.4750 -0.2015
  157MOL   H15034782   3.148   2.219   3.138  0.2917  1.1862 -0.3807
  157MOL   H15134783   3.157   2.369   3.215 -0.3806  0.3435 -0.1795
  157MOL   H15234784   2.916   2.299   3.037  0.8525 -1.5656 -0.2533
  157MOL   H15334785   2.725   2.393   3.088  0.7049 -0.4910 -0.9245
  157MOL   H15434786   2.750   2.500   3.238  0.2224  2.1869 -0.6819
  157MOL   H15534787   2.727   2.560   3.082 -1.8150 -1.1080  0.4541
  157MOL   C15634788   3.103   2.392   2.960  0.0618 -0.7554  0.0267
  157MOL   C15734789   3.043   2.479   2.842  0.1971 -0.6337  0.1695
  157MOL   C15834790   2.921   2.412   2.782 -0.5261  0.5587 -0.1833
  157MOL   O15934791   2.918   2.295   2.772 -0.4891  0.5386 -0.2086
  157MOL   C16034792   2.816   2.492   2.720  0.1150  0.0300  0.2755
  157MOL   H16134793   3.187   2.443   3.008 -0.2791  0.5344 -0.7012
  157MOL   H16234794   3.134   2.298   2.917 -1.1520 -1.5040  0.7584
  157MOL   H16334795   3.014   2.578   2.878  0.4308 -0.0022 -1.3315
  157MOL   H16434796   2.836   2.553   2.632  0.9363 -1.0864 -0.3189
  157MOL   H16534797   2.763   2.554   2.793 -1.5691  1.6368 -2.2640
  157MOL   H16634798   2.741   2.418   2.693 -0.2284 -0.0165  1.3162
  157MOL   C16734799   3.151   2.509   2.739  0.1657 -0.5058 -0.0492
  157MOL   C16834800   3.267   2.593   2.788 -0.3239 -0.3614 -0.4067
  157MOL   C16934801   3.226   2.746   2.810  0.2813 -0.1565  0.4727
  157MOL   O17034802   3.216   2.819   2.712 -0.2871 -0.0297 -0.3182
  157MOL   C17134803   3.177   2.790   2.945  0.2887  0.1347 -0.5532
  157MOL   H17234804   3.189   2.409   2.719 -0.9518 -1.2701  1.5770
  157MOL   H17334805   3.105   2.547   2.647  1.4957  1.2803  0.0018
  157MOL   H17434806   3.297   2.563   2.889  0.1547 -2.6781 -1.1938
  157MOL   H17534807   3.232   2.879   2.974 -1.7296  0.8587  1.2100
  157MOL   H17634808   3.208   2.733   3.033 -3.4141  1.2926  1.6213
  157MOL   H17734809   3.068   2.800   2.950 -0.1434 -2.5784 -3.2174
  157MOL   C17834810   3.390   2.576   2.699 -0.0903 -0.5851 -0.2319
  157MOL   C17934811   3.465   2.442   2.711  0.3104 -1.0260  0.2953
  157MOL   C18034812   3.516   2.394   2.846  0.1986 -0.5793 -0.3157
  157MOL   O18134813   3.553   2.471   2.929 -0.0630  0.0636 -0.1868
  157MOL   C18234814   3.502   2.245   2.881 -0.1099 -0.4106 -0.4000
  157MOL   H18334815   3.346   2.602   2.603 -1.7719 -0.6817  0.5012
  157MOL   H18434816   3.461   2.654   2.725 -1.8670  1.5090 -1.4522
  157MOL   H18534817   3.401   2.357   2.688 -0.3553 -0.3901 -0.2093
  157MOL   H18634818   3.399   2.208   2.878  0.2690 -1.5695  0.2158
  157MOL   H18734819   3.537   2.225   2.982 -0.4941 -2.4659 -0.6419
  157MOL   H18834820   3.565   2.187   2.813  1.8382  0.8507  0.2919
  157MOL   C18934821   3.587   2.446   2.614 -0.1581 -0.0397  0.2577
  157MOL   C19034822   3.706   2.550   2.633  0.7214  1.1016  0.2768
  157MOL   C19134823   3.845   2.474   2.651  0.0140 -0.4203 -0.3564
  157MOL   O19234824   3.875   2.371   2.588 -0.0802  0.0782  0.0844
  157MOL   C19334825   3.936   2.526   2.755 -0.2075  0.4591  0.7884
  157MOL   H19434826   3.623   2.343   2.620  0.6942  0.2326 -0.0883
  157MOL   H19534827   3.544   2.452   2.514  1.8727  0.6731 -0.5921
  157MOL   H19634828   3.700   2.576   2.739  0.2310  2.6883 -0.1394
  157MOL   H19734829   3.910   2.499   2.857 -1.0073  1.7263  0.9259
  157MOL   H19834830   4.030   2.472   2.738 -1.0689 -0.5400 -0.9963
  157MOL   H19934831   3.944   2.634   2.763 -0.3386  0.4565  0.9446
  157MOL   C20034832   3.710   2.655   2.524  0.3314 -0.7892  0.4983
  157MOL   C20134833   3.796   2.777   2.552 -0.4422  0.5803 -0.2536
  157MOL   C20234834   3.739   2.870   2.662 -0.0451 -0.3829  0.2617
  157MOL   O20334835   3.628   2.857   2.718  0.0744 -0.0751  0.8255
  157MOL   C20434836   3.841   2.967   2.729  0.0862  0.7754  0.0585
  157MOL   H20534837   3.738   2.603   2.433 -1.5622 -0.7063 -0.1554
  157MOL   H20634838   3.606   2.683   2.507  0.4189 -1.2881 -0.9155
  157MOL   H20734839   3.892   2.734   2.580  0.8569  2.3272 -1.8864
  157MOL   H20834840   3.945   2.935   2.719 -0.8631 -2.7591  0.6001
  157MOL   H20934841   3.834   3.068   2.689 -3.2789  0.9532  0.9135
  157MOL   H21034842   3.825   2.995   2.833  1.0507  2.7876 -0.3145
  157MOL   C21134843   3.841   2.856   2.419 -0.1099  0.6889  0.3882
  157MOL   C21234844   3.721   2.942   2.347  0.3040  0.1964 -0.6960
  157MOL   C21334845   3.749   3.022   2.220  0.1373  0.0178  0.5702
  157MOL   O21434846   3.866   3.066   2.191  0.2668 -0.0550 -0.0891
  157MOL   C21534847   3.631   3.061   2.134 -0.5662  0.0120 -0.2540
  157MOL   H21634848   3.922   2.920   2.454 -0.0994  1.7770 -1.5240
  157MOL   H21734849   3.884   2.790   2.344 -0.3707  1.5483 -0.5335
  157MOL   H21834850   3.670   3.004   2.421  1.1583  0.2150 -0.1117
  157MOL   H21934851   3.549   2.989   2.123 -0.5287  0.0376 -0.6838
  157MOL   H22034852   3.585   3.144   2.187 -1.2556 -1.0111  0.7925
  157MOL   H22134853   3.661   3.091   2.034  0.8019 -3.1945 -0.8646
  157MOL   H22234854   3.655   2.863   2.312 -1.3680  1.7716 -1.1521
  158MOL     C134855   1.940   7.849   6.730  0.0361  0.9931  0.3718
  158MOL     C234856   1.793   7.849   6.695 -0.4105  0.5315 -0.5792
  158MOL     C334857   1.734   0.131   6.696 -0.4490 -0.4629  0.4620
  158MOL     O434858   1.675   0.179   6.595 -0.4676  0.1196  0.0430
  158MOL     C534859   1.752   0.216   6.821  0.6172 -0.0600 -0.7775
  158MOL     H634860   2.000   0.057   6.667  0.6643  0.5353  0.4883
  158MOL     H734861   1.986   7.750   6.724  0.5674  1.2850 -0.4258
  158MOL     H834862   1.744   7.796   6.776  1.0214  0.3351  0.1688
  158MOL     H934863   1.721   0.165   6.912 -1.0113  3.8355  0.9997
  158MOL    H1034864   1.856   0.247   6.823  0.4319  0.6063 -0.9977
  158MOL    H1134865   1.678   0.297   6.818 -0.4975 -0.9523  1.6592
  158MOL    H1234866   1.946   0.025   6.833  1.1042 -2.3751  1.4745
  158MOL    C1334867   1.755   7.772   6.567  0.3875  0.3208 -0.6666
  158MOL    C1434868   1.624   7.691   6.577 -0.3997  0.0111  0.0573
  158MOL    C1534869   1.646   7.575   6.680  0.4035 -0.2402 -0.0327
  158MOL    O1634870   1.756   7.529   6.705 -1.1069  0.2175 -0.2574
  158MOL    C1734871   1.526   7.525   6.754 -0.1612  0.5519 -0.5150
  158MOL    H1834872   1.770   7.836   6.481  0.7660 -2.4761 -2.7461
  158MOL    H1934873   1.831   7.695   6.552 -0.1630 -0.3371 -0.0994
  158MOL    H2034874   1.536   7.744   6.614 -1.6359 -2.3674  0.6060
  158MOL    H2134875   1.472   7.614   6.787  0.8172  0.3427  1.6991
  158MOL    H2234876   1.466   7.470   6.681 -0.7318 -0.4421  0.6796
  158MOL    H2334877   1.550   7.459   6.837 -0.7408 -0.3862 -1.0809
  158MOL    C2434878   1.592   7.633   6.434 -0.4417  0.1291  0.4209
  158MOL    C2534879   1.507   7.713   6.337 -0.4061 -0.2483  0.3290
  158MOL    C2634880   1.361   7.733   6.379  0.0241 -0.1523  0.2031
  158MOL    O2734881   1.333   7.780   6.490 -0.4441  0.5712 -0.1644
  158MOL    C2834882   1.247   7.684   6.287 -0.4886 -0.5895 -0.2858
  158MOL    H2934883   1.684   7.595   6.391  0.4520  0.2300  2.1813
  158MOL    H3034884   1.534   7.543   6.455 -0.0888 -0.5732 -1.5046
  158MOL    H3134885   1.506   7.655   6.245  2.3279 -1.9284  1.2625
  158MOL    H3234886   1.269   7.580   6.261  1.2375 -0.6234  1.2551
  158MOL    H3334887   1.146   7.701   6.324 -0.4071 -2.4744  0.8482
  158MOL    H3434888   1.245   7.740   6.194 -3.2053 -1.5591 -0.8577
  158MOL    C3534889   1.566   7.848   6.290  0.4054  0.1490  0.8357
  158MOL    C3634890   1.708   7.839   6.223  0.1333 -0.4921 -0.3334
  158MOL    C3734891   1.695   7.797   6.079  0.6456  0.0706 -0.2408
  158MOL    O3834892   1.638   0.011   5.994  0.7671 -0.2598  0.4593
  158MOL    C3934893   1.758   7.667   6.043  0.6778 -0.0653  0.4206
  158MOL    H4034894   1.571   0.055   6.378  2.0003  0.5346  0.4842
  158MOL    H4134895   1.507   0.044   6.215 -0.1061 -3.0999 -1.1692
  158MOL    H4234896   1.767   7.763   6.275 -1.9999 -0.4077  2.3214
  158MOL    H4334897   1.704   7.624   5.958  0.4517 -0.4742  0.7727
  158MOL    H4434898   1.754   7.598   6.127  2.0329 -1.3801 -0.5656
  158MOL    H4534899   1.866   7.668   6.029  0.7571 -0.1931  0.9983
  158MOL    C4634900   1.786   0.122   6.232 -0.3062 -0.0001 -0.5068
  158MOL    C4734901   1.932   0.119   6.185  0.3149  0.0661  0.0038
  158MOL    C4834902   1.981   0.255   6.135 -0.3663  0.2806  0.5312
  158MOL    O4934903   1.994   0.348   6.211  0.3028 -0.0030 -0.8072
  158MOL    C5034904   2.006   0.265   5.991  0.0463  0.6260 -0.1807
  158MOL    H5134905   1.780   0.165   6.332 -1.5069 -1.5493  0.1035
  158MOL    H5234906   1.722   0.191   6.178 -1.7387  0.8749  2.2057
  158MOL    H5334907   1.923   0.061   6.093 -3.5443 -0.3020  0.5193
  158MOL    H5434908   2.094   0.218   5.949 -0.1662 -0.9710  1.0926
  158MOL    H5534909   1.918   0.223   5.942  1.5317 -0.5770 -1.8537
  158MOL    H5634910   2.024   0.372   5.979  1.1227  0.4627 -0.0490
  158MOL    C5734911   2.034   0.059   6.296  0.9110 -0.4727  0.1551
  158MOL    C5834912   2.116   7.792   6.259 -0.4470  0.3138 -0.0096
  158MOL    C5934913   2.239   7.836   6.179  0.1995 -0.4332 -0.0378
  158MOL    O6034914   2.287   0.093   6.191 -0.0254  0.2777 -0.3865
  158MOL    C6134915   2.296   7.746   6.066 -0.2655 -0.3281  0.6885
  158MOL    H6234916   1.966   0.030   6.376 -0.4530  2.8400  0.2861
  158MOL    H6334917   2.099   0.133   6.342  1.3931 -1.1249  0.5364
  158MOL    H6434918   2.059   7.718   6.203  0.7047  1.7816 -3.2965
  158MOL    H6534919   2.388   7.698   6.101 -0.1142  0.9288  2.0872
  158MOL    H6634920   2.216   7.676   6.043  0.2053 -0.5357 -0.3255
  158MOL    H6734921   2.301   7.794   5.969  0.2902 -0.7837  0.4908
  158MOL    C6834922   2.171   7.714   6.384 -0.0997  0.3907  0.0317
  158MOL    C6934923   2.238   7.582   6.379  0.0830  0.7148  0.1122
  158MOL    C7034924   2.138   7.469   6.411 -0.2665 -0.5363 -0.0215
  158MOL    O7134925   2.125   7.367   6.349  0.0910  0.3527 -0.3676
  158MOL    C7234926   2.042   7.492   6.541 -0.2584 -0.0512  0.1172
  158MOL    H7334927   2.233   7.785   6.439 -0.1974  0.9646 -0.5956
  158MOL    H7434928   2.086   7.714   6.452  0.2975 -0.6100  0.5360
  158MOL    H7534929   2.259   7.573   6.272 -0.4234  1.7193 -0.0800
  158MOL    H7634930   2.049   7.403   6.604 -1.0081  1.3534  2.2525
  158MOL    H7734931   2.064   7.573   6.610 -1.7943  2.5367 -2.3328
  158MOL    H7834932   1.939   7.514   6.516 -0.6593  0.3536  2.0699
  158MOL    C7934933   2.376   7.587   6.452  0.4366  0.2613 -0.0546
  158MOL    C8034934   2.455   7.456   6.474  0.2223  0.2050  0.8529
  158MOL    C8134935   2.557   7.476   6.588 -0.8342  0.3354 -0.3650
  158MOL    O8234936   2.676   7.492   6.573  0.5668 -0.1748  0.0451
  158MOL    C8334937   2.481   7.477   6.719  0.3293 -0.1871 -0.6374
  158MOL    H8434938   2.365   7.649   6.541  4.1313 -0.1614  0.7583
  158MOL    H8534939   2.433   7.648   6.382 -0.2732 -0.0611 -0.9289
  158MOL    H8634940   2.381   7.384   6.508 -1.3867  0.6574 -1.5846
  158MOL    H8734941   2.553   7.450   6.797 -3.8053 -1.4848  2.9608
  158MOL    H8834942   2.387   7.422   6.722  1.6043 -2.3836  0.4575
  158MOL    H8934943   2.449   7.579   6.742  0.2933 -0.7425  1.8961
  158MOL    C9034944   2.527   7.397   6.351  0.0288 -0.1186 -0.4742
  158MOL    C9134945   2.587   7.249   6.372  0.2699  0.4764 -0.3779
  158MOL    C9234946   2.466   7.149   6.371  0.1578 -0.0036 -0.2601
  158MOL    O9334947   2.407   7.120   6.271 -0.0783 -0.5571 -0.0331
  158MOL    C9434948   2.418   7.102   6.503  0.2708 -0.9471 -0.5779
  158MOL    H9534949   2.457   7.409   6.269  0.1669  1.8759 -0.3321
  158MOL    H9634950   2.609   7.465   6.326 -1.2461  0.9461 -1.7910
  158MOL    H9734951   2.640   7.232   6.466 -1.9202  0.4130  0.8861
  158MOL    H9834952   2.492   7.130   6.578  0.7507  2.6092 -2.2685
  158MOL    H9934953   2.329   7.159   6.530  2.2283  0.8889  2.2358
  158MOL   H10034954   2.389   6.997   6.500 -2.7895 -0.1174 -1.8249
  158MOL   C10134955   2.689   7.210   6.259 -0.1578  0.4748  0.1088
  158MOL   C10234956   2.786   7.093   6.294  0.2687  0.2109  0.6653
  158MOL   C10334957   2.703   6.962   6.298  0.0409 -0.4647  0.5375
  158MOL   O10434958   2.680   6.907   6.403 -0.4973  0.0157 -0.3462
  158MOL   C10534959   2.673   6.895   6.171 -0.2861  1.0608  0.0132
  158MOL   H10634960   2.645   7.184   6.163 -0.1552  2.1022 -0.3475
  158MOL   H10734961   2.753   7.297   6.241  0.7016 -0.5425 -1.7976
  158MOL   H10834962   2.848   7.074   6.206  1.8034  1.2185  1.4935
  158MOL   H10934963   2.621   6.800   6.184  2.9076 -0.9451 -1.2045
  158MOL   H11034964   2.618   6.964   6.107 -1.2572  1.6143  1.4150
  158MOL   H11134965   2.767   6.855   6.132 -0.9943 -1.6317  0.9608
  158MOL   C11234966   2.886   7.113   6.415 -0.6185 -0.2405  0.0206
  158MOL   C11334967   3.019   7.181   6.384  0.2635  0.5783 -0.0195
  158MOL   C11434968   3.098   7.103   6.278 -0.3559  0.3855  0.5061
  158MOL   O11534969   3.197   7.036   6.308 -0.3875  0.7668 -0.3647
  158MOL   C11634970   3.076   7.137   6.124 -0.2591 -0.3165 -0.0967
  158MOL   H11734971   2.914   7.024   6.471 -0.8975  1.1329  2.3934
  158MOL   H11834972   2.832   7.168   6.492  1.7827  0.4976  1.2240
  158MOL   H11934973   2.991   7.279   6.343 -3.0173 -0.0325  0.6235
  158MOL   H12034974   3.060   7.046   6.066 -0.4410 -2.2893  2.8808
  158MOL   H12134975   3.002   7.214   6.101 -2.2208 -2.0563  0.1331
  158MOL   H12234976   3.175   7.169   6.094  0.0292 -1.2880 -0.1865
  158MOL   C12334977   3.096   7.206   6.513  0.1936  0.0311 -0.7737
  158MOL   C12434978   3.046   7.325   6.600 -0.0971 -0.0414  0.7313
  158MOL   C12534979   3.050   7.466   6.534  0.5504  0.3874 -0.0362
  158MOL   O12634980   3.094   7.473   6.423  0.2873 -0.4258  0.6706
  158MOL   C12734981   2.998   7.591   6.612 -0.1686 -0.3035 -0.5027
  158MOL   H12834982   3.203   7.223   6.501 -0.1838  2.4640 -1.0647
  158MOL   H12934983   3.107   7.116   6.574  3.4631  0.2411 -0.9271
  158MOL   H13034984   2.940   7.314   6.622 -0.7240 -0.6315 -2.4454
  158MOL   H13134985   2.892   7.575   6.628  0.0253 -0.9501  0.1467
  158MOL   H13234986   3.020   7.687   6.565  0.1538  0.1396  0.5308
  158MOL   H13334987   3.044   7.587   6.711  0.8141 -1.4361 -0.9947
  158MOL   C13434988   3.114   7.324   6.740  0.3582  0.0542  0.2492
  158MOL   C13534989   3.041   7.225   6.835  0.4121  0.9179 -0.3183
  158MOL   C13634990   3.127   7.200   6.961  0.3774 -0.5282 -0.1919
  158MOL   O13734991   3.109   7.262   7.066 -0.3382 -0.2757  0.5309
  158MOL   C13834992   3.239   7.101   6.945  0.3377 -0.6353  0.3636
  158MOL   H13934993   3.119   7.419   6.791  0.8103  0.4194 -0.4643
  158MOL   H14034994   3.218   7.292   6.732  0.5469  0.9643 -0.9860
  158MOL   H14134995   3.028   7.128   6.786 -1.4114  0.4596  1.0338
  158MOL   H14234996   3.272   7.067   7.043  0.4181 -2.6999 -0.3560
  158MOL   H14334997   3.316   7.160   6.894  1.6203 -0.8377  2.0268
  158MOL   H14434998   3.217   7.025   6.869 -1.4530  0.6929 -0.4781
  158MOL   C14534999   2.898   7.274   6.880  0.3351 -0.1657 -0.9059
  158MOL   C14635000   2.803   7.161   6.929  0.2956  0.1669 -1.0122
  158MOL   C14735001   2.696   7.202   7.029 -0.1253 -0.1467  0.2350
  158MOL   O14835002   2.606   7.270   6.980  0.4146 -0.6556  0.5996
  158MOL   C14935003   2.695   7.148   7.173 -0.4456  0.3895  0.1680
  158MOL   H15035004   2.846   7.332   6.805 -2.4482 -3.6733 -1.8599
  158MOL   H15135005   2.913   7.338   6.966 -0.8031 -0.0303 -0.7995
  158MOL   H15235006   2.864   7.088   6.982  0.3964  1.1605  0.2471
  158MOL   H15335007   2.700   7.039   7.171  0.1489  0.4192 -0.1608
  158MOL   H15435008   2.778   7.189   7.231  0.3982 -1.6092  0.3981
  158MOL   H15535009   2.601   7.169   7.223 -0.7194 -1.2304  0.3567
  158MOL   C15635010   2.744   7.086   6.809 -0.0512 -0.1437  0.2788
  158MOL   C15735011   2.750   6.932   6.829 -0.2390 -0.4360  0.2665
  158MOL   C15835012   2.884   6.867   6.779  0.1865 -0.0101 -0.3772
  158MOL   O15935013   2.962   6.925   6.701  0.0150 -0.1690 -0.1348
  158MOL   C16035014   2.899   6.722   6.834 -0.2121  0.2617 -0.2214
  158MOL   H16135015   2.644   7.120   6.784  0.1363  1.7430  1.9612
  158MOL   H16235016   2.793   7.114   6.715 -1.8860  1.9088 -0.1015
  158MOL   H16335017   2.755   6.920   6.937  0.5026  0.1563  0.3075
  158MOL   H16435018   2.864   6.721   6.937 -4.3721 -2.3010 -1.5108
  158MOL   H16535019   3.004   6.693   6.831  0.3256  2.1795 -0.2082
  158MOL   H16635020   2.841   6.646   6.781 -1.9783  2.0296 -0.8958
  158MOL   C16735021   2.628   6.865   6.764 -0.0201  0.0750 -1.0024
  158MOL   C16835022   2.499   6.858   6.857 -0.1713 -0.3289  0.1883
  158MOL   C16935023   2.512   6.760   6.976  0.1113  0.1598 -0.4267
  158MOL   O17035024   2.557   6.645   6.953  0.1580  0.4519  0.1796
  158MOL   C17135025   2.478   6.807   7.116  0.2929  0.3013  0.2556
  158MOL   H17235026   2.610   6.907   6.666 -0.3939 -1.8144 -1.7660
  158MOL   H17335027   2.642   6.763   6.729 -2.8689 -0.4600 -0.7566
  158MOL   H17435028   2.495   6.960   6.896  0.3533 -0.5468  0.8159
  158MOL   H17535029   2.528   6.739   7.185 -0.6682  0.1213  0.7844
  158MOL   H17635030   2.373   6.781   7.131  0.3773 -0.2774 -0.1428
  158MOL   H17735031   2.503   6.910   7.142 -0.3542  0.3098  0.8524
  158MOL   C17835032   2.373   6.832   6.768  0.0951 -0.2970 -0.9190
  158MOL   C17935033   2.240   6.892   6.831 -0.7823 -0.1654  0.4016
  158MOL   C18035034   2.116   6.838   6.755  0.0080 -0.0355  0.2740
  158MOL   O18135035   2.130   6.798   6.639  0.2922 -0.1765  0.0558
  158MOL   C18235036   1.982   6.827   6.825 -0.7383  0.0831 -0.3484
  158MOL   H18335037   2.384   6.863   6.664 -1.6457 -0.6221 -1.2184
  158MOL   H18435038   2.352   6.725   6.765 -0.8122 -0.2152  1.5794
  158MOL   H18535039   2.243   6.850   6.931  2.5212  2.0411  1.3029
  158MOL   H18635040   1.930   6.737   6.791  0.1987 -0.1027 -1.3145
  158MOL   H18735041   1.924   6.915   6.798  0.2987  0.9384  0.1884
  158MOL   H18835042   1.995   6.824   6.933  0.6190  1.5084 -0.4568
  158MOL   C18935043   2.243   7.050   6.824  0.0774  1.5285 -0.0267
  158MOL   C19035044   2.144   7.120   6.933  0.2401  0.5690 -0.3805
  158MOL   C19135045   2.205   7.091   7.072  0.5093 -0.0494  0.2925
  158MOL   O19235046   2.322   7.075   7.094  0.1635  0.2089 -0.3173
  158MOL   C19335047   2.106   7.089   7.197  0.1094  0.2072  0.8097
  158MOL   H19435048   2.342   7.095   6.813 -0.5211  3.3482  1.9639
  158MOL   H19535049   2.207   7.080   6.725 -0.0265 -1.0008 -0.7951
  158MOL   H19635050   2.042   7.085   6.923  0.5923 -0.3789 -0.7417
  158MOL   H19735051   2.006   7.091   7.154 -0.3435 -0.6372  1.7978
  158MOL   H19835052   2.121   6.993   7.248 -2.6910  0.2299  1.7601
  158MOL   H19935053   2.120   7.174   7.263  1.5762  0.3092  0.3744
  158MOL   C20035054   2.130   7.270   6.920  0.6332  0.1483 -0.2666
  158MOL   C20135055   2.011   7.343   7.003  0.0467 -0.1114  0.2969
  158MOL   C20235056   1.872   7.296   6.952 -0.6264 -0.5502  0.1950
  158MOL   O20335057   1.870   7.258   6.835  0.0463  0.4828  0.4798
  158MOL   C20435058   1.754   7.297   7.044 -0.0599  0.1687 -0.0538
  158MOL   H20535059   2.217   7.327   6.953  0.0053  1.7275 -1.2708
  158MOL   H20635060   2.120   7.293   6.814 -0.8255 -1.0672 -0.4048
  158MOL   H20735061   2.029   7.307   7.104 -1.9290 -0.2646  0.6070
  158MOL   H20835062   1.674   7.359   7.002 -0.7815 -0.0885  0.9259
  158MOL   H20935063   1.713   7.197   7.059 -1.9228  0.8666 -0.3047
  158MOL   H21035064   1.754   7.336   7.145 -1.4934  1.7134 -0.6299
  158MOL   C21135065   2.042   7.501   7.006 -0.1504 -0.4638  0.4520
  158MOL   C21235066   1.955   7.585   7.106  0.0046 -0.1028 -0.5659
  158MOL   C21335067   1.999   7.559   7.249  0.1043  0.0817  0.0422
  158MOL   O21435068   2.072   7.463   7.286 -0.6030 -0.5776 -0.5787
  158MOL   C21535069   1.942   7.640   7.357  0.2282  1.2037  0.8771
  158MOL   H21635070   2.147   7.515   7.030 -0.0799 -0.5052  0.1643
  158MOL   H21735071   2.021   7.545   6.908 -0.4149 -1.5562  0.0163
  158MOL   H21835072   1.848   7.566   7.096 -0.0612  0.0993 -0.2596
  158MOL   H21935073   1.884   7.573   7.421 -0.2071  0.6646 -0.0849
  158MOL   H22035074   2.019   7.694   7.413  3.7324 -0.6601 -1.9387
  158MOL   H22135075   1.873   7.714   7.317  1.0072  0.3696 -2.1438
  158MOL   H22235076   1.974   7.692   7.097  2.9660 -0.6650 -1.4790
  159MOL     C135077   0.982   1.323   4.339  0.4120 -0.1335 -0.2648
  159MOL     C235078   1.128   1.351   4.315 -0.0233 -0.1393  0.8681
  159MOL     C335079   1.185   1.260   4.210  0.7872  0.7592  0.3390
  159MOL     O435080   1.193   1.293   4.092 -0.2370  0.0408 -0.1160
  159MOL     C535081   1.238   1.122   4.254  0.4247  0.7658 -0.2234
  159MOL     H635082   0.939   1.389   4.414  1.6130 -1.0918  1.3146
  159MOL     H735083   0.959   1.219   4.362  0.7577 -0.6268 -2.0360
  159MOL     H835084   1.181   1.333   4.409  1.9069  1.1611  0.0655
  159MOL     H935085   1.339   1.121   4.214  0.0419  1.0105 -1.2068
  159MOL    H1035086   1.225   1.109   4.362 -2.5455  1.3048 -0.4741
  159MOL    H1135087   1.171   1.053   4.203 -0.0291  1.6622 -0.8567
  159MOL    H1235088   0.939   1.361   4.246  0.1045 -1.2890 -0.6021
  159MOL    C1335089   1.164   1.498   4.294  0.0825 -0.1185  0.5690
  159MOL    C1435090   1.307   1.542   4.344 -0.1069  0.7372  0.1895
  159MOL    C1535091   1.307   1.547   4.499 -0.2846 -0.9104  0.6375
  159MOL    O1635092   1.399   1.495   4.564  0.0812  0.9223  0.0914
  159MOL    C1735093   1.199   1.626   4.575  0.1479 -0.4686 -0.1675
  159MOL    H1835094   1.137   1.531   4.194  2.1036 -0.6464 -0.1654
  159MOL    H1935095   1.091   1.538   4.365 -0.5892  1.1554 -0.8161
  159MOL    H2035096   1.372   1.456   4.328 -2.1215 -1.0957  1.7026
  159MOL    H2135097   1.216   1.732   4.561 -2.3946 -0.0982 -0.6810
  159MOL    H2235098   1.094   1.598   4.564  0.2962 -0.7158 -0.9585
  159MOL    H2335099   1.210   1.613   4.683  0.3102  0.6350 -0.0453
  159MOL    C2435100   1.372   1.680   4.294 -0.6548 -0.0805 -0.4093
  159MOL    C2535101   1.462   1.663   4.171 -0.1903  0.5202 -0.0352
  159MOL    C2635102   1.499   1.800   4.108  0.7273 -0.0605  0.8389
  159MOL    O2735103   1.575   1.870   4.179 -0.1458 -0.5054 -0.0953
  159MOL    C2835104   1.414   1.861   4.002 -0.8034 -0.0843  0.0115
  159MOL    H2935105   1.290   1.744   4.261 -0.5841  0.9223  1.2616
  159MOL    H3035106   1.423   1.725   4.379 -0.2196  0.0454 -0.7398
  159MOL    H3135107   1.408   1.615   4.089 -0.0034  1.5070 -0.7530
  159MOL    H3235108   1.446   1.843   3.899 -1.3352 -1.6720  0.1020
  159MOL    H3335109   1.321   1.805   4.006 -0.4469 -0.8579 -1.7435
  159MOL    H3435110   1.407   1.968   4.020  2.7118  0.2138 -0.0061
  159MOL    C3535111   1.581   1.565   4.199 -0.2884  0.8019 -0.0710
  159MOL    C3635112   1.649   1.519   4.068  0.4427  0.0607 -0.3193
  159MOL    C3735113   1.803   1.507   4.076 -0.1108 -0.7364  0.0471
  159MOL    O3835114   1.870   1.578   4.002 -0.2156 -0.2534  0.1133
  159MOL    C3935115   1.862   1.419   4.184  0.5226  0.2764 -0.7647
  159MOL    H4035116   1.555   1.477   4.257 -1.5830  0.5025 -1.0530
  159MOL    H4135117   1.651   1.624   4.258  0.0002 -1.6062  2.0790
  159MOL    H4235118   1.645   1.606   4.001  3.2480  0.1583 -0.4256
  159MOL    H4335119   1.950   1.376   4.137  0.2622  0.9215 -1.8836
  159MOL    H4435120   1.799   1.334   4.211  1.4349 -0.7741 -1.8913
  159MOL    H4535121   1.890   1.483   4.268  0.8665 -0.8084 -0.0433
  159MOL    C4635122   1.588   1.392   4.003  0.1839 -0.3885  0.3202
  159MOL    C4735123   1.564   1.411   3.853  0.9429 -0.4653 -0.4279
  159MOL    C4835124   1.461   1.523   3.819  0.3121  0.6483 -0.3513
  159MOL    O4935125   1.484   1.630   3.764 -0.5385 -0.0319 -0.4515
  159MOL    C5035126   1.318   1.482   3.850 -0.7107  0.3601  0.3635
  159MOL    H5135127   1.488   1.384   4.047  1.4792 -0.0304  3.4146
  159MOL    H5235128   1.642   1.303   4.033  2.3691  1.1573  1.0987
  159MOL    H5335129   1.498   1.327   3.833 -1.1899  1.3875 -1.3592
  159MOL    H5435130   1.255   1.496   3.762 -2.0345  1.1976  1.4161
  159MOL    H5535131   1.300   1.377   3.875 -1.0681  0.1364 -0.8037
  159MOL    H5635132   1.286   1.543   3.934  1.2516  2.5448 -0.4088
  159MOL    C5735133   1.689   1.421   3.766  0.5505 -0.0992  0.4180
  159MOL    C5835134   1.778   1.298   3.744  0.0954  0.8699  1.1287
  159MOL    C5935135   1.733   1.187   3.648  0.0603  0.4628 -0.1484
  159MOL    O6035136   1.741   1.069   3.683  0.0626  0.0147 -0.7838
  159MOL    C6135137   1.683   1.226   3.511  0.0444 -0.0597  0.4472
  159MOL    H6235138   1.754   1.504   3.791  0.1399 -0.1257  1.6242
  159MOL    H6335139   1.647   1.450   3.670 -1.7594  0.6420  1.6290
  159MOL    H6435140   1.807   1.265   3.844 -1.7232  1.0084  1.7170
  159MOL    H6535141   1.673   1.136   3.450 -0.1905 -1.2665  2.2269
  159MOL    H6635142   1.583   1.270   3.505  0.7175  1.7348  2.0511
  159MOL    H6735143   1.756   1.288   3.460  1.8115  0.1707  3.1953
  159MOL    C6835144   1.919   1.338   3.703 -0.0053  1.1246  0.6395
  159MOL    C6935145   2.027   1.224   3.723  0.3641  0.4560 -0.5734
  159MOL    C7035146   2.074   1.215   3.872 -0.7092  0.4746  0.3298
  159MOL    O7135147   2.057   1.307   3.954  0.2075 -0.0657  0.6639
  159MOL    C7235148   2.150   1.090   3.906  0.1636 -1.0534 -0.7515
  159MOL    H7335149   1.924   1.356   3.596 -0.4308 -0.6091  0.3148
  159MOL    H7435150   1.954   1.428   3.754  0.7333  0.1744  1.8336
  159MOL    H7535151   1.994   1.126   3.686  0.6267 -0.4495  1.5225
  159MOL    H7635152   2.084   1.006   3.930  0.9976 -1.2970  0.7831
  159MOL    H7735153   2.216   1.056   3.827  1.2833 -0.6217 -0.0196
  159MOL    H7835154   2.207   1.133   3.989  0.4608  0.0057 -1.5015
  159MOL    C7935155   2.147   1.267   3.637  0.7678  0.2191  0.6544
  159MOL    C8035156   2.136   1.222   3.488 -0.1542 -0.0325 -0.0943
  159MOL    C8135157   2.096   1.071   3.459  0.3988 -0.0296  0.0638
  159MOL    O8235158   2.150   0.979   3.520 -0.0849 -0.3278  0.3385
  159MOL    C8335159   1.997   1.036   3.348 -0.0155 -0.9282 -0.0582
  159MOL    H8435160   2.236   1.220   3.678  0.1242 -1.0007  0.6651
  159MOL    H8535161   2.173   1.373   3.642 -0.3095  0.6289 -1.6105
  159MOL    H8635162   2.070   1.294   3.439  1.7194 -0.0482 -2.7971
  159MOL    H8735163   2.028   0.956   3.281  1.9167 -0.4390  0.2094
  159MOL    H8835164   1.983   1.128   3.291  1.2322 -0.5573  0.2273
  159MOL    H8935165   1.902   1.012   3.396 -1.2212  0.3451 -1.7457
  159MOL    C9035166   2.281   1.247   3.437 -0.2471  0.2290  0.1044
  159MOL    C9135167   2.314   1.229   3.287  0.1730  0.4111  0.6878
  159MOL    C9235168   2.279   1.363   3.218 -0.6119  0.1754 -0.0260
  159MOL    O9335169   2.340   1.468   3.245  0.0249 -0.0567 -0.1007
  159MOL    C9435170   2.160   1.358   3.122 -0.3971 -0.6837  0.2833
  159MOL    H9535171   2.313   1.347   3.466 -0.5316  0.0742  0.9637
  159MOL    H9635172   2.335   1.168   3.489  1.1266 -0.1653 -1.8697
  159MOL    H9735173   2.243   1.157   3.248 -0.3658  0.9597  0.6315
  159MOL    H9835174   2.065   1.352   3.175 -0.9607 -0.8533 -0.7287
  159MOL    H9935175   2.175   1.440   3.053 -0.9622 -0.0283  0.9323
  159MOL   H10035176   2.158   1.273   3.053 -0.1498 -0.6774  0.2695
  159MOL   C10135177   2.453   1.172   3.254 -0.3216  0.4253 -1.0816
  159MOL   C10235178   2.500   1.142   3.109  0.4989  0.1180  0.1448
  159MOL   C10335179   2.445   1.014   3.053 -0.0168  0.3046 -1.1485
  159MOL   O10435180   2.509   0.917   3.040 -0.9578 -0.2468  0.4181
  159MOL   C10535181   2.295   1.007   3.019  0.0428  0.1425  0.0993
  159MOL   H10635182   2.522   1.242   3.300  0.6795 -2.0244  1.3128
  159MOL   H10735183   2.459   1.080   3.314 -1.6252  1.2481  0.3702
  159MOL   H10835184   2.473   1.226   3.044 -0.7105 -0.1646  0.2781
  159MOL   H10935185   2.276   1.085   2.945 -2.9223 -0.9154 -0.3392
  159MOL   H11035186   2.269   0.907   2.983 -2.2408  0.6106  0.3516
  159MOL   H11135187   2.241   1.016   3.113  0.1093  0.3778  0.1135
  159MOL   C11235188   2.656   1.140   3.093 -1.0074 -0.2332 -0.8663
  159MOL   C11335189   2.738   1.261   3.140  0.3822  0.0940  0.2274
  159MOL   C11435190   2.680   1.399   3.072 -0.5023 -0.8275  0.1173
  159MOL   O11535191   2.640   1.393   2.954  0.1603  0.2921  0.4227
  159MOL   C11635192   2.675   1.522   3.156 -0.4317 -0.3648  0.1232
  159MOL   H11735193   2.674   1.121   2.987 -0.0550 -0.9393 -0.5850
  159MOL   H11835194   2.685   1.055   3.154  2.7995  1.6852  0.1928
  159MOL   H11935195   2.715   1.277   3.245  0.1011  0.1933  0.1514
  159MOL   H12035196   2.696   1.611   3.095 -0.6009  0.0227  0.6293
  159MOL   H12135197   2.586   1.534   3.217  0.6328  1.6966  1.3396
  159MOL   H12235198   2.755   1.514   3.229 -0.1704  0.4910 -0.0597
  159MOL   C12335199   2.883   1.245   3.137 -0.7389  0.1726 -0.7506
  159MOL   C12435200   2.949   1.288   3.271  0.1341 -0.5586 -0.2532
  159MOL   C12535201   3.090   1.336   3.241  0.1543 -0.7587 -0.2414
  159MOL   O12635202   3.181   1.268   3.291  0.0853  0.4037 -0.1410
  159MOL   C12735203   3.120   1.455   3.154  0.2224 -0.1612 -0.0527
  159MOL   H12835204   2.935   1.296   3.055  1.2182  1.8248  1.4500
  159MOL   H12935205   2.906   1.141   3.114 -1.4032 -0.6274  2.0180
  159MOL   H13035206   2.890   1.373   3.305 -2.1889 -1.2429 -2.4266
  159MOL   H13135207   3.114   1.549   3.209  1.0199  0.1162 -0.4256
  159MOL   H13235208   3.066   1.461   3.059  0.2785 -2.2327 -0.2520
  159MOL   H13335209   3.223   1.436   3.125 -0.4457 -1.6894 -1.5301
  159MOL   C13435210   2.948   1.175   3.376 -0.3463  0.7037 -0.0663
  159MOL   C13535211   2.986   1.219   3.519  0.2044 -0.9815  0.6010
  159MOL   C13635212   2.924   1.347   3.571 -0.2142  0.2063  1.0880
  159MOL   O13735213   2.825   1.395   3.519 -0.1665 -0.5888 -0.3587
  159MOL   C13835214   2.986   1.418   3.692  0.1300 -0.2821 -0.0747
  159MOL   H13935215   3.019   1.096   3.353  1.3767  1.6331  1.9421
  159MOL   H14035216   2.849   1.130   3.388 -0.4541  1.5683  2.5425
  159MOL   H14135217   3.094   1.230   3.522 -0.1955  3.6828  1.1621
  159MOL   H14235218   3.081   1.466   3.670 -0.2439  0.4611 -0.0930
  159MOL   H14335219   2.984   1.353   3.780  0.1572  0.5015  0.5094
  159MOL   H14435220   2.913   1.492   3.723  1.9270  1.2001  0.7002
  159MOL   C14535221   2.964   1.111   3.626  0.3362 -0.1284 -0.2380
  159MOL   C14635222   3.077   1.011   3.626  0.2820  0.4972 -0.2681
  159MOL   C14735223   3.215   1.067   3.659 -0.0449 -0.0515 -0.2187
  159MOL   O14835224   3.235   1.157   3.743  0.2969  0.5665  0.1782
  159MOL   C14935225   3.331   1.002   3.586 -0.9994 -0.8441  0.9757
  159MOL   H15035226   2.866   1.069   3.606  0.6379  0.1801 -2.6065
  159MOL   H15135227   2.966   1.167   3.720  1.1480 -1.0034  0.2746
  159MOL   H15235228   3.097   0.980   3.523  1.5319 -0.0342  0.1365
  159MOL   H15335229   3.426   1.034   3.630 -0.4330 -0.5868 -0.4151
  159MOL   H15435230   3.327   0.893   3.591  1.9484 -1.0039  0.7636
  159MOL   H15535231   3.330   1.034   3.482 -0.5050  0.1401  1.2700
  159MOL   C15635232   3.036   0.887   3.712  0.3755 -0.2322  0.0035
  159MOL   C15735233   2.996   0.762   3.632  0.3286  0.0298 -0.2570
  159MOL   C15835234   3.106   0.697   3.549  0.2279 -1.1177 -1.0916
  159MOL   O15935235   3.111   0.696   3.428 -0.1563  0.6556  0.4851
  159MOL   C16035236   3.214   0.639   3.642  0.5549  0.0049  0.5206
  159MOL   H16135237   3.123   0.848   3.765  1.4438 -0.0948 -1.6348
  159MOL   H16235238   2.966   0.917   3.790  0.8511  0.7546  0.0720
  159MOL   H16335239   2.969   0.687   3.706  0.6001 -0.1474 -0.3356
  159MOL   H16435240   3.255   0.546   3.603  1.0453  0.2642  0.4180
  159MOL   H16535241   3.175   0.627   3.743 -1.1836 -3.5683 -0.4972
  159MOL   H16635242   3.296   0.711   3.651  1.1075 -0.5199 -0.3055
  159MOL   C16735243   2.873   0.780   3.537 -0.5705  0.4890  0.2701
  159MOL   C16835244   2.740   0.798   3.612  0.2901  0.1484 -0.5319
  159MOL   C16935245   2.702   0.675   3.693 -0.2911  0.4287  0.2830
  159MOL   O17035246   2.672   0.566   3.640 -0.0962 -0.1383  0.4926
  159MOL   C17135247   2.713   0.690   3.845 -0.2766 -0.0670 -0.0136
  159MOL   H17235248   2.887   0.866   3.472 -0.8309 -0.6337 -1.3024
  159MOL   H17335249   2.867   0.691   3.475 -0.5591  0.1126  0.8073
  159MOL   H17435250   2.755   0.886   3.675  0.6322  0.3374 -0.8746
  159MOL   H17535251   2.774   0.774   3.881  0.2551 -0.8813  0.9994
  159MOL   H17635252   2.758   0.605   3.896  2.0204 -0.5053 -2.6690
  159MOL   H17735253   2.614   0.718   3.881 -0.4428  0.4231 -0.8147
  159MOL   C17835254   2.631   0.832   3.501 -0.7443 -0.7090  0.0518
  159MOL   C17935255   2.485   0.868   3.561  0.2389  0.0731 -0.0556
  159MOL   C18035256   2.490   0.949   3.685 -0.9283  0.3740  0.4322
  159MOL   O18135257   2.470   0.896   3.796 -0.3743 -0.3878  0.2570
  159MOL   C18235258   2.534   1.096   3.670  0.5620 -0.7046 -0.4027
  159MOL   H18335259   2.657   0.921   3.444  0.1653 -1.3714 -0.5943
  159MOL   H18435260   2.624   0.750   3.429 -1.5411 -0.6636  0.0699
  159MOL   H18535261   2.449   0.936   3.483 -0.5193  0.2253  0.4266
  159MOL   H18635262   2.604   1.095   3.587  1.7604 -1.3365  0.5849
  159MOL   H18735263   2.582   1.135   3.760 -0.6173 -0.2035  0.0155
  159MOL   H18835264   2.448   1.161   3.655 -1.7113 -3.0140  2.1469
  159MOL   C18935265   2.387   0.745   3.586 -0.0718  0.0083 -0.5868
  159MOL   C19035266   2.371   0.652   3.464  0.0079  0.2502  0.0526
  159MOL   C19135267   2.294   0.525   3.493 -0.4412  0.0663 -0.1369
  159MOL   O19235268   2.174   0.526   3.536 -0.1767 -0.1403  0.5082
  159MOL   C19335269   2.368   0.392   3.489  0.2471 -0.3688  0.0604
  159MOL   H19435270   2.422   0.682   3.668  0.4874  1.1232  0.0378
  159MOL   H19535271   2.296   0.795   3.618  0.4247  0.5805 -0.0491
  159MOL   H19635272   2.472   0.620   3.442 -0.2433 -0.4702 -0.0424
  159MOL   H19735273   2.331   0.322   3.564 -0.0035  1.8184  2.0418
  159MOL   H19835274   2.346   0.347   3.392  0.4865 -0.3792  0.0114
  159MOL   H19935275   2.475   0.401   3.508  0.1002  0.9282  0.3134
  159MOL   C20035276   2.317   0.736   3.346 -0.3698 -0.2460 -0.2269
  159MOL   C20135277   2.304   0.671   3.205  0.3495 -0.9734 -0.7544
  159MOL   C20235278   2.190   0.573   3.198 -0.0463 -1.0069  0.5411
  159MOL   O20335279   2.204   0.459   3.155 -0.3170 -0.4706 -0.2232
  159MOL   C20435280   2.051   0.616   3.235 -0.2024 -0.2872 -0.1753
  159MOL   H20535281   2.226   0.783   3.384  0.1890  1.1927 -0.6288
  159MOL   H20635282   2.373   0.826   3.322 -0.3235 -0.3483 -0.5082
  159MOL   H20735283   2.292   0.749   3.130  2.5997 -0.4480 -0.5881
  159MOL   H20835284   2.033   0.723   3.232 -3.0459 -0.6550  1.3595
  159MOL   H20935285   1.974   0.564   3.177 -1.4867  0.2187  1.0299
  159MOL   H21035286   2.027   0.584   3.337 -2.0248 -4.9650 -1.8990
  159MOL   C21135287   2.437   0.618   3.160  0.1740  0.2699  0.3213
  159MOL   C21235288   2.448   0.584   3.005  0.5608 -0.0438 -0.2841
  159MOL   C21335289   2.572   0.509   2.971  0.0131 -0.0672  0.2237
  159MOL   O21435290   2.651   0.481   3.066  0.5198 -0.0185  0.8096
  159MOL   C21535291   2.602   0.451   2.830  0.5634  0.1484 -0.1100
  159MOL   H21635292   2.529   0.665   3.195 -0.0610 -0.2375  1.6521
  159MOL   H21735293   2.442   0.519   3.204  1.1641  0.6084  0.9934
  159MOL   H21835294   2.452   0.678   2.950 -1.4213 -0.6050 -1.4693
  159MOL   H21935295   2.577   0.345   2.829  1.0540  0.0338 -0.5453
  159MOL   H22035296   2.538   0.499   2.755  1.2075  0.6151 -0.3659
  159MOL   H22135297   2.707   0.473   2.809  0.6977 -0.8222 -0.4629
  159MOL   H22235298   2.366   0.527   2.960 -0.7545  1.6459 -0.0890
  160MOL     C135299   7.140   6.391   4.231  0.6031 -0.4246  0.0517
  160MOL     C235300   7.148   6.544   4.251  0.0962 -0.2885  0.9897
  160MOL     C335301   7.106   6.620   4.125 -0.0673 -0.9340  0.3447
  160MOL     O435302   6.986   6.647   4.103  0.1670 -0.1562  0.3656
  160MOL     C535303   7.211   6.663   4.023 -0.3579  0.1616  0.7821
  160MOL     H635304   7.040   6.349   4.243  0.8634 -0.9480  0.4527
  160MOL     H735305   7.205   6.339   4.301 -0.1769  1.2239  2.0604
  160MOL     H835306   7.250   6.567   4.283 -0.1851 -0.1685  1.7926
  160MOL     H935307   7.308   6.647   4.069 -0.2550 -1.5864  0.0023
  160MOL    H1035308   7.198   6.593   3.940  0.8485 -0.7221  1.3288
  160MOL    H1135309   7.199   6.768   3.997 -3.8760 -0.0275  1.3678
  160MOL    H1235310   7.172   6.354   4.134 -0.1351  1.1454 -0.8135
  160MOL    C1335311   7.061   6.588   4.368 -0.0595  0.3982  0.5784
  160MOL    C1435312   7.068   6.743   4.408 -0.4911 -0.3212 -1.3694
  160MOL    C1535313   7.146   6.762   4.542 -0.0607 -0.1534 -0.1345
  160MOL    O1635314   7.086   6.784   4.642  0.5922  0.3343 -0.1879
  160MOL    C1735315   7.293   6.749   4.547 -0.1435 -0.0167 -0.2399
  160MOL    H1835316   6.956   6.585   4.339 -0.0896 -2.2283  0.8675
  160MOL    H1935317   7.076   6.516   4.448  1.9347 -0.5246 -0.5976
  160MOL    H2035318   7.131   6.787   4.330  2.4310 -0.9598  0.5493
  160MOL    H2135319   7.326   6.657   4.596  0.6817  0.9953  1.1490
  160MOL    H2235320   7.341   6.757   4.450  1.8020  1.4529  0.8031
  160MOL    H2335321   7.346   6.816   4.614  1.0291 -0.8753 -0.2823
  160MOL    C2435322   6.922   6.805   4.408 -0.2622  0.0266  0.5456
  160MOL    C2535323   6.915   6.957   4.414 -0.1986 -0.2588  0.2916
  160MOL    C2635324   6.903   7.014   4.277  0.2799  0.4098 -0.0791
  160MOL    O2735325   6.800   7.062   4.240 -0.1153 -0.4928 -0.1619
  160MOL    C2835326   7.025   7.024   4.187  0.6936 -0.3669 -0.4463
  160MOL    H2935327   6.865   6.764   4.324  1.7130 -0.1801 -0.7200
  160MOL    H3035328   6.865   6.776   4.496 -1.4999  0.9934  0.0853
  160MOL    H3135329   7.010   6.993   4.454 -0.1801  1.6807 -1.4258
  160MOL    H3235330   7.018   7.103   4.112  0.2092  0.1116  0.0970
  160MOL    H3335331   7.105   7.043   4.259  0.4350 -3.5036  0.7263
  160MOL    H3435332   7.047   6.928   4.141 -1.5091 -0.7822 -0.6799
  160MOL    C3535333   6.814   7.019   4.520 -0.3499 -0.2317 -0.3414
  160MOL    C3635334   6.845   7.160   4.564  0.3636  0.2151  0.4607
  160MOL    C3735335   6.714   7.233   4.588 -0.4654  1.0751  0.3190
  160MOL    O3835336   6.650   7.222   4.689  0.2755  0.0912  0.1723
  160MOL    C3935337   6.664   7.332   4.481 -0.0266 -0.2123 -0.5263
  160MOL    H4035338   6.801   6.954   4.607 -0.4733 -1.2653 -1.1136
  160MOL    H4135339   6.715   7.022   4.474 -0.0160  0.6496 -1.0146
  160MOL    H4235340   6.899   7.204   4.480  0.3696 -0.7111 -0.0413
  160MOL    H4335341   6.587   7.392   4.530  0.8473  0.4561  0.0281
  160MOL    H4435342   6.617   7.283   4.395  0.1405  0.5001 -1.0288
  160MOL    H4535343   6.745   7.393   4.442 -0.9963  1.5876  0.2036
  160MOL    C4635344   6.943   7.162   4.684 -0.0587  0.7769 -0.0808
  160MOL    C4735345   7.008   7.310   4.709  0.2792  0.3566  0.5575
  160MOL    C4835346   6.954   7.371   4.838 -0.0163  0.0316  0.1602
  160MOL    O4935347   7.019   7.343   4.941  0.4964 -0.5104  0.0656
  160MOL    C5035348   6.850   7.483   4.830  0.0091  0.4139 -0.2432
  160MOL    H5135349   7.025   7.093   4.665 -1.0119 -0.2953 -0.3834
  160MOL    H5235350   6.883   7.127   4.769 -2.6456 -0.3660 -2.2943
  160MOL    H5335351   6.982   7.383   4.632  0.6000  1.0243  1.0721
  160MOL    H5435352   6.904   7.574   4.854 -1.8181  1.8345 -1.3819
  160MOL    H5535353   6.804   7.495   4.732  0.8309  1.3015 -0.5284
  160MOL    H5635354   6.765   7.470   4.896 -0.0020 -1.0926 -0.5290
  160MOL    C5735355   7.164   7.309   4.705  0.1259 -0.6717  0.0626
  160MOL    C5835356   7.232   7.277   4.566  0.8830 -0.1972  0.5211
  160MOL    C5935357   7.230   7.395   4.462  0.1062 -0.0359 -0.4350
  160MOL    O6035358   7.313   7.488   4.461  0.2465  0.1707  0.0967
  160MOL    C6135359   7.128   7.368   4.351 -0.1384 -0.4074  0.2178
  160MOL    H6235360   7.201   7.238   4.779  1.4553  0.6584  0.7028
  160MOL    H6335361   7.199   7.399   4.757 -0.9314 -0.3006  0.1476
  160MOL    H6435362   7.175   7.195   4.524  0.0528  0.2603  0.7333
  160MOL    H6535363   7.109   7.464   4.303  0.7643  0.7063  2.0215
  160MOL    H6635364   7.161   7.308   4.267 -0.7569 -0.5623  0.0841
  160MOL    H6735365   7.031   7.329   4.381  0.5955 -1.6508  1.0027
  160MOL    C6835366   7.379   7.230   4.585 -0.3121  0.3991 -0.4837
  160MOL    C6935367   7.471   7.176   4.467  0.8383 -0.0939  0.7475
  160MOL    C7035368   7.407   7.059   4.399 -0.1816  0.1053  0.0721
  160MOL    O7135369   7.294   7.020   4.431 -0.5901  0.1041  0.1295
  160MOL    C7235370   7.488   6.982   4.298  0.6752 -0.4984  0.2382
  160MOL    H7335371   7.433   7.312   4.633 -0.3235 -0.2360  0.6476
  160MOL    H7435372   7.371   7.159   4.668  2.5788  3.0028  2.1608
  160MOL    H7535373   7.488   7.247   4.386 -1.8379 -0.5295 -0.2366
  160MOL    H7635374   7.514   7.042   4.211 -0.2420 -0.9733 -0.3806
  160MOL    H7735375   7.576   6.928   4.334 -0.5954 -1.2648  2.2691
  160MOL    H7835376   7.427   6.904   4.251 -1.5610  1.1990  0.2484
  160MOL    C7935377   7.604   7.137   4.528 -0.4867  0.0496  0.1651
  160MOL    C8035378   7.683   7.240   4.620  0.9781 -0.1752 -0.1320
  160MOL    C8135379   7.699   7.376   4.542 -0.2204 -0.0848 -0.4937
  160MOL    O8235380   7.770   7.391   4.440  0.1390  0.3251 -0.0814
  160MOL    C8335381   7.633   7.497   4.617 -0.4817  0.5230  0.3443
  160MOL    H8435382   7.676   7.130   4.446  2.9676  1.9057  2.8892
  160MOL    H8535383   7.594   7.042   4.580 -1.5835  0.5539  0.8711
  160MOL    H8635384   7.626   7.262   4.710 -0.1574  4.4605 -1.8532
  160MOL    H8735385   7.685   7.592   4.601  1.9757 -1.0362 -1.3134
  160MOL    H8835386   7.615   7.469   4.720 -0.4023  2.0400  0.7869
  160MOL    H8935387   7.531   7.513   4.580 -0.7638  0.9983  1.3026
  160MOL    C9035388   7.820   7.194   4.662  0.1702 -0.0560 -0.7814
  160MOL    C9135389   0.037   7.282   4.763 -0.3623  0.2457  0.0281
  160MOL    C9235390   7.828   7.292   4.899  0.2187 -0.0939  0.2319
  160MOL    O9335391   7.795   7.399   4.938 -0.5518 -0.6450  0.2196
  160MOL    C9435392   7.806   7.162   4.984 -0.6377 -0.0032  0.3221
  160MOL    H9535393   7.833   7.090   4.692  1.5628  0.3369  0.0376
  160MOL    H9635394   0.031   7.189   4.577  0.5295 -2.2203 -0.3877
  160MOL    H9735395   0.029   7.384   4.724 -0.0263  0.2819  0.0518
  160MOL    H9835396   7.746   7.176   5.074  0.2611 -1.7969  1.2277
  160MOL    H9935397   7.767   7.086   4.915  1.5739 -1.5860  0.7309
  160MOL   H10035398   0.039   7.109   5.013  1.1148  1.4623 -2.2140
  160MOL   C10135399   0.192   7.265   4.777  0.2539 -1.0490 -0.0532
  160MOL   C10235400   0.280   7.390   4.763 -0.1110  0.0079  0.6416
  160MOL   C10335401   0.428   7.345   4.757 -0.1101 -0.1289 -0.2392
  160MOL   O10435402   0.461   7.228   4.771  0.3601 -0.1269  0.8372
  160MOL   C10535403   0.530   7.455   4.728 -0.3772  0.0742  0.3629
  160MOL   H10635404   0.204   7.217   4.874  0.2349 -1.2355 -0.1431
  160MOL   H10735405   0.227   7.188   4.709  1.5810  1.0865 -1.8155
  160MOL   H10835406   0.255   7.443   4.671 -0.0794 -0.2724  0.4716
  160MOL   H10935407   0.528   7.534   4.803 -2.1342  0.2198  0.1865
  160MOL   H11035408   0.628   7.409   4.715 -0.0037  0.6558  1.0528
  160MOL   H11135409   0.502   7.503   4.634  0.6679 -0.9983 -0.5197
  160MOL   C11235410   0.269   7.489   4.883  0.1873 -0.5918 -0.2900
  160MOL   C11335411   0.175   7.607   4.853 -0.6347  0.2516  0.0223
  160MOL   C11435412   0.211   7.692   4.725 -0.1352  0.0179 -0.1636
  160MOL   O11535413   0.325   7.741   4.699 -0.0112 -0.1537  0.2309
  160MOL   C11635414   0.095   7.705   4.622  0.5357 -0.5876 -0.7916
  160MOL   H11735415   0.365   7.529   4.917  0.0752  0.9016 -1.6908
  160MOL   H11835416   0.236   7.423   4.963 -1.6904  1.6741  0.8443
  160MOL   H11935417   0.076   7.571   4.823 -1.3110  2.3562 -0.3358
  160MOL   H12035418   0.016   7.763   4.669 -0.0484 -2.5050  0.7075
  160MOL   H12135419   0.136   7.747   4.531 -1.4021  1.7416 -0.6239
  160MOL   H12235420   0.052   7.605   4.616 -1.9396  0.3362  0.7293
  160MOL   C12335421   0.159   7.703   4.971  1.0673  0.6993 -0.3301
  160MOL   C12435422   0.037   7.800   4.982 -0.1686  0.3437 -0.3328
  160MOL   C12535423   0.066   0.028   5.115  0.7120 -0.8158  0.5569
  160MOL   O12635424   0.044   7.848   5.230 -0.0857  0.2399 -0.6347
  160MOL   C12735425   0.121   0.168   5.098 -0.1798 -0.1269  0.2288
  160MOL   H12835426   0.250   7.763   4.977  0.9781  0.6674  2.0428
  160MOL   H12935427   0.159   7.645   5.064 -0.5845  0.8236 -0.2459
  160MOL   H13035428   0.040   0.013   4.899  0.0982  1.6700  0.8114
  160MOL   H13135429   0.055   0.248   5.064 -0.3358 -0.4571 -0.2587
  160MOL   H13235430   0.196   0.165   5.019 -0.3723 -0.1777  0.0455
  160MOL   H13335431   0.176   0.198   5.187 -0.3904  0.8196  0.0521
  160MOL   C13435432   7.765   7.719   4.981 -0.0661 -0.6854 -0.6478
  160MOL   C13535433   7.630   7.774   5.032  0.2936 -0.0866 -0.0076
  160MOL   C13635434   7.601   0.049   4.967 -0.5019 -0.2176  0.0105
  160MOL   O13735435   7.578   0.151   5.029  0.5336 -0.1426 -0.1547
  160MOL   C13835436   7.619   0.058   4.810 -0.5370 -0.0560 -0.3484
  160MOL   H13935437   7.782   7.642   5.056 -1.7889  0.2035  0.6815
  160MOL   H14035438   7.753   7.669   4.885  0.5821 -1.4711 -0.3277
  160MOL   H14135439   7.633   7.789   5.140 -0.9126 -1.6520  0.2633
  160MOL   H14235440   7.521   0.034   4.769 -0.5929  2.1663 -1.5937
  160MOL   H14335441   7.703   7.855   4.776  1.3818  1.6933  1.1459
  160MOL   H14435442   7.645   0.158   4.776  0.4497 -0.3218 -0.4092
  160MOL   C14535443   7.518   7.671   5.015 -0.2202  0.4785  0.4796
  160MOL   C14635444   7.406   7.704   5.120 -0.0667  0.7818  0.2028
  160MOL   C14735445   7.270   7.669   5.052  0.7453  0.0970 -0.4290
  160MOL   O14835446   7.202   7.577   5.100 -0.1671 -0.2625 -0.5737
  160MOL   C14935447   7.216   7.729   4.926 -0.3985  0.4933  0.2426
  160MOL   H15035448   7.554   7.569   5.027  0.5576  0.4160 -2.1339
  160MOL   H15135449   7.477   7.673   4.914 -0.1475  0.4295  0.4495
  160MOL   H15235450   7.411   7.812   5.133 -0.5511  0.6412  1.5602
  160MOL   H15335451   7.137   7.804   4.926 -0.4017  0.6201 -4.5333
  160MOL   H15435452   7.297   7.777   4.872 -1.4084  2.6649  0.6091
  160MOL   H15535453   7.195   7.656   4.848  1.3898  0.1550  0.0655
  160MOL   C15635454   7.421   7.631   5.259 -0.5007 -1.2200  0.1243
  160MOL   C15735455   7.341   7.699   5.371  1.0666  0.5790  0.2565
  160MOL   C15835456   7.415   7.825   5.424  0.1406  0.1575  0.5902
  160MOL   O15935457   7.378   0.084   5.407 -0.3731 -0.0625  0.1848
  160MOL   C16035458   7.563   7.801   5.470  0.0427 -0.3024 -0.7670
  160MOL   H16135459   7.398   7.525   5.246  3.4313 -2.5124  2.7506
  160MOL   H16235460   7.528   7.630   5.281 -0.6644 -0.2161  0.9946
  160MOL   H16335461   7.243   7.738   5.341  1.4185 -0.4614 -2.3639
  160MOL   H16435462   7.631   7.797   5.385  3.1193 -3.6351  1.6976
  160MOL   H16535463   7.565   7.717   5.540 -2.0689  0.5187  0.3106
  160MOL   H16635464   7.587   0.033   5.526 -1.7670 -0.1551 -0.1954
  160MOL   C16735465   7.308   7.592   5.477 -0.1252 -1.4261 -0.6332
  160MOL   C16835466   7.171   7.516   5.448 -0.0248 -0.5987  0.0748
  160MOL   C16935467   7.054   7.576   5.529  0.0173  0.3824 -0.1849
  160MOL   O17035468   6.994   7.510   5.616  0.2222  0.4357  0.1907
  160MOL   C17135469   6.996   7.716   5.497  0.0842  0.7670 -0.0159
  160MOL   H17235470   7.396   7.526   5.478  0.0981 -1.1305 -0.7808
  160MOL   H17335471   7.312   7.637   5.576 -2.9159  3.1932 -2.4637
  160MOL   H17435472   7.152   7.535   5.343 -0.5756 -1.1950  0.0642
  160MOL   H17535473   6.949   7.760   5.585 -1.7488  0.2708 -0.7130
  160MOL   H17635474   6.926   7.705   5.414  0.0688 -3.4203  0.4538
  160MOL   H17735475   7.068   7.788   5.459  0.0669  0.2863 -0.9760
  160MOL   C17835476   7.189   7.365   5.471  0.4007 -0.6011  0.2949
  160MOL   C17935477   7.183   7.298   5.333  0.4432 -0.4628  0.2871
  160MOL   C18035478   7.038   7.260   5.304  0.8556 -0.0169 -0.0432
  160MOL   O18135479   7.006   7.145   5.285 -0.2814 -0.8150 -0.1428
  160MOL   C18235480   6.933   7.364   5.266 -0.0651 -0.1963  0.5429
  160MOL   H18335481   7.285   7.351   5.521  2.0120  1.4178 -2.0960
  160MOL   H18435482   7.110   7.319   5.531 -2.5786 -0.2639 -3.1576
  160MOL   H18535483   7.200   7.367   5.250 -2.7842  1.0490  0.7808
  160MOL   H18635484   6.888   7.416   5.351  0.4158  1.7735 -0.3849
  160MOL   H18735485   6.852   7.313   5.215  0.9491 -1.9776  0.6413
  160MOL   H18835486   6.978   7.433   5.195  0.2762 -2.8704 -1.9043
  160MOL   C18935487   7.278   7.171   5.333  0.4764 -0.8858  0.1123
  160MOL   C19035488   7.328   7.132   5.191  0.7437 -0.5242  0.4064
  160MOL   C19135489   7.423   7.238   5.137 -0.1029 -0.0155 -0.3844
  160MOL   O19235490   7.530   7.268   5.185 -0.2906 -0.0925 -0.5251
  160MOL   C19335491   7.381   7.294   5.004  1.3399 -0.0798 -0.2525
  160MOL   H19435492   7.364   7.209   5.389 -0.3897 -0.0637  0.8855
  160MOL   H19535493   7.234   7.084   5.380 -2.0940  0.6458  0.6049
  160MOL   H19635494   7.249   7.131   5.116 -0.5665 -0.6518  1.7641
  160MOL   H19735495   7.465   7.311   4.937  1.4305 -0.4248 -0.2288
  160MOL   H19835496   7.323   7.229   4.938  0.9043  1.0147 -0.9735
  160MOL   H19935497   7.328   7.389   5.012  0.4743 -0.5630 -0.1034
  160MOL   C20035498   7.390   6.990   5.196  0.7515  0.1913  0.3568
  160MOL   C20135499   7.498   6.947   5.087  0.2443  0.3458 -1.0602
  160MOL   C20235500   7.442   6.954   4.944  0.1713 -0.2118  0.2603
  160MOL   O20335501   7.514   7.012   4.863  0.4711 -0.2896 -0.4520
  160MOL   C20435502   7.307   6.906   4.904 -0.4993  0.3275  0.4290
  160MOL   H20535503   7.439   6.972   5.292  0.2729  0.7205  0.6959
  160MOL   H20635504   7.314   6.913   5.189 -0.1479  1.0924  0.1882
  160MOL   H20735505   7.573   7.026   5.081 -2.0299  2.7199  0.9345
  160MOL   H20835506   7.230   6.982   4.892 -0.4793  0.3122  0.2071
  160MOL   H20935507   7.313   6.849   4.811  1.4848  1.1174  0.0485
  160MOL   H21035508   7.272   6.840   4.984  0.6269 -2.6024 -1.3983
  160MOL   C21135509   7.573   6.816   5.129 -0.4687  0.8723  0.0739
  160MOL   C21235510   7.700   6.775   5.046  0.0386 -0.4203 -0.0194
  160MOL   C21335511   7.663   6.694   4.918  0.2543  0.2726  0.3469
  160MOL   O21435512   7.622   6.578   4.933  0.0467  0.2212 -0.2486
  160MOL   C21535513   7.678   6.759   4.785 -0.2200  0.0290  0.3218
  160MOL   H21635514   7.601   6.838   5.232 -1.7449 -4.0328  1.5735
  160MOL   H21735515   7.504   6.732   5.125 -1.6629  1.8672 -0.3138
  160MOL   H21835516   7.769   6.716   5.107  0.3341  0.7575  0.8028
  160MOL   H21935517   7.577   6.776   4.747  0.3431  2.5933 -0.1298
  160MOL   H22035518   7.711   6.861   4.804  0.5719 -0.5172  2.0047
  160MOL   H22135519   7.741   6.708   4.712  0.0799  1.4633 -0.4345
  160MOL   H22235520   7.758   6.863   5.018 -1.5260  0.4281 -0.6125
  161MOL     C135521   1.752   1.402   4.795  0.7725 -0.7406 -0.1572
  161MOL     C235522   1.897   1.430   4.843 -0.0580  0.1244 -0.1320
  161MOL     C335523   1.986   1.436   4.722 -0.1696 -0.0976 -0.1060
  161MOL     O435524   2.033   1.540   4.687  0.4802 -0.0526  0.7671
  161MOL     C535525   2.004   1.311   4.640  0.4915 -0.2734  0.4029
  161MOL     H635526   1.745   1.310   4.737 -1.6438 -0.2096 -0.7418
  161MOL     H735527   1.701   1.487   4.751  0.1912 -1.7130 -1.3986
  161MOL     H835528   1.940   1.347   4.899  0.1174  0.1381 -0.2480
  161MOL     H935529   1.926   1.292   4.566  0.1033 -2.8205  1.4110
  161MOL    H1035530   2.103   1.299   4.597  0.8099 -0.0637  1.0565
  161MOL    H1135531   1.990   1.230   4.712 -0.9943  1.0426  1.6477
  161MOL    H1235532   1.679   1.379   4.873 -0.0152 -0.5637 -0.8432
  161MOL    C1335533   1.906   1.561   4.928  0.1951 -0.3477  0.8482
  161MOL    C1435534   2.024   1.589   5.017  0.6821 -0.5432  0.6648
  161MOL    C1535535   2.037   1.482   5.126 -0.8701 -0.8608 -0.0465
  161MOL    O1635536   1.950   1.465   5.211  0.2512  0.4028 -0.2246
  161MOL    C1735537   2.163   1.396   5.106  0.3751  0.9035 -0.0938
  161MOL    H1835538   1.891   1.642   4.856 -1.2114 -1.7420 -0.4459
  161MOL    H1935539   1.812   1.553   4.981 -0.5615 -0.9471 -0.5599
  161MOL    H2035540   2.116   1.593   4.958 -0.1681  0.6202 -0.6153
  161MOL    H2135541   2.183   1.320   5.182  3.8114 -0.4962 -2.2731
  161MOL    H2235542   2.157   1.345   5.009  0.8116 -1.6390  1.1729
  161MOL    H2335543   2.254   1.456   5.105  0.9587  0.0326 -0.0987
  161MOL    C2435544   1.998   1.729   5.086  0.5085  0.0601 -0.3834
  161MOL    C2535545   2.127   1.805   5.118 -0.5561  0.2079  0.5117
  161MOL    C2635546   2.202   1.758   5.241 -0.0427 -0.3800 -0.3575
  161MOL    O2735547   2.308   1.707   5.230 -0.2774 -0.3693 -0.1084
  161MOL    C2835548   2.136   1.773   5.376 -0.2730  0.4514  0.0471
  161MOL    H2935549   1.928   1.792   5.032 -0.6079  2.4331  3.5808
  161MOL    H3035550   1.947   1.714   5.182  2.5433  1.0323  0.8913
  161MOL    H3135551   2.095   1.902   5.154 -0.4894  0.4004  0.0549
  161MOL    H3235552   2.064   1.855   5.377 -0.8244 -0.0319  0.8330
  161MOL    H3335553   2.087   1.679   5.402  1.1032  0.4543  2.7745
  161MOL    H3435554   2.209   1.794   5.454  0.9306 -0.5366 -0.7875
  161MOL    C3535555   2.217   1.841   4.994 -0.3461  0.5436 -0.2035
  161MOL    C3635556   2.143   1.921   4.888  0.0633  0.7908  0.4123
  161MOL    C3735557   2.083   2.055   4.935 -0.9496 -0.2810 -0.1217
  161MOL    O3835558   2.150   2.158   4.953 -0.0366  0.0160 -0.1660
  161MOL    C3935559   1.937   2.056   4.970  0.2477 -0.1887  0.0283
  161MOL    H4035560   2.260   1.751   4.949 -2.3956 -0.4683 -0.2257
  161MOL    H4135561   2.306   1.893   5.029 -0.6787  0.2552  1.1152
  161MOL    H4235562   2.062   1.858   4.851  0.6860  0.5914 -0.6378
  161MOL    H4335563   1.934   1.996   5.061  1.0275  0.5766  0.5759
  161MOL    H4435564   1.873   2.014   4.893  0.8916 -1.3643  0.1131
  161MOL    H4535565   1.911   2.160   4.990  0.4225  0.3503 -2.4795
  161MOL    C4635566   2.241   1.950   4.771  0.1044 -0.2540  0.2669
  161MOL    C4735567   2.169   1.975   4.631  0.2327 -0.3367  0.7793
  161MOL    C4835568   2.262   2.041   4.527 -0.3295  1.3302 -0.5365
  161MOL    O4935569   2.332   1.979   4.449 -0.2551  0.6311  0.0979
  161MOL    C5035570   2.276   2.198   4.536  0.3939 -0.5708  0.0935
  161MOL    H5135571   2.309   1.868   4.751  0.2813 -0.9454  3.4299
  161MOL    H5235572   2.310   2.033   4.790  1.2251 -1.1627  0.1675
  161MOL    H5335573   2.087   2.044   4.647 -1.4652 -2.3469  0.9583
  161MOL    H5435574   2.180   2.245   4.557 -0.0422 -1.0523 -0.7952
  161MOL    H5535575   2.344   2.228   4.615 -0.8013  1.2282  0.4716
  161MOL    H5635576   2.304   2.218   4.432 -1.9109  1.6235 -0.1323
  161MOL    C5735577   2.105   1.838   4.580  0.4982 -0.6303 -0.6431
  161MOL    C5835578   1.985   1.865   4.486 -0.0235  0.1614  0.7539
  161MOL    C5935579   1.960   1.741   4.397 -0.2915 -0.0093  0.1505
  161MOL    O6035580   1.850   1.692   4.393  0.1218 -0.1938 -0.3091
  161MOL    C6135581   2.062   1.705   4.287 -0.4734 -0.1645  0.0500
  161MOL    H6235582   2.071   1.779   4.666  0.0645 -0.2845 -0.5814
  161MOL    H6335583   2.187   1.779   4.539  2.4146  1.3029  0.2873
  161MOL    H6435584   2.007   1.941   4.411  0.2785 -1.1712 -0.5355
  161MOL    H6535585   2.149   1.770   4.298 -2.3976  2.9587 -2.2151
  161MOL    H6635586   2.090   1.600   4.288 -1.2943 -0.3749  0.7842
  161MOL    H6735587   2.011   1.713   4.191 -1.5040 -1.3867  0.4842
  161MOL    C6835588   1.859   1.908   4.563 -0.2263 -0.2426 -0.0166
  161MOL    C6935589   1.749   1.972   4.477  0.3415 -0.6834 -0.4965
  161MOL    C7035590   1.776   2.124   4.456 -0.2676 -0.2856 -0.0828
  161MOL    O7135591   1.864   2.182   4.524  0.5563  0.1078 -0.2176
  161MOL    C7235592   1.691   2.208   4.355  0.3655 -0.6457  0.7342
  161MOL    H7335593   1.808   1.821   4.604 -0.7490  0.0205 -0.1025
  161MOL    H7435594   1.867   1.959   4.659 -2.5452 -0.3192  0.2451
  161MOL    H7535595   1.747   1.923   4.380  1.4699 -1.2404 -0.2498
  161MOL    H7635596   1.739   2.292   4.305 -2.3006  0.0124 -0.8044
  161MOL    H7735597   1.656   2.135   4.282 -0.6013  1.3902 -0.8853
  161MOL    H7835598   1.602   2.254   4.400  0.9878  2.7200 -1.3133
  161MOL    C7935599   1.608   1.943   4.535  0.7060  0.1775 -0.2566
  161MOL    C8035600   1.575   1.984   4.682 -0.1643 -0.1246 -0.2190
  161MOL    C8135601   1.505   1.869   4.760 -0.0918 -1.1459 -0.3203
  161MOL    O8235602   1.391   1.831   4.729 -0.0662  0.2423 -0.1298
  161MOL    C8335603   1.574   1.804   4.873  0.0247 -0.5453  0.0922
  161MOL    H8435604   1.581   1.838   4.521 -2.1215  0.8698 -0.3164
  161MOL    H8535605   1.539   1.992   4.467  2.0392  0.6404 -1.3043
  161MOL    H8635606   1.669   1.998   4.735 -1.5253  0.3421  2.1457
  161MOL    H8735607   1.508   1.765   4.950 -0.0989 -0.1065  0.2117
  161MOL    H8835608   1.645   1.880   4.906  1.0493 -0.0431 -3.0478
  161MOL    H8935609   1.627   1.718   4.831  0.0087 -0.9841  0.9706
  161MOL    C9035610   1.484   2.115   4.679 -0.9789  0.7684  0.2439
  161MOL    C9135611   1.437   2.172   4.826 -0.4526 -0.3376 -1.0113
  161MOL    C9235612   1.574   2.190   4.914  0.2189 -0.1375 -0.2741
  161MOL    O9335613   1.659   2.268   4.875 -0.0935 -0.6132  0.4729
  161MOL    C9435614   1.580   2.132   5.053 -0.0272 -0.4343 -0.1538
  161MOL    H9535615   1.529   2.194   4.618  0.9580  0.9794  1.8911
  161MOL    H9635616   1.394   2.099   4.620 -0.3066  0.2675 -0.6517
  161MOL    H9735617   1.380   2.112   4.897 -1.1505  0.2220 -1.0943
  161MOL    H9835618   1.678   2.087   5.067 -0.3154 -1.3543 -1.0393
  161MOL    H9935619   1.584   2.209   5.130  0.1081 -0.3977 -0.1962
  161MOL   H10035620   1.505   2.054   5.066 -1.5795  0.9771 -0.3744
  161MOL   C10135621   1.355   2.299   4.816  0.2194 -0.0496  0.1836
  161MOL   C10235622   1.254   2.330   4.936  0.1547 -0.0294  0.3873
  161MOL   C10335623   1.320   2.354   5.071 -0.4062  0.0548 -0.9909
  161MOL   O10435624   1.283   2.294   5.170 -0.0173 -1.0487  0.3486
  161MOL   C10535625   1.437   2.454   5.076 -0.0537  0.2003  0.6013
  161MOL   H10635626   1.417   2.387   4.797  1.2545 -1.1554 -1.6522
  161MOL   H10735627   1.294   2.294   4.726  1.8958 -0.2561 -0.9461
  161MOL   H10835628   1.213   2.430   4.923 -2.0410 -0.7314  1.7775
  161MOL   H10935629   1.398   2.548   5.039 -3.2284 -0.5951  1.8135
  161MOL   H11035630   1.497   2.454   5.167  0.6582  0.2432  0.1461
  161MOL   H11135631   1.506   2.442   4.992 -0.1487  1.0222  0.4053
  161MOL   C11235632   1.131   2.233   4.930 -0.1758  0.3949  0.4849
  161MOL   C11335633   1.044   2.246   4.801  0.0758 -0.6184 -0.2395
  161MOL   C11435634   0.930   2.349   4.826  0.1781 -0.3909  0.6317
  161MOL   O11535635   0.949   2.465   4.786  0.7682 -0.2899 -0.1723
  161MOL   C11635636   0.802   2.311   4.891 -0.4413 -0.5275  0.3039
  161MOL   H11735637   1.069   2.237   5.019  0.7717 -1.9600  1.2975
  161MOL   H11835638   1.165   2.130   4.941 -1.0741  0.0888  0.4201
  161MOL   H11935639   1.099   2.280   4.713  2.3222 -1.0944  0.9394
  161MOL   H12035640   0.801   2.202   4.887  1.2151 -0.5240 -0.5424
  161MOL   H12135641   0.793   2.324   4.999 -1.1625  1.7877 -0.0190
  161MOL   H12235642   0.724   2.360   4.832 -0.6820  0.8406  1.7298
  161MOL   C12335643   1.003   2.104   4.757  0.3380  0.4024  0.9599
  161MOL   C12435644   0.914   2.088   4.633  0.2853  0.4768  0.0250
  161MOL   C12535645   0.904   1.938   4.587  0.7345 -0.5607  0.1846
  161MOL   O12635646   0.996   1.892   4.521 -0.2048 -0.0766  0.4894
  161MOL   C12735647   0.794   1.850   4.639 -0.3642  0.3256  0.4006
  161MOL   H12835648   0.960   2.042   4.836 -1.2014  0.8792  0.5065
  161MOL   H12935649   1.095   2.047   4.742  0.1702  0.1451  0.8953
  161MOL   H13035650   0.811   2.122   4.646 -0.5974 -2.2248  0.4278
  161MOL   H13135651   0.825   1.746   4.647  2.3075  1.0692  0.2071
  161MOL   H13235652   0.715   1.853   4.564  1.1519 -0.2225 -1.2716
  161MOL   H13335653   0.765   1.884   4.738  1.5948 -0.8379  1.4010
  161MOL   C13435654   0.965   2.181   4.520  0.5588 -0.3380  0.9853
  161MOL   C13535655   0.908   2.167   4.377  0.2867 -0.4984  0.3131
  161MOL   C13635656   0.752   2.189   4.367  0.1022 -0.1251 -0.4396
  161MOL   O13735657   0.681   2.212   4.463 -0.2345 -0.0621  0.8981
  161MOL   C13835658   0.690   2.183   4.232  0.6504 -0.3623 -0.3798
  161MOL   H13935659   1.073   2.168   4.524  0.7642  1.3593  1.2000
  161MOL   H14035660   0.949   2.283   4.556  0.5896  0.5821 -1.5534
  161MOL   H14135661   0.920   2.065   4.338 -1.2861  0.0567 -1.6908
  161MOL   H14235662   0.597   2.128   4.242 -0.7590  1.9272 -0.4285
  161MOL   H14335663   0.752   2.129   4.160  0.1510  0.3423 -1.3477
  161MOL   H14435664   0.675   2.285   4.197  2.5006  0.7738  1.9574
  161MOL   C14535665   0.975   2.265   4.277 -0.3128 -0.3129  0.1073
  161MOL   C14635666   1.131   2.265   4.265 -0.2948  0.1430 -0.0495
  161MOL   C14735667   1.194   2.131   4.219  0.0133 -0.0958 -0.0743
  161MOL   O14835668   1.136   2.042   4.158 -0.5938 -0.4831  0.3204
  161MOL   C14935669   1.341   2.112   4.257  0.0173 -0.1619  0.4206
  161MOL   H15035670   0.939   2.367   4.289 -0.3432 -0.6274  3.0607
  161MOL   H15135671   0.936   2.243   4.178 -2.4723 -0.9129  1.0672
  161MOL   H15235672   1.171   2.275   4.366 -0.9088  0.8642  0.1277
  161MOL   H15335673   1.375   2.009   4.245  1.4720  0.4926 -1.2447
  161MOL   H15435674   1.407   2.172   4.194 -1.1899  1.7959  0.9597
  161MOL   H15535675   1.354   2.147   4.360 -0.4701  2.0802 -0.2441
  161MOL   C15635676   1.189   2.390   4.187  0.1377  0.3983  0.0241
  161MOL   C15735677   1.244   2.521   4.258  0.8004 -0.1141  0.3748
  161MOL   C15835678   1.386   2.503   4.310  0.3908  0.5863  0.9585
  161MOL   O15935679   1.402   2.442   4.417  0.4897 -0.7899 -0.0173
  161MOL   C16035680   1.500   2.541   4.218 -0.3263  0.1058  0.4470
  161MOL   H16135681   1.272   2.362   4.122  1.9638  2.1279  1.5281
  161MOL   H16235682   1.125   2.426   4.107  0.3367  0.2419 -0.2067
  161MOL   H16335683   1.250   2.601   4.185 -0.3939  1.1459  1.6417
  161MOL   H16435684   1.542   2.452   4.172 -2.4095 -0.2885 -0.7827
  161MOL   H16535685   1.575   2.593   4.276  0.6499 -1.3789  0.5437
  161MOL   H16635686   1.464   2.611   4.143 -2.0659  1.1967  2.2410
  161MOL   C16735687   1.147   2.571   4.361 -0.2168 -0.4641 -0.4202
  161MOL   C16835688   1.175   2.708   4.439  0.2144 -0.4852 -0.5507
  161MOL   C16935689   1.253   2.810   4.354  0.0015 -0.4531 -0.4920
  161MOL   O17035690   1.374   2.829   4.367 -0.1772  0.2728  0.0095
  161MOL   C17135691   1.186   2.872   4.234 -0.4885  0.5525 -0.6582
  161MOL   H17235692   1.055   2.577   4.303 -0.1875 -2.9403 -0.7929
  161MOL   H17335693   1.143   2.487   4.431  1.2807 -1.9632 -2.0637
  161MOL   H17435694   1.083   2.765   4.449  1.4567  1.3231  0.7274
  161MOL   H17535695   1.089   2.914   4.261 -0.7319 -0.1866 -0.3768
  161MOL   H17635696   1.176   2.797   4.155 -1.4791 -0.0488  0.0336
  161MOL   H17735697   1.245   2.955   4.194  1.6521 -0.7070 -0.2130
  161MOL   C17835698   1.226   2.689   4.584 -0.3341  0.5203 -0.0927
  161MOL   C17935699   1.188   2.813   4.667  0.0292 -0.1351 -0.2362
  161MOL   C18035700   1.297   2.825   4.778 -0.6998  1.0810  0.0371
  161MOL   O18135701   1.279   2.770   4.891  0.3878  0.6321  0.1934
  161MOL   C18235702   1.427   2.904   4.747 -0.0823 -0.3266 -0.0769
  161MOL   H18335703   1.177   2.599   4.620 -0.3664  0.5819  0.0210
  161MOL   H18435704   1.333   2.668   4.575 -0.8180 -1.7598 -0.7651
  161MOL   H18535705   1.203   2.903   4.608  1.4382  0.7828  1.4925
  161MOL   H18635706   1.454   2.897   4.642  1.1124 -0.1575  0.2150
  161MOL   H18735707   1.503   2.861   4.812  1.4575 -0.2074 -1.7433
  161MOL   H18835708   1.419   3.012   4.764 -0.0741  0.0812 -2.5107
  161MOL   C18935709   1.039   2.807   4.720  0.2047 -0.4686  0.4489
  161MOL   C19035710   0.980   2.951   4.757 -0.5118 -0.4731  0.5144
  161MOL   C19135711   0.893   2.999   4.638 -0.5189 -0.6428 -0.6022
  161MOL   O19235712   0.779   2.958   4.624  0.1068 -0.6990 -0.2535
  161MOL   C19335713   0.964   3.077   4.525 -0.1261  0.4589 -0.2530
  161MOL   H19435714   0.976   2.750   4.652  2.1283  1.3565 -2.9541
  161MOL   H19535715   1.039   2.745   4.810  0.1601 -1.2555 -0.0859
  161MOL   H19635716   1.063   3.020   4.774 -0.1649  0.0978 -3.1918
  161MOL   H19735717   0.903   3.152   4.474  2.2840  1.6315 -1.4971
  161MOL   H19835718   1.036   3.142   4.573  1.1248 -0.7751 -0.4204
  161MOL   H19935719   1.016   3.007   4.459 -2.2401  2.2330 -3.9633
  161MOL   C20035720   0.893   2.935   4.888 -0.6835  0.4913  0.2449
  161MOL   C20135721   0.982   2.913   5.018  0.7360  1.0407  0.2540
  161MOL   C20235722   0.930   2.802   5.106  0.8707  0.6367 -0.4533
  161MOL   O20335723   0.840   2.820   5.183  0.5305 -0.1373 -0.2012
  161MOL   C20435724   0.995   2.669   5.095 -0.3585  0.2918  0.4606
  161MOL   H20535725   0.833   3.021   4.918  0.9978  0.8988  2.6184
  161MOL   H20635726   0.832   2.845   4.876 -0.4376  0.3545  0.0306
  161MOL   H20735727   1.083   2.878   5.001  0.7606  2.7307 -3.4516
  161MOL   H20835728   0.947   2.612   5.175 -0.1872  2.9290  2.4931
  161MOL   H20935729   0.971   2.619   5.001 -1.0649  0.7861  0.3772
  161MOL   H21035730   1.104   2.678   5.091 -0.5824  2.9075 -0.4729
  161MOL   C21135731   1.011   3.044   5.090  0.3895  0.0942 -0.3869
  161MOL   C21235732   1.100   3.035   5.216 -0.5227  0.0921 -0.7536
  161MOL   C21335733   1.247   3.037   5.175 -0.3458 -0.1421  0.2604
  161MOL   O21435734   1.296   3.141   5.142 -0.8121 -0.0180 -0.2786
  161MOL   C21535735   1.323   2.910   5.168 -0.3858  0.0201  0.4007
  161MOL   H21635736   1.058   3.114   5.020  0.0074  0.8186  0.0807
  161MOL   H21735737   0.911   3.072   5.122  0.1174  0.0666 -1.1831
  161MOL   H21835738   1.081   2.947   5.277  0.7746 -1.9067 -3.1662
  161MOL   H21935739   1.264   2.820   5.152 -1.5061  1.2438 -2.9283
  161MOL   H22035740   1.391   2.919   5.083 -0.4576 -1.4104  0.1919
  161MOL   H22135741   1.382   2.900   5.259  0.7790 -2.9969 -0.6183
  161MOL   H22235742   1.079   3.124   5.277 -2.2018  1.1519 -2.8046
  162MOL     C135743   4.840   3.759   7.318 -0.5325  0.1268  0.0107
  162MOL     C235744   4.855   3.810   7.465 -1.2791  0.2073 -0.1533
  162MOL     C335745   4.834   3.955   7.474  0.5200 -0.3678 -0.5167
  162MOL     O435746   4.718   3.988   7.467 -0.1336 -0.1908  0.2576
  162MOL     C535747   4.950   4.052   7.504  0.1116  0.0676  0.0965
  162MOL     H635748   4.861   3.836   7.244 -3.1126  0.1440 -0.7624
  162MOL     H735749   4.742   3.724   7.284 -0.5321 -1.0764  1.2410
  162MOL     H835750   4.960   3.789   7.486 -1.6109  1.0507  2.6541
  162MOL     H935751   5.045   4.006   7.475 -0.3526 -0.9486  0.1673
  162MOL    H1035752   4.940   4.144   7.446  0.6306 -0.8097 -1.4299
  162MOL    H1135753   4.949   4.081   7.609  0.8978  0.9743 -0.1393
  162MOL    H1235754   4.914   3.681   7.305 -0.7036  0.0300 -0.3887
  162MOL    C1335755   4.774   3.730   7.574  0.1718  0.3671  0.3712
  162MOL    C1435756   4.825   3.745   7.715 -0.2495  0.2294 -0.0159
  162MOL    C1535757   4.912   3.621   7.757 -0.1880 -0.1375 -0.2376
  162MOL    O1635758   4.868   3.507   7.757 -0.0267  0.8298  0.2374
  162MOL    C1735759   5.058   3.649   7.800 -0.0057 -0.1734  0.7802
  162MOL    H1835760   4.671   3.768   7.569  0.4726  1.0329 -1.0496
  162MOL    H1935761   4.770   3.625   7.544 -1.0288  0.4210  0.3117
  162MOL    H2035762   4.898   3.826   7.712 -0.4560  0.3497 -3.3891
  162MOL    H2135763   5.100   3.734   7.746  0.1739 -1.0777 -0.5568
  162MOL    H2235764   5.061   3.676   0.047 -1.2725  1.7104  0.3591
  162MOL    H2335765   5.120   3.562   7.777  1.1548  0.5171  1.2992
  162MOL    C2435766   4.740   3.789   7.829 -0.5119  0.0180 -0.3402
  162MOL    C2535767   4.811   3.818   0.109  0.3012  0.2700  0.5264
  162MOL    C2635768   4.905   3.936   0.095  0.3474 -0.3995  0.5241
  162MOL    O2735769   4.879   4.023   0.008 -0.0441 -0.3356  0.7318
  162MOL    C2835770   5.021   3.956   0.191  0.4593  0.3020 -0.2537
  162MOL    H2935771   4.686   3.880   7.805 -0.9862 -0.2787 -0.3953
  162MOL    H3035772   4.664   3.712   7.837 -0.2204 -0.3342 -0.9140
  162MOL    H3135773   4.878   3.738   0.139 -0.4067 -1.6722 -2.8585
  162MOL    H3235774   5.102   3.896   0.150  2.2181  2.2451  0.2890
  162MOL    H3335775   5.046   4.061   0.206  0.4639  0.4643 -1.3633
  162MOL    H3435776   4.992   3.914   0.288 -2.0752  0.7450 -0.8041
  162MOL    C3535777   4.708   3.838   0.217  0.0419 -0.1413 -0.2191
  162MOL    C3635778   4.618   3.719   0.258  0.2483  0.2438  0.3096
  162MOL    C3735779   4.698   3.593   0.293  0.1238  0.1396 -0.3273
  162MOL    O3835780   4.763   3.574   0.400  0.0951 -0.9303 -0.1303
  162MOL    C3935781   4.682   3.477   0.198 -0.1081 -0.3573  0.3147
  162MOL    H4035782   4.637   3.914   0.184 -0.0011  0.1052  0.4333
  162MOL    H4135783   4.758   3.881   0.304  1.2822  1.5144 -1.7104
  162MOL    H4235784   4.563   3.684   0.171 -0.5232 -2.0350  1.6765
  162MOL    H4335785   4.748   3.487   0.112  1.0043  0.3672  1.2434
  162MOL    H4435786   4.582   3.467   0.155  0.2588 -1.1254 -0.3726
  162MOL    H4535787   4.692   3.381   0.249  2.1085 -0.4786 -0.2947
  162MOL    C4635788   4.509   3.761   0.363  0.6005  0.8284 -0.1285
  162MOL    C4735789   4.563   3.800   0.511  0.0739 -0.1036  0.8207
  162MOL    C4835790   4.581   3.955   0.526  0.0155 -0.3217 -0.4815
  162MOL    O4935791   4.582   4.026   0.425  0.0351 -0.2988 -0.0173
  162MOL    C5035792   4.600   4.012   0.667  0.1912 -0.5575  0.4369
  162MOL    H5135793   4.440   3.677   0.369  1.6725 -0.1143 -0.7979
  162MOL    H5235794   4.450   3.837   0.312  0.8111  0.8901 -0.2783
  162MOL    H5335795   4.664   3.761   0.526  0.4553  0.4413 -0.2882
  162MOL    H5435796   4.511   4.029   0.728  0.0548 -0.4381  0.2075
  162MOL    H5535797   4.649   3.931   0.720 -1.4662 -0.9684  1.3743
  162MOL    H5635798   4.675   4.092   0.668 -2.3018  1.9443 -2.3145
  162MOL    C5735799   4.470   3.739   0.620  0.8532  0.7034 -0.2177
  162MOL    C5835800   4.499   3.595   0.649  0.6367 -0.5439  0.0218
  162MOL    C5935801   4.556   3.583   0.790  0.7494  0.0347 -0.5798
  162MOL    O6035802   4.495   3.513   0.873  0.2084  0.1475  0.6743
  162MOL    C6135803   4.697   3.627   0.807 -0.2107 -0.1971 -0.5934
  162MOL    H6235804   4.368   3.750   0.586  1.0446  0.4562 -0.8703
  162MOL    H6335805   4.467   3.794   0.714 -1.2491 -0.0196  0.1559
  162MOL    H6435806   4.577   3.567   0.578 -1.4085 -3.8736 -1.0144
  162MOL    H6535807   4.697   3.735   0.794  1.4699 -0.1776 -0.5178
  162MOL    H6635808   4.716   3.601   0.912 -2.5264 -1.9323 -0.5493
  162MOL    H6735809   4.766   3.580   0.738 -1.5853 -4.2163  0.6136
  162MOL    C6835810   4.377   3.499   0.637 -0.0277  0.6341  0.0990
  162MOL    C6935811   4.412   3.345   0.631 -0.1687  0.1452 -0.8184
  162MOL    C7035812   4.523   3.298   0.533  0.2828 -0.4381  0.0552
  162MOL    O7135813   4.525   3.339   0.421  0.2074  0.0128  0.4069
  162MOL    C7235814   4.599   3.179   0.569 -0.5046  0.1662 -0.3009
  162MOL    H7335815   4.306   3.508   0.719 -1.4326 -0.0962 -1.0005
  162MOL    H7435816   4.318   3.511   0.545 -1.1696 -1.5881  0.5042
  162MOL    H7535817   4.464   3.327   0.725 -1.6411 -0.6571 -0.1426
  162MOL    H7635818   4.704   3.201   0.582 -0.7378  0.9310  0.3378
  162MOL    H7735819   4.570   3.130   0.662  2.9231 -0.7180  0.3639
  162MOL    H7835820   4.587   3.106   0.489 -0.0494  3.0449 -3.0501
  162MOL    C7935821   4.283   3.253   0.623 -0.1937 -0.3029 -0.0955
  162MOL    C8035822   4.192   3.255   0.746 -0.2086  0.4318  0.2754
  162MOL    C8135823   4.261   3.177   0.863 -0.4573 -0.0119  0.0872
  162MOL    O8235824   4.273   3.058   0.854 -0.0223  0.3292  0.5087
  162MOL    C8335825   4.300   3.254   0.984  0.0305 -0.1739 -0.1842
  162MOL    H8435826   4.316   3.150   0.608  1.6413  0.1537  0.7029
  162MOL    H8535827   4.230   3.277   0.531  2.1886 -1.6353 -1.8544
  162MOL    H8635828   4.180   3.358   0.779  0.9994  0.6819 -0.0362
  162MOL    H8735829   4.237   3.234   1.071  0.4846  2.3857  0.7817
  162MOL    H8835830   4.284   3.358   0.953  0.2526  1.3366  4.3807
  162MOL    H8935831   4.405   3.243   1.011 -0.3217  0.8739  1.7322
  162MOL    C9035832   4.051   3.203   0.701 -0.4604 -0.0845  0.1497
  162MOL    C9135833   3.950   3.170   0.814  0.0360 -0.0175 -0.1871
  162MOL    C9235834   3.916   3.298   0.901 -0.6738  0.3854  0.2356
  162MOL    O9335835   3.895   3.407   0.850  0.1417  0.3486 -0.0189
  162MOL    C9435836   3.914   3.283   1.051  0.2576 -0.1420 -0.4171
  162MOL    H9535837   4.003   3.285   0.647 -0.9604 -0.9171 -0.6752
  162MOL    H9635838   4.058   3.111   0.643 -0.3418  0.1135 -0.1460
  162MOL    H9735839   3.989   3.096   0.884 -0.4843 -0.2260 -0.1117
  162MOL    H9835840   3.908   3.175   1.064 -2.6208  0.1025  0.6636
  162MOL    H9935841   3.988   3.331   1.114  0.3973 -0.5607 -0.2624
  162MOL   H10035842   3.821   3.329   1.084 -0.3696 -0.0108 -2.3131
  162MOL   C10135843   3.822   3.105   0.750  0.0668 -0.2397  0.3817
  162MOL   C10235844   3.713   3.036   0.837 -0.2111 -0.0488 -0.6992
  162MOL   C10335845   3.782   2.906   0.895  0.8326 -0.4100 -0.3919
  162MOL   O10435846   3.888   2.861   0.849  0.5253  0.0164  0.7757
  162MOL   C10535847   3.703   2.818   1.001 -0.4796 -0.1142 -0.4103
  162MOL   H10635848   3.788   3.186   0.685  1.0025  0.1197  0.3239
  162MOL   H10735849   3.849   3.022   0.686 -0.0332 -0.4930  0.6665
  162MOL   H10835850   3.693   3.110   0.915 -1.3011  0.3053 -1.3113
  162MOL   H10935851   3.638   2.876   1.067 -0.7702 -0.2158 -0.6053
  162MOL   H11035852   3.651   2.743   0.941  0.7644 -0.2915 -1.2981
  162MOL   H11135853   3.776   2.775   1.069 -0.9378 -0.5898 -0.2134
  162MOL   C11235854   3.571   3.017   0.773  0.2228 -0.0886 -0.3405
  162MOL   C11335855   3.508   3.145   0.722 -0.5850 -0.1592  0.0935
  162MOL   C11435856   3.489   3.244   0.836 -0.1001 -0.2900  0.1703
  162MOL   O11535857   3.405   3.230   0.923 -0.7348  0.1535  0.3374
  162MOL   C11635858   3.578   3.358   0.827 -0.6445  0.0212  0.1206
  162MOL   H11735859   3.507   2.971   0.848  1.1133 -1.0852 -0.1848
  162MOL   H11835860   3.574   2.950   0.688 -0.3071 -2.4177  1.4250
  162MOL   H11935861   3.568   3.184   0.640  3.1440 -2.3640  1.6591
  162MOL   H12035862   3.644   3.340   0.742  0.4581  0.5540  0.8419
  162MOL   H12135863   3.543   3.457   0.796 -0.6857 -0.0073  0.0781
  162MOL   H12235864   3.649   3.364   0.909  0.4078 -0.9502 -0.7031
  162MOL   C12335865   3.375   3.111   0.656  0.0370  0.0761 -0.1375
  162MOL   C12435866   3.303   3.230   0.593  0.2297 -0.3239 -0.1871
  162MOL   C12535867   3.151   3.218   0.618  0.1197  0.1811  0.4540
  162MOL   O12635868   3.097   3.107   0.648 -0.3653 -0.0451  0.6323
  162MOL   C12735869   3.057   3.336   0.612  0.1985  0.0837  0.8554
  162MOL   H12835870   3.316   3.071   0.738  0.2899 -0.5961 -0.2761
  162MOL   H12935871   3.403   3.034   0.584 -1.8540  0.4345 -1.2816
  162MOL   H13035872   3.320   3.325   0.643  2.1605 -0.5041 -0.4286
  162MOL   H13135873   2.986   3.306   0.535  1.7998  0.9341 -1.0028
  162MOL   H13235874   3.103   3.431   0.583  0.8802 -0.3142  0.6238
  162MOL   H13335875   3.014   3.347   0.711 -0.2222 -1.3064  0.8399
  162MOL   C13435876   3.332   3.254   0.441 -0.6020  0.1616  0.1774
  162MOL   C13535877   3.350   3.401   0.409  0.0401  0.0763  0.8571
  162MOL   C13635878   3.468   3.476   0.484 -0.0824 -0.1304 -0.3498
  162MOL   O13735879   3.579   3.425   0.496  0.2878  0.7667  0.5246
  162MOL   C13835880   3.438   3.608   0.556  0.1946  0.1111 -0.6516
  162MOL   H13935881   3.255   3.208   0.379 -0.4708 -1.8581  1.4577
  162MOL   H14035882   3.415   3.191   0.407 -1.6587 -0.8944 -0.4501
  162MOL   H14135883   3.253   3.445   0.432  0.6132  1.1857  1.1874
  162MOL   H14235884   3.345   3.593   0.610  1.6870  0.1282  1.9891
  162MOL   H14335885   3.428   3.688   0.483  0.5772  0.8934  0.1439
  162MOL   H14435886   3.523   3.609   0.624  0.2281 -0.3980 -0.6815
  162MOL   C14535887   3.375   3.406   0.257 -0.3287 -0.6079 -0.3769
  162MOL   C14635888   3.355   3.548   0.192  0.8923  0.4940 -0.1901
  162MOL   C14735889   3.423   3.560   0.054 -0.8646  0.5225  0.1591
  162MOL   O14835890   3.425   3.462   7.838  0.0343 -0.3664  0.1484
  162MOL   C14935891   3.481   3.692   0.017  0.4741  0.8204 -0.2204
  162MOL   H15035892   3.319   3.339   0.192 -0.1801 -1.1056  0.0094
  162MOL   H15135893   3.479   3.378   0.247  0.4692  2.5682 -1.7385
  162MOL   H15235894   3.387   3.629   0.257 -1.3081 -0.7201  2.4847
  162MOL   H15335895   3.508   3.698   7.770 -1.5169  1.6947 -0.7132
  162MOL   H15435896   3.412   3.773   0.043  1.5935  2.6800 -2.9245
  162MOL   H15535897   3.576   3.698   0.069 -0.0009 -0.9780  0.9501
  162MOL   C15635898   3.208   3.576   0.175 -0.3461 -0.4901  0.2169
  162MOL   C15735899   3.141   3.714   0.184 -0.3926  0.6568  0.8059
  162MOL   C15835900   3.145   3.768   0.325 -0.7733  0.0279 -0.4207
  162MOL   O15935901   3.122   3.705   0.429  0.3745 -0.3382  0.5101
  162MOL   C16035902   3.218   3.899   0.348  0.2240  0.1534 -0.2494
  162MOL   H16135903   3.173   3.533   0.081 -1.0876  1.6649 -0.5148
  162MOL   H16235904   3.143   3.508   0.230 -0.2610 -1.5277 -0.9442
  162MOL   H16335905   3.183   3.794   0.124 -1.4446  1.7481  1.4830
  162MOL   H16435906   3.277   3.931   0.262  2.2245  0.4308  1.2022
  162MOL   H16535907   3.285   3.889   0.433 -0.3692 -1.1133  0.0738
  162MOL   H16635908   3.147   3.978   0.374  0.4126  0.1067  0.4072
  162MOL   C16735909   2.989   3.700   0.142 -0.0246  0.2565 -0.1840
  162MOL   C16835910   2.935   3.664   0.004 -0.0620 -0.3679  0.3918
  162MOL   C16935911   2.986   3.747   7.748  0.2302 -0.3848 -0.4541
  162MOL   O17035912   2.935   3.859   7.724  0.4830 -0.1421 -0.2982
  162MOL   C17135913   3.108   3.698   7.668 -0.3378  0.1512 -0.2416
  162MOL   H17235914   2.949   3.619   0.203  0.9859  0.2052  0.4312
  162MOL   H17335915   2.939   3.786   0.187 -0.6406 -0.3026  0.2200
  162MOL   H17435916   2.971   3.565   7.833  0.0597 -0.0920 -0.4275
  162MOL   H17535917   3.144   3.773   7.598  0.7874 -0.6074 -0.4978
  162MOL   H17635918   3.075   3.614   7.607 -0.1187  0.4430 -0.7636
  162MOL   H17735919   3.186   3.652   7.728  0.2319  0.0894 -1.0232
  162MOL   C17835920   2.784   3.646   0.011 -0.3486 -0.0095 -0.3786
  162MOL   C17935921   2.702   3.648   7.730  0.1362  0.8263  0.3895
  162MOL   C18035922   2.552   3.641   7.744  0.4781 -0.7372  0.2618
  162MOL   O18135923   2.489   3.560   7.682  0.2625 -0.0199  0.4301
  162MOL   C18235924   2.483   3.755   7.820  0.1295  0.3728 -0.6203
  162MOL   H18335925   2.767   3.555   0.068 -1.3480 -1.0069 -2.2240
  162MOL   H18435926   2.734   3.727   0.065  0.5265 -0.3325  0.9310
  162MOL   H18535927   2.717   3.748   7.690 -3.3588  1.1742 -0.1989
  162MOL   H18635928   2.449   3.834   7.754  1.1774 -0.6849 -2.4699
  162MOL   H18735929   2.550   3.789   0.041  0.3711  0.0249 -0.6728
  162MOL   H18835930   2.401   3.713   0.022  1.2856  2.3183  2.4653
  162MOL   C18935931   2.754   3.546   7.626  0.3429  0.3785  0.5087
  162MOL   C19035932   2.726   3.581   7.483 -0.5337 -0.7644  0.2836
  162MOL   C19135933   2.822   3.689   7.426 -0.0474 -0.8388  0.2370
  162MOL   O19235934   2.934   3.657   7.383  0.2151  0.6751  0.8600
  162MOL   C19335935   2.766   3.832   7.416  0.1643  0.7126 -0.1001
  162MOL   H19435936   2.860   3.537   7.650  0.0967 -1.8073  0.8936
  162MOL   H19535937   2.715   3.449   7.657 -0.5057  1.4219  2.7809
  162MOL   H19635938   2.629   3.631   7.481 -0.7034 -0.8362  3.4664
  162MOL   H19735939   2.768   3.881   7.513 -0.7062  0.8937 -0.1669
  162MOL   H19835940   2.826   3.884   7.341 -0.5329  2.0294  0.2385
  162MOL   H19935941   2.663   3.832   7.378  0.6536  2.5049 -1.4993
  162MOL   C20035942   2.721   3.450   7.396 -0.0581 -0.0309  0.9762
  162MOL   C20135943   2.651   3.453   7.261 -0.0718  0.0969  0.1830
  162MOL   C20235944   2.506   3.507   7.271  0.2067  0.2617  0.3990
  162MOL   O20335945   2.476   3.614   7.223 -0.0292  0.1980 -0.1879
  162MOL   C20435946   2.401   3.428   7.343 -0.3318  0.3595  0.4968
  162MOL   H20535947   2.825   3.421   7.377  0.6103  1.0763  2.7895
  162MOL   H20635948   2.682   3.370   7.459 -1.2540  1.3836  2.0468
  162MOL   H20735949   2.708   3.522   7.199  2.3272 -2.8450 -1.0517
  162MOL   H20835950   2.437   3.344   7.401 -0.4498  0.0962  0.1928
  162MOL   H20935951   2.355   3.494   7.416 -3.6958 -2.5873  1.1654
  162MOL   H21035952   2.320   3.400   7.276 -0.6587  1.0250  0.6122
  162MOL   C21135953   2.659   3.315   7.187  0.3433  0.1191 -0.0570
  162MOL   C21235954   2.609   3.328   7.035  0.1560  0.2787 -0.3406
  162MOL   C21335955   2.690   3.229   6.948 -0.1232 -0.2448 -0.1614
  162MOL   O21435956   2.702   3.114   6.989 -1.2320 -0.2966 -0.0519
  162MOL   C21535957   2.738   3.272   6.811  0.0113 -0.1619 -0.4496
  162MOL   H21635958   2.758   3.271   7.187  0.7840  1.0359 -2.5269
  162MOL   H21735959   2.603   3.246   7.251 -0.7062  0.5382 -0.5200
  162MOL   H21835960   2.625   3.429   6.997  1.0043 -0.3954 -1.8608
  162MOL   H21935961   2.833   3.326   6.819 -0.0571 -0.3365  1.9008
  162MOL   H22035962   2.773   3.183   6.759 -0.4085  0.7591 -2.3359
  162MOL   H22135963   2.659   3.315   6.751 -1.1634 -2.8484 -0.8701
  162MOL   H22235964   2.505   3.295   7.037  0.9091 -2.1770  0.9396
  163MOL     C135965   5.142   1.829   5.102 -0.3655  0.5228  0.1001
  163MOL     C235966   5.142   1.807   5.254  0.0568 -0.2552  0.7529
  163MOL     C335967   5.217   1.683   5.276  0.1159  0.5822  0.6473
  163MOL     O435968   5.160   1.577   5.282 -0.8506  0.3642  0.7091
  163MOL     C535969   5.367   1.678   5.297 -0.2574  0.3548  0.1430
  163MOL     H635970   5.095   1.738   5.064  2.5275 -1.4996  1.1782
  163MOL     H735971   5.242   1.847   5.063  0.2631 -2.4409  0.2035
  163MOL     H835972   5.042   1.791   5.295 -0.3708 -1.3409 -0.6857
  163MOL     H935973   5.419   1.706   5.205  0.0353 -1.1661 -0.1708
  163MOL    H1035974   5.390   1.740   5.384 -0.8503 -0.4518  0.8822
  163MOL    H1135975   5.407   1.579   5.320 -0.9831  0.5170  2.2011
  163MOL    H1235976   5.079   1.914   5.077 -1.6378 -0.6175 -0.6521
  163MOL    C1335977   5.197   1.928   5.335 -0.3990  0.5754 -0.0847
  163MOL    C1435978   5.154   1.939   5.483 -0.0190 -0.0263  0.3287
  163MOL    C1535979   5.002   1.978   5.496  0.2582 -0.0936  0.1283
  163MOL    O1635980   4.976   2.104   5.498  0.0269 -0.0071  0.6980
  163MOL    C1735981   4.891   1.872   5.484  0.0608 -0.0609  0.0591
  163MOL    H1835982   5.304   1.913   5.332 -0.5769 -1.3853  1.9714
  163MOL    H1935983   5.179   2.025   5.287 -0.1102  0.0847 -1.2011
  163MOL    H2035984   5.163   1.841   5.529 -1.3475 -0.1972  0.2547
  163MOL    H2135985   4.818   1.903   5.559  0.8969  0.2364  0.7489
  163MOL    H2235986   4.856   1.866   5.381  0.9375 -1.8943 -0.1550
  163MOL    H2335987   4.928   1.775   5.516 -0.4153  0.5256  2.5330
  163MOL    C2435988   5.255   2.030   5.551  0.0413 -0.5101  0.1982
  163MOL    C2535989   5.239   2.033   5.701  0.3477  0.3281 -0.0793
  163MOL    C2635990   5.268   1.900   5.765  0.2960 -0.8135  0.2300
  163MOL    O2735991   5.347   1.825   5.705 -0.4441  0.0269 -0.2539
  163MOL    C2835992   5.208   1.865   5.906  0.8207  0.1160 -0.4091
  163MOL    H2935993   5.358   2.010   5.522  0.2002  0.5836 -0.0267
  163MOL    H3035994   5.226   2.131   5.523 -2.6033 -1.4138 -0.4009
  163MOL    H3135995   5.135   2.055   5.724  0.1686 -0.0340 -0.5239
  163MOL    H3235996   5.116   1.812   5.882 -1.4201  3.3269  0.8404
  163MOL    H3335997   5.286   1.810   5.959  1.2817  0.2834 -0.9092
  163MOL    H3435998   5.187   1.951   5.969 -0.1394 -0.8081  0.5736
  163MOL    C3535999   5.326   2.144   5.763 -0.4110  0.2109  0.8538
  163MOL    C3636000   5.282   2.294   5.730 -0.0324 -0.1996 -0.0555
  163MOL    C3736001   5.156   2.338   5.808  0.3460  0.0794  0.1319
  163MOL    O3836002   5.153   2.352   5.930  0.0595 -0.0944  0.2136
  163MOL    C3936003   5.037   2.379   5.725  0.0675  0.0703 -0.0669
  163MOL    H4036004   5.434   2.126   5.761 -0.2382  1.2285  0.5206
  163MOL    H4136005   5.314   2.139   5.871  0.0625 -0.0490  0.8949
  163MOL    H4236006   5.254   2.309   5.625 -0.5560  0.4577  0.1770
  163MOL    H4336007   4.957   2.420   5.787  0.6836 -0.3192  0.9931
  163MOL    H4436008   5.000   2.282   5.693  0.5180  0.0847 -0.6467
  163MOL    H4536009   5.064   2.438   5.636 -0.6916  0.8555  0.2135
  163MOL    C4636010   5.402   2.382   5.758  0.0780 -0.6169  0.5923
  163MOL    C4736011   5.394   2.526   5.701  0.1397  0.1552 -0.2557
  163MOL    C4836012   5.494   2.618   5.782  0.1890 -0.8742  0.0723
  163MOL    O4936013   5.594   2.668   5.736  0.0357 -0.1523 -0.3437
  163MOL    C5036014   5.456   2.638   5.927 -0.6839  0.3389 -0.3404
  163MOL    H5136015   5.490   2.333   5.718  0.6204  1.1560 -0.4452
  163MOL    H5236016   5.412   2.391   5.866  0.2680  0.4368  0.4949
  163MOL    H5336017   5.292   2.561   5.714  0.6448  1.3539  0.6937
  163MOL    H5436018   5.526   2.578   5.985 -1.1324 -2.4881 -2.5922
  163MOL    H5536019   5.475   2.744   5.947 -0.8314  0.3776 -0.4130
  163MOL    H5636020   5.353   2.614   5.951  0.1595 -1.4242  1.6598
  163MOL    C5736021   5.425   2.538   5.549  0.1899 -0.2034  0.1957
  163MOL    C5836022   5.392   2.678   5.487  0.5654 -1.2482 -0.0679
  163MOL    C5936023   5.451   2.692   5.345 -0.7756 -1.2989 -0.6451
  163MOL    O6036024   5.400   2.652   5.245  0.0359  0.0982  0.7242
  163MOL    C6136025   5.587   2.758   5.323 -0.7195 -0.3060 -1.0754
  163MOL    H6236026   5.393   2.446   5.499 -0.2722 -0.9961  1.9042
  163MOL    H6336027   5.534   2.532   5.549  0.1986 -0.0605 -0.0925
  163MOL    H6436028   5.443   2.756   5.543  0.4143 -0.8179 -0.5184
  163MOL    H6536029   5.607   2.799   5.423  1.6653 -0.4905 -1.4408
  163MOL    H6636030   5.664   2.685   5.296 -0.8134 -1.0710  0.6695
  163MOL    H6736031   5.591   2.832   5.243  0.5330  0.0636 -0.6819
  163MOL    C6836032   5.242   2.730   5.493  0.0161  0.2997  0.4330
  163MOL    C6936033   5.225   2.882   5.499 -0.1820 -0.2491 -0.1756
  163MOL    C7036034   5.266   2.938   5.640 -0.3507  0.4142  0.0605
  163MOL    O7136035   5.275   2.858   5.733 -0.2630  0.4208 -0.5568
  163MOL    C7236036   5.291   3.092   5.654  0.8479  0.0764 -0.3927
  163MOL    H7336037   5.193   2.704   5.399  1.3437  1.0776 -0.4880
  163MOL    H7436038   5.196   2.679   5.577 -0.2351  0.8143  0.6129
  163MOL    H7536039   5.288   2.931   5.424 -0.9434  2.5848  0.9766
  163MOL    H7636040   5.198   3.137   5.690  1.1447  0.0552  0.4016
  163MOL    H7736041   5.378   3.103   5.718  0.2032 -2.0301  0.9178
  163MOL    H7836042   5.325   3.141   5.563 -0.1745 -1.4529 -1.6258
  163MOL    C7936043   5.076   2.924   5.469 -0.8000 -0.5712 -0.4978
  163MOL    C8036044   5.014   2.904   5.329  0.6812 -0.0002 -1.1529
  163MOL    C8136045   5.101   2.963   5.215  1.2347  0.4677 -0.8070
  163MOL    O8236046   5.172   3.057   5.244 -0.1638  0.4078  0.4373
  163MOL    C8336047   5.086   2.901   5.072 -0.3692  0.3862  0.6334
  163MOL    H8436048   5.070   3.029   5.498  2.2335 -0.5151  0.0632
  163MOL    H8536049   5.012   2.871   5.540 -1.1749  0.6475  0.0907
  163MOL    H8636050   5.011   2.796   5.317 -0.0742  0.0093 -1.0492
  163MOL    H8736051   5.184   2.863   5.040 -1.4240 -0.9653 -1.0689
  163MOL    H8836052   5.041   2.977   5.009 -2.2189 -0.3659  1.0184
  163MOL    H8936053   5.009   2.824   5.078 -0.1784  0.1527  0.1345
  163MOL    C9036054   4.874   2.977   5.327  0.8240 -0.4998 -0.4327
  163MOL    C9136055   4.771   2.934   5.220 -0.3192 -0.3173  0.4701
  163MOL    C9236056   4.758   2.779   5.208 -0.2616 -0.6768  0.9524
  163MOL    O9336057   4.770   2.720   5.102  0.3351 -0.1038  0.0157
  163MOL    C9436058   4.724   2.700   5.329 -0.0654 -0.0764  0.6370
  163MOL    H9536059   4.825   2.968   5.424  1.3851  1.8578  0.1096
  163MOL    H9636060   4.896   3.084   5.321  1.4378 -0.3809  2.8160
  163MOL    H9736061   4.803   2.958   5.119 -0.4044 -2.3966 -0.0730
  163MOL    H9836062   4.804   2.707   5.403 -0.2387 -1.6087  0.9863
  163MOL    H9936063   4.630   2.734   5.372 -0.3216  0.9876 -0.7518
  163MOL   H10036064   4.713   2.592   5.315 -0.2239  0.2319 -1.7967
  163MOL   C10136065   4.635   3.006   5.230 -0.5238  0.1514 -0.3919
  163MOL   C10236066   4.637   3.159   5.255 -0.0250  0.0099  0.5510
  163MOL   C10336067   4.731   3.245   5.164 -0.0694 -0.0430  0.1529
  163MOL   O10436068   4.808   3.327   5.202  0.5657  0.1990  0.2729
  163MOL   C10536069   4.716   3.217   5.014 -0.3509  0.1555 -0.1095
  163MOL   H10636070   4.597   2.988   5.129  0.7769 -0.2843 -0.8216
  163MOL   H10736071   4.568   2.957   5.300  0.4495  0.9009  1.0910
  163MOL   H10836072   4.538   3.196   5.228  1.1234  0.7772 -2.8983
  163MOL   H10936073   4.793   3.258   4.949  1.6720 -0.3877  1.8838
  163MOL   H11036074   4.723   3.109   5.003 -0.5858  0.0879  0.3902
  163MOL   H11136075   4.620   3.257   4.982 -0.6303 -1.6797 -1.6876
  163MOL   C11236076   4.652   3.197   5.406 -0.4457 -0.0878 -0.6299
  163MOL   C11336077   4.595   3.332   5.460  0.5531 -0.1553  0.3194
  163MOL   C11436078   4.664   3.380   5.589 -0.5532 -0.0916 -0.8011
  163MOL   O11536079   4.614   3.351   5.701 -0.2040  0.4396 -0.1057
  163MOL   C11636080   4.784   3.478   5.584  0.5633 -0.1865  0.0308
  163MOL   H11736081   4.756   3.205   5.436  0.1262  0.7687 -2.7633
  163MOL   H11836082   4.618   3.118   5.473  0.3131  0.3869  0.3327
  163MOL   H11936083   4.612   3.416   5.393 -0.8540 -0.3895 -0.3484
  163MOL   H12036084   4.865   3.429   5.639  0.6190  0.6913  0.7369
  163MOL   H12136085   4.798   3.486   5.476 -0.2288 -3.3250 -0.3769
  163MOL   H12236086   4.745   3.563   5.638  2.2552  0.3920  0.3799
  163MOL   C12336087   4.441   3.328   5.487  0.4443 -0.5349  0.8721
  163MOL   C12436088   4.349   3.304   5.368  0.1188  0.2933  0.5110
  163MOL   C12536089   4.346   3.410   5.258 -0.0826 -0.0960  0.3922
  163MOL   O12636090   4.354   3.533   5.290 -0.3590  0.2585  0.5819
  163MOL   C12736091   4.359   3.378   5.108  0.0043 -0.2004  0.2739
  163MOL   H12836092   4.409   3.422   5.532 -1.0580 -0.3640 -0.5243
  163MOL   H12936093   4.431   3.244   5.555  0.3532  0.1198  1.6630
  163MOL   H13036094   4.377   3.210   5.321  2.8516  0.3149  2.0145
  163MOL   H13136095   4.279   3.436   5.061  0.4302 -0.1826 -0.4324
  163MOL   H13236096   4.348   3.272   5.084  0.4262  0.4905 -3.2822
  163MOL   H13336097   4.459   3.409   5.080 -0.3306  1.7406  1.1824
  163MOL   C13436098   4.210   3.281   5.430  0.2115 -0.4068 -0.6948
  163MOL   C13536099   4.121   3.183   5.350  0.3536  0.0818 -0.6150
  163MOL   C13636100   4.049   3.257   5.229 -0.0342  0.0530 -0.6902
  163MOL   O13736101   4.058   3.212   5.114  0.2181  0.2183 -0.3673
  163MOL   C13836102   3.974   3.385   5.263 -0.0167 -0.2540  0.1945
  163MOL   H13936103   4.161   3.378   5.434 -0.0622 -0.5620 -0.2821
  163MOL   H14036104   4.217   3.242   5.531  0.1024 -1.9041 -1.2494
  163MOL   H14136105   4.029   3.156   5.403  0.0830  2.1467  0.0249
  163MOL   H14236106   3.954   3.379   5.370 -0.3117 -4.4515 -0.0169
  163MOL   H14336107   3.883   3.391   5.204  0.7334  0.0640 -0.9403
  163MOL   H14436108   4.024   3.478   5.238 -1.1083  0.5215  0.8575
  163MOL   C14536109   4.200   3.053   5.311  0.0930  0.4679  0.5448
  163MOL   C14636110   4.118   2.923   5.280  0.2582  0.3918  0.4561
  163MOL   C14736111   4.211   2.827   5.209 -0.3193 -0.3007 -0.2756
  163MOL   O14836112   4.334   2.848   5.207  0.3973 -0.3737 -0.0893
  163MOL   C14936113   4.140   2.708   5.150 -0.0685 -0.5126  0.0330
  163MOL   H15036114   4.268   3.040   5.395 -0.2188 -0.3794  0.6686
  163MOL   H15136115   4.266   3.085   5.230  0.3302 -1.2112  0.0644
  163MOL   H15236116   4.032   2.939   5.215 -0.0445  1.2271  1.0599
  163MOL   H15336117   4.190   2.616   5.179 -2.1995 -1.0842  1.9806
  163MOL   H15436118   4.036   2.702   5.181 -0.1923  2.8570  0.4507
  163MOL   H15536119   4.143   2.704   5.041  1.5874 -1.7878  0.0988
  163MOL   C15636120   4.060   2.849   5.400  0.8077 -0.0334 -0.1650
  163MOL   C15736121   3.917   2.897   5.427  0.1006  0.2016  0.0606
  163MOL   C15836122   3.892   2.869   5.575  0.2656  0.2492  0.0635
  163MOL   O15936123   3.862   2.755   5.608 -0.0168  0.5619  0.3052
  163MOL   C16036124   3.887   2.991   5.672 -0.5329 -0.1599  0.2794
  163MOL   H16136125   4.059   2.740   5.402  0.5409 -0.0232  0.5005
  163MOL   H16236126   4.131   2.877   5.478  0.9523 -0.1394 -0.2587
  163MOL   H16336127   3.915   3.006   5.421 -1.1803  0.1546 -0.6078
  163MOL   H16436128   3.946   3.068   5.623 -1.1692 -0.7549 -1.5046
  163MOL   H16536129   3.936   2.967   5.766  1.0900 -0.6827 -0.6870
  163MOL   H16636130   3.786   3.025   5.694 -1.4924 -1.9918 -1.0711
  163MOL   C16736131   3.802   2.842   5.331  1.1303  0.4239  0.3390
  163MOL   C16836132   3.655   2.905   5.357 -0.0835  0.1128 -0.9273
  163MOL   C16936133   3.537   2.805   5.339  0.3202 -0.2535 -0.1085
  163MOL   O17036134   3.462   2.817   5.242  0.1051 -0.1026 -0.6916
  163MOL   C17136135   3.519   2.694   5.438 -0.7252  0.7534 -0.0544
  163MOL   H17236136   3.829   2.873   5.230 -1.2418  1.1413 -0.0969
  163MOL   H17336137   3.798   2.733   5.325  0.5401  0.1851  3.8034
  163MOL   H17436138   3.648   2.929   5.463 -1.8521 -0.3892 -0.9203
  163MOL   H17536139   3.477   2.607   5.386 -0.9291  1.8012 -1.6777
  163MOL   H17636140   3.450   2.724   5.517  1.0369  0.3213  1.6780
  163MOL   H17736141   3.614   2.675   5.487 -0.9985  0.5518  0.4033
  163MOL   C17836142   3.637   3.037   5.275  0.4844 -0.4335 -0.3871
  163MOL   C17936143   3.546   3.141   5.338 -0.0023  0.5235  0.8945
  163MOL   C18036144   3.469   3.232   5.239 -0.1403  0.7150  0.5967
  163MOL   O18136145   3.490   3.349   5.222 -0.3168  0.4907  0.1958
  163MOL   C18236146   3.355   3.172   5.155 -1.0667  0.1714 -0.6820
  163MOL   H18336147   3.737   3.080   5.264 -0.0317  0.7724 -0.4029
  163MOL   H18436148   3.596   3.015   5.177 -0.1052 -1.4071  0.0646
  163MOL   H18536149   3.476   3.076   5.391 -0.6491  0.0059 -0.5764
  163MOL   H18636150   3.344   3.065   5.172  2.5670 -0.4262 -1.6711
  163MOL   H18736151   3.378   3.180   5.048  0.6308 -2.9759 -0.6124
  163MOL   H18836152   3.264   3.230   5.170 -0.8516 -0.0689  1.6486
  163MOL   C18936153   3.629   3.226   5.446 -0.3681  0.4225  0.1926
  163MOL   C19036154   3.540   3.302   5.551 -0.4132 -0.6999 -0.2160
  163MOL   C19136155   3.454   3.204   5.638  0.0625 -0.3293  0.3398
  163MOL   O19236156   3.487   3.081   5.644 -0.2069  0.1082  0.2454
  163MOL   C19336157   3.320   3.256   5.696 -0.0908 -0.1982  0.2514
  163MOL   H19436158   3.694   3.168   5.511 -0.9122 -0.5691 -0.1350
  163MOL   H19536159   3.694   3.297   5.396  1.0866  0.0159  1.4415
  163MOL   H19636160   3.468   3.357   5.489 -0.4470 -0.2277  0.2388
  163MOL   H19736161   3.277   3.333   5.632  0.3839 -1.4650 -1.6400
  163MOL   H19836162   3.247   3.177   5.713  1.5110 -1.9101 -0.5433
  163MOL   H19936163   3.348   3.294   5.795  0.9073 -0.0703 -0.0728
  163MOL   C20036164   3.630   3.396   5.642 -0.1492  0.3537  0.8859
  163MOL   C20136165   3.557   3.516   5.725  0.3558  0.0854  0.4681
  163MOL   C20236166   3.496   3.619   5.626 -0.0482 -0.3956 -0.1055
  163MOL   O20336167   3.386   3.597   5.572 -0.1137  0.1474  0.3286
  163MOL   C20436168   3.564   3.755   5.590 -0.5533 -0.0311  0.0640
  163MOL   H20536169   3.680   3.337   5.718 -3.2867 -1.6761  1.4725
  163MOL   H20636170   3.708   3.434   5.576 -1.2912  1.4158  0.1166
  163MOL   H20736171   3.471   3.474   5.775 -3.0561  3.5382 -2.1232
  163MOL   H20836172   3.492   3.824   5.545 -0.0237 -0.3094 -1.2278
  163MOL   H20936173   3.609   3.804   5.676  0.3990  3.7968 -2.4901
  163MOL   H21036174   3.635   3.733   5.511 -1.2445  0.5462 -0.7330
  163MOL   C21136175   3.652   3.579   5.830  0.4012  0.2012  0.0970
  163MOL   C21236176   3.590   3.699   5.909  0.0283  0.9927 -0.7639
  163MOL   C21336177   3.585   3.677   6.064 -0.6585 -0.2216 -0.2977
  163MOL   O21436178   3.526   3.580   6.110  0.9622 -0.5801 -0.4594
  163MOL   C21536179   3.650   3.784   6.142  0.0782 -0.1302  0.2632
  163MOL   H21636180   3.687   3.498   5.895  2.0181 -1.1487 -2.3639
  163MOL   H21736181   3.747   3.608   5.786  1.5994  0.7107  2.9056
  163MOL   H21836182   3.495   3.731   5.867 -0.6305  0.7025  0.4791
  163MOL   H21936183   3.664   3.764   6.248 -2.1800 -1.2405  0.3883
  163MOL   H22036184   3.750   3.809   6.107  0.4966  2.0158  2.7959
  163MOL   H22136185   3.591   3.876   6.134  0.4694  0.0580 -0.4391
  163MOL   H22236186   3.656   3.782   5.884  0.9794  0.6438  0.5128
  164MOL     C136187   6.776   3.499   5.315 -0.4122 -0.2880 -0.4530
  164MOL     C236188   6.910   3.557   5.280 -0.0600 -0.2964  0.6198
  164MOL     C336189   6.933   3.561   5.121 -0.0274 -0.2048  0.2024
  164MOL     O436190   6.850   3.525   5.045  0.7451  0.6413 -0.4532
  164MOL     C536191   7.073   3.603   5.079 -0.2782  0.0103  0.2663
  164MOL     H636192   6.716   3.574   5.367  0.0585  0.4426 -0.9639
  164MOL     H736193   6.782   3.421   5.391  1.1482 -0.9075 -1.1962
  164MOL     H836194   6.988   3.485   5.301 -1.6022 -2.3247 -0.3916
  164MOL     H936195   7.059   3.678   5.002  0.9333 -0.1996 -0.1554
  164MOL    H1036196   7.141   3.641   5.155  0.6625 -2.2933  0.6263
  164MOL    H1136197   7.126   3.517   5.039 -2.5957 -1.8245  1.0013
  164MOL    H1236198   6.718   3.463   5.230 -1.8105  0.9879 -0.0742
  164MOL    C1336199   6.948   3.677   5.362  0.8694 -0.3923  0.0452
  164MOL    C1436200   6.854   3.808   5.352  0.1868  0.3797 -0.6217
  164MOL    C1536201   6.916   3.881   5.233 -0.1933 -0.1221 -0.7840
  164MOL    O1636202   7.032   3.931   5.239 -0.2295 -0.0845  0.0488
  164MOL    C1736203   6.825   3.900   5.112  0.6397 -0.1984 -0.4083
  164MOL    H1836204   6.955   3.653   5.468  2.1024 -2.4520 -0.4770
  164MOL    H1936205   7.052   3.699   5.342  1.2515  2.1103  4.1544
  164MOL    H2036206   6.751   3.781   5.330  0.0923 -0.7801  1.1413
  164MOL    H2136207   6.761   3.815   5.087  0.6707  0.4712 -2.9623
  164MOL    H2236208   6.771   3.992   5.131  0.2688 -0.4974 -0.0156
  164MOL    H2336209   6.898   3.908   5.030 -0.2949 -2.0896 -1.4776
  164MOL    C2436210   6.850   3.882   5.485  0.1912  0.1175 -0.0453
  164MOL    C2536211   6.749   3.998   5.481  0.4314 -0.9056 -0.2319
  164MOL    C2636212   6.600   3.965   5.442  0.5584  0.1430  0.3779
  164MOL    O2736213   6.535   3.889   5.513 -0.2960  0.0016 -0.6061
  164MOL    C2836214   6.538   4.028   5.316  0.0680  0.0798  0.2194
  164MOL    H2936215   6.853   3.818   5.573  1.4775 -2.2190 -1.7133
  164MOL    H3036216   6.948   3.931   5.484  0.1658  0.1897  0.7592
  164MOL    H3136217   6.793   4.065   5.408  2.7422 -0.1227  1.8354
  164MOL    H3236218   6.612   4.066   5.245 -0.5397  0.8133 -0.0360
  164MOL    H3336219   6.484   3.956   5.255  1.2531  1.1337 -2.1458
  164MOL    H3436220   6.471   4.112   5.336 -1.6177 -1.2831  0.4139
  164MOL    C3536221   6.767   4.073   5.613 -0.0112 -0.2445 -1.3870
  164MOL    C3636222   6.710   4.218   5.611 -0.1739  0.1452  0.4667
  164MOL    C3736223   6.572   4.225   5.671  0.6851  0.2432  0.1765
  164MOL    O3836224   6.469   4.248   5.608  0.3540 -0.6823 -0.5362
  164MOL    C3936225   6.560   4.213   5.817 -0.0712 -0.2924  0.4637
  164MOL    H4036226   6.870   4.074   5.646  0.5572 -0.1761 -3.1166
  164MOL    H4136227   6.724   4.013   5.693  1.8104 -0.7431 -0.7656
  164MOL    H4236228   6.687   4.234   5.505 -1.9592  0.8904  0.9546
  164MOL    H4336229   6.467   4.263   5.844 -1.2450 -1.0347 -2.0446
  164MOL    H4436230   6.647   4.264   5.860  0.4671 -0.2153 -0.6984
  164MOL    H4536231   6.564   4.109   5.848 -0.6569 -0.0312  1.4193
  164MOL    C4636232   6.812   4.321   5.665  0.4398  0.3130 -0.0890
  164MOL    C4736233   6.773   4.470   5.647  0.0363  0.8054  0.3167
  164MOL    C4836234   6.859   4.564   5.724 -0.4035 -0.0359 -0.3508
  164MOL    O4936235   6.977   4.539   5.756 -0.2403 -0.5329  0.3543
  164MOL    C5036236   6.815   4.710   5.738  0.2881 -0.4614 -0.2214
  164MOL    H5136237   6.904   4.303   5.609  0.5816 -0.3120  0.3315
  164MOL    H5236238   6.845   4.281   5.761 -3.8720 -1.8171  0.6534
  164MOL    H5336239   6.680   4.486   5.702 -0.7483 -1.7310 -0.2333
  164MOL    H5436240   6.853   4.761   5.826  0.1741  1.0816 -1.0416
  164MOL    H5536241   6.852   4.772   5.656  0.7228 -0.8368 -0.3121
  164MOL    H5636242   6.707   4.711   5.745  0.3531  1.5044  0.8784
  164MOL    C5736243   6.762   4.517   5.498  0.8654  0.0963  0.3641
  164MOL    C5836244   6.880   4.537   5.411 -0.2619 -0.1035  0.2060
  164MOL    C5936245   6.904   4.406   5.327 -0.5634  0.0432  0.2009
  164MOL    O6036246   6.824   4.376   5.239 -0.1698  0.2657  0.1916
  164MOL    C6136247   7.013   4.307   5.371  0.3706  0.2537  0.2034
  164MOL    H6236248   6.725   4.620   5.496 -1.2295 -0.6045 -4.0818
  164MOL    H6336249   6.677   4.467   5.452  0.7747  0.1322  0.4917
  164MOL    H6436250   6.964   4.560   5.476  0.6347 -0.3905 -0.8307
  164MOL    H6536251   7.060   4.342   5.463  0.5198  1.9143 -0.4799
  164MOL    H6636252   6.979   4.204   5.387  0.4797  0.2317  0.2945
  164MOL    H6736253   7.088   4.304   5.292 -0.5043 -0.3233 -0.6152
  164MOL    C6836254   6.848   4.645   5.303 -0.6650 -0.2671 -0.5480
  164MOL    C6936255   6.972   4.696   5.229  0.1158 -0.5418 -0.0136
  164MOL    C7036256   7.065   4.776   5.323  1.2592 -0.3339 -0.1940
  164MOL    O7136257   7.024   4.827   5.425 -0.4313 -0.2733 -1.1433
  164MOL    C7236258   7.210   4.785   5.284  1.0205 -0.0817 -0.4441
  164MOL    H7336259   6.765   4.616   5.238 -0.0841  0.7616 -1.7678
  164MOL    H7436260   6.810   4.736   5.351  0.4742  0.1313 -0.3903
  164MOL    H7536261   7.019   4.602   5.199  0.0866 -0.4673 -0.2948
  164MOL    H7636262   7.236   4.879   5.235  1.0075 -0.1061 -0.4966
  164MOL    H7736263   7.283   4.793   5.365 -0.3895 -0.4064  0.8848
  164MOL    H7836264   7.245   4.714   5.209  0.7583 -0.4952 -0.1724
  164MOL    C7936265   6.942   4.778   5.098  0.1227  0.3800  0.2088
  164MOL    C8036266   6.863   4.707   4.978 -0.0125  0.5141  0.2566
  164MOL    C8136267   6.937   4.595   4.916 -0.4570  0.4300  0.4642
  164MOL    O8236268   7.068   4.594   4.917  0.1110  0.4333  0.2516
  164MOL    C8336269   6.860   4.475   4.874  0.1908 -0.3437  0.1012
  164MOL    H8436270   7.038   4.811   5.058  0.3511  1.0776  1.3173
  164MOL    H8536271   6.886   4.862   5.138  1.1528  0.4735  1.4802
  164MOL    H8636272   6.763   4.683   5.013 -0.3683  2.8747  0.9680
  164MOL    H8736273   6.802   4.509   4.789  1.0968  3.1809  0.8106
  164MOL    H8836274   6.793   4.446   4.955 -1.2204  1.3678 -0.4255
  164MOL    H8936275   6.925   4.391   4.851  0.2047  0.2173 -1.9719
  164MOL    C9036276   6.839   4.814   4.870  0.1320  0.5050 -0.5726
  164MOL    C9136277   6.720   4.904   4.909 -0.0257 -0.0581 -0.5569
  164MOL    C9236278   6.750   5.052   4.903 -0.1019 -0.5825 -0.4622
  164MOL    O9336279   6.786   5.111   4.805 -0.5828  0.6737 -0.8946
  164MOL    C9436280   6.724   5.131   5.036  0.2627  0.5514 -0.3386
  164MOL    H9536281   6.928   4.872   4.847  0.9930 -0.0396  1.3157
  164MOL    H9636282   6.816   4.770   4.773 -1.2335  0.5706 -0.2979
  164MOL    H9736283   6.694   4.880   5.012  0.8878  2.1987  0.2336
  164MOL    H9836284   6.658   5.214   5.011 -1.0371 -0.5898 -0.8015
  164MOL    H9936285   6.684   5.059   5.108 -1.9628  3.6047  1.6001
  164MOL   H10036286   6.815   5.174   5.075 -0.0802  0.7995  0.1888
  164MOL   C10136287   6.591   4.890   4.824  0.2272  0.5052  0.1561
  164MOL   C10236288   6.462   4.929   4.904 -0.3299  0.4142 -0.4800
  164MOL   C10336289   6.407   4.808   4.996 -0.2448  0.1116 -0.2719
  164MOL   O10436290   6.370   4.700   4.942  0.4360 -0.5286 -0.0537
  164MOL   C10536291   6.431   4.812   5.142  0.2434 -0.2294 -0.5028
  164MOL   H10636292   6.596   4.943   4.729  2.8473  0.3482  0.1602
  164MOL   H10736293   6.568   4.789   4.791 -2.3347  1.9287 -2.7169
  164MOL   H10836294   6.472   5.016   4.968  1.1518 -1.1988  1.5543
  164MOL   H10936295   6.471   4.718   5.180 -0.3214  0.4329  1.7983
  164MOL   H11036296   6.514   4.877   5.172  0.6801 -1.1976  0.4465
  164MOL   H11136297   6.343   4.835   5.203  0.9064  0.9665  0.0212
  164MOL   C11236298   6.343   4.975   4.815 -0.3981  0.2487 -0.0195
  164MOL   C11336299   6.376   5.101   4.743  0.6362 -0.3841  0.0712
  164MOL   C11436300   6.279   5.212   4.787  0.9470  0.5419 -0.3298
  164MOL   O11536301   6.158   5.202   4.777  0.0416 -0.4410  0.1342
  164MOL   C11636302   6.346   5.336   4.841  0.3975  0.3799 -0.1284
  164MOL   H11736303   6.250   4.977   4.873 -0.3761 -1.0704  0.0711
  164MOL   H11836304   6.323   4.891   4.748  1.5714 -0.0291 -0.2655
  164MOL   H11936305   6.474   5.135   4.775  0.3160  1.1371 -0.5016
  164MOL   H12036306   6.407   5.382   4.764 -0.0876  2.7903  0.8830
  164MOL   H12136307   6.275   5.415   4.869  0.3466  0.1847  0.3020
  164MOL   H12236308   6.409   5.308   4.926 -1.8177 -1.6058  0.9379
  164MOL   C12336309   6.359   5.084   4.584 -0.3865  0.8439 -0.3326
  164MOL   C12436310   6.405   5.215   4.503 -0.4194 -0.0299 -0.2690
  164MOL   C12536311   6.350   5.198   4.357  0.0881 -0.4935 -0.1218
  164MOL   O12636312   6.419   5.183   4.254  0.5442 -0.1174  0.0172
  164MOL   C12736313   6.201   5.183   4.338  0.5183  0.2743 -0.0217
  164MOL   H12836314   6.257   5.057   4.560 -0.5192  0.5331  0.5716
  164MOL   H12936315   6.427   5.006   4.549 -1.1521 -0.5450  1.2208
  164MOL   H13036316   6.371   5.308   4.547 -1.0579 -1.0609  1.4593
  164MOL   H13136317   6.180   5.083   4.303 -2.8076  1.5364 -1.8311
  164MOL   H13236318   6.166   5.250   4.260  0.7447  1.4274  0.8366
  164MOL   H13336319   6.148   5.203   4.431  0.8657 -1.3328  0.5376
  164MOL   C13436320   6.565   5.217   4.508  0.2011 -0.3376  0.0439
  164MOL   C13536321   6.636   5.338   4.446 -0.5135 -0.6231  0.1371
  164MOL   C13636322   6.609   5.474   4.510 -0.3627  0.2811  1.1770
  164MOL   O13736323   6.586   5.491   4.627 -0.2274 -0.1037 -0.1317
  164MOL   C13836324   6.611   5.601   4.416  0.1293 -0.1220 -0.0783
  164MOL   H13936325   6.605   5.123   4.468  0.6579 -0.0637 -0.1450
  164MOL   H14036326   6.601   5.213   4.611  0.3013 -1.1535 -0.0192
  164MOL   H14136327   6.612   5.346   4.340  0.2135  1.6788  0.1085
  164MOL   H14236328   6.579   5.697   4.454  0.5529  1.0367 -2.5364
  164MOL   H14336329   6.552   5.581   4.326  0.0229  1.5114 -0.3868
  164MOL   H14436330   6.712   5.612   4.378 -0.7091 -1.5396 -2.9269
  164MOL   C14536331   6.792   5.303   4.450  0.0500 -0.6397 -0.6973
  164MOL   C14636332   6.876   5.364   4.330  0.5131 -0.1156 -0.1463
  164MOL   C14736333   6.992   5.454   4.373 -0.1098 -0.8362 -0.5916
  164MOL   O14836334   6.987   5.574   4.345 -0.6302  0.4835  0.0052
  164MOL   C14936335   7.112   5.389   4.443 -0.3926  0.2119 -0.9015
  164MOL   H15036336   6.808   5.195   4.448 -0.2268 -0.7120  0.4544
  164MOL   H15136337   6.835   5.347   4.540  1.1996 -1.4441 -0.8384
  164MOL   H15236338   6.803   5.427   4.279 -0.4861 -1.6560 -0.6519
  164MOL   H15336339   7.089   5.302   4.504 -2.6410  1.1213 -0.4130
  164MOL   H15436340   7.169   5.355   4.356 -0.9343 -0.1753 -1.1056
  164MOL   H15536341   7.174   5.458   4.501  0.7202  0.3472 -2.2025
  164MOL   C15636342   6.908   5.252   4.232  0.4656  0.7011 -0.2725
  164MOL   C15736343   6.978   5.304   4.101  0.4945 -0.3957 -0.5170
  164MOL   C15836344   6.891   5.367   3.992  0.6624 -0.5406  0.7460
  164MOL   O15936345   6.800   5.298   3.950 -0.2622 -0.0485 -0.6312
  164MOL   C16036346   6.930   5.508   3.938  0.6569  0.4277  0.4210
  164MOL   H16136347   6.969   5.174   4.278  0.0648 -1.2548 -2.9485
  164MOL   H16236348   6.825   5.188   4.202  2.1113 -2.0979  0.9605
  164MOL   H16336349   7.056   5.370   4.140  0.1974 -0.1810 -0.2806
  164MOL   H16436350   6.847   5.568   3.974  0.1083  0.0927 -0.2727
  164MOL   H16536351   6.934   5.523   3.830  0.8804  2.2945  0.6777
  164MOL   H16636352   7.022   5.551   3.977  0.4694  1.1927  0.0308
  164MOL   C16736353   7.056   5.191   4.040 -0.0230  0.1894 -0.3232
  164MOL   C16836354   7.163   5.221   3.926 -0.3380 -0.1299 -0.1293
  164MOL   C16936355   7.179   5.096   3.847  0.7205 -0.3801  0.6023
  164MOL   O17036356   7.189   4.983   3.898  0.1464 -0.1577 -0.8498
  164MOL   C17136357   7.155   5.107   3.700  0.0130 -0.3839  0.0389
  164MOL   H17236358   7.104   5.126   4.113  1.0763 -1.1666 -2.2056
  164MOL   H17336359   6.981   5.136   3.983  1.6616 -2.2314 -0.2878
  164MOL   H17436360   7.129   5.299   3.858 -0.6408 -1.5764 -1.6735
  164MOL   H17536361   7.175   5.205   3.656  2.8996 -0.2509  1.4970
  164MOL   H17636362   7.057   5.074   3.667  0.0464  0.6164 -1.1012
  164MOL   H17736363   7.227   5.040   3.653 -1.6396 -0.9638 -1.7511
  164MOL   C17836364   7.305   5.259   3.972  0.1599 -0.0522 -0.4633
  164MOL   C17936365   7.379   5.363   3.886 -0.3354  0.4881  0.2665
  164MOL   C18036366   7.519   5.308   3.849  0.3009 -0.0907 -0.4736
  164MOL   O18136367   7.613   5.330   3.925 -0.5369 -0.0529  0.2089
  164MOL   C18236368   7.536   5.221   3.728 -0.2010  0.5185 -0.8048
  164MOL   H18336369   7.307   5.310   4.068  2.9601  2.6176 -1.8466
  164MOL   H18436370   7.359   5.168   3.999 -0.9043 -0.9745 -1.4033
  164MOL   H18536371   7.323   5.364   3.793  1.3580  0.9314 -0.7577
  164MOL   H18636372   7.438   5.195   3.690  0.0507 -0.0377 -1.0661
  164MOL   H18736373   7.583   5.130   3.764 -1.9975 -0.0113  0.2773
  164MOL   H18836374   7.610   5.270   3.665  1.3226  1.2543  1.4715
  164MOL   C18936375   7.382   5.497   3.949 -0.5188  0.1499  0.2604
  164MOL   C19036376   7.434   5.610   3.858  0.6846  0.0693  0.1325
  164MOL   C19136377   7.341   5.632   3.735  0.6114  0.3533  0.0271
  164MOL   O19236378   7.239   5.562   3.723  0.5946  0.6568 -0.1753
  164MOL   C19336379   7.373   5.733   3.623 -0.4401  0.3848 -0.2533
  164MOL   H19436380   7.279   5.511   3.981 -0.2296 -1.2472  1.9035
  164MOL   H19536381   7.437   5.487   4.043  0.9038 -0.4595 -0.6202
  164MOL   H19636382   7.528   5.576   3.814  0.6911  2.0510 -1.4570
  164MOL   H19736383   7.473   5.738   3.578 -1.0616  0.8740 -1.6066
  164MOL   H19836384   7.300   5.717   3.544 -1.0395 -1.5136  0.6773
  164MOL   H19936385   7.353   5.832   3.665  1.2028  0.1703  1.0717
  164MOL   C20036386   7.461   5.741   3.940 -0.3464  0.2969 -0.1099
  164MOL   C20136387   7.583   5.816   3.889  0.7418 -0.4205  0.1399
  164MOL   C20236388   7.717   5.746   3.928 -0.2328 -0.0474 -0.0064
  164MOL   O20336389   7.774   5.771   4.034  0.1626  0.4773  0.2491
  164MOL   C20436390   7.789   5.653   3.824 -0.0983  0.0253  0.6197
  164MOL   H20536391   7.373   5.804   3.931 -0.4906 -0.0204 -1.0034
  164MOL   H20636392   7.478   5.711   4.043 -0.3763  2.5530  0.5738
  164MOL   H20736393   7.581   5.806   3.781 -0.3237  1.5110 -0.0298
  164MOL   H20836394   7.788   5.699   3.725  0.9589  0.2458  0.7018
  164MOL   H20936395   0.039   5.647   3.838  0.0354  0.1077 -0.3342
  164MOL   H21036396   7.751   5.551   3.813 -0.6503  0.2500  0.4577
  164MOL   C21136397   7.594   5.960   3.930  0.1319 -0.3601  0.4612
  164MOL   C21236398   7.546   6.073   3.830  0.4464 -0.1448  0.3710
  164MOL   C21336399   7.398   6.108   3.837  0.1038  0.0434 -0.0001
  164MOL   O21436400   7.315   6.079   3.743 -0.3083 -0.2998  0.0090
  164MOL   C21536401   7.357   6.179   3.962 -0.5686 -0.1854  0.2323
  164MOL   H21636402   7.551   5.966   4.029  0.0116  1.1390  0.3255
  164MOL   H21736403   7.695   5.995   3.950  0.8006 -1.8813 -0.1233
  164MOL   H21836404   7.569   6.056   3.725 -1.8574 -1.3989  0.0293
  164MOL   H21936405   7.391   6.282   3.947  1.2895 -0.8741 -0.4180
  164MOL   H22036406   7.250   6.201   3.953 -0.5506 -0.4700 -0.7734
  164MOL   H22136407   7.397   6.136   4.054  1.8189  2.6299  0.5646
  164MOL   H22236408   7.591   6.168   3.859  0.0282 -0.2897  1.5373
  165MOL     C136409   1.221   5.503   6.237 -0.4683  0.3137 -0.3288
  165MOL     C236410   1.326   5.503   6.347  0.1119 -0.7504  0.1185
  165MOL     C336411   1.296   5.612   6.454  0.2186 -0.8269  1.0189
  165MOL     O436412   1.200   5.613   6.532 -0.2285  0.3000 -0.0493
  165MOL     C536413   1.391   5.731   6.456 -0.7484  0.3510  0.5739
  165MOL     H636414   1.130   5.454   6.273 -0.8921 -0.3309 -2.1769
  165MOL     H736415   1.254   5.446   6.150 -1.7513 -1.1929  0.1392
  165MOL     H836416   1.416   5.524   6.289 -0.5676  2.2362  0.0540
  165MOL     H936417   1.366   5.815   6.521  1.2585  1.4195  0.0067
  165MOL    H1036418   1.491   5.698   6.485 -0.7970  1.3692  1.9483
  165MOL    H1136419   1.383   5.791   6.365 -0.6348  1.5229  1.3317
  165MOL    H1236420   1.197   5.600   6.193 -0.7586 -0.4630 -1.9333
  165MOL    C1336421   1.332   5.355   6.402 -0.1858  0.3015 -0.4709
  165MOL    C1436422   1.443   5.344   6.511 -0.8093  0.3505  0.8383
  165MOL    C1536423   1.579   5.391   6.455  0.3229  0.2654 -0.0973
  165MOL    O1636424   1.644   5.471   6.521  0.2474 -0.3159  0.2847
  165MOL    C1736425   1.620   5.356   6.314 -0.0119  0.3609 -0.3657
  165MOL    H1836426   1.244   5.337   6.464  0.1080  2.1803  0.5507
  165MOL    H1936427   1.348   5.273   6.332 -1.3449 -1.8750  1.7359
  165MOL    H2036428   1.424   5.409   6.596  0.9367  1.0631  0.7147
  165MOL    H2136429   1.704   5.422   6.291  0.2419  1.3202  2.9464
  165MOL    H2236430   1.659   5.254   6.316  0.6262  0.5938 -0.7344
  165MOL    H2336431   1.544   5.356   6.236 -0.1944 -2.4072 -0.2461
  165MOL    C2436432   1.460   5.198   6.561  0.0748  0.7543 -0.3329
  165MOL    C2536433   1.365   5.144   6.665 -0.4610 -0.1572  0.8500
  165MOL    C2636434   1.233   5.092   6.602  0.5967 -0.1298  1.3947
  165MOL    O2736435   1.229   4.983   6.539 -0.3170  0.1186 -0.1781
  165MOL    C2836436   1.097   5.159   6.617  0.0181 -0.0302  0.5007
  165MOL    H2936437   1.463   5.129   6.476 -0.8451 -0.3715  0.5214
  165MOL    H3036438   1.559   5.183   6.605 -0.2269 -2.0813 -0.5377
  165MOL    H3136439   1.337   5.220   6.739  0.0538 -0.9274  1.8578
  165MOL    H3236440   1.030   5.100   6.680 -1.0886 -0.7966 -1.3411
  165MOL    H3336441   1.114   5.257   6.661  0.6815 -0.3503  0.9616
  165MOL    H3436442   1.043   5.174   6.523  0.5956 -0.6316  0.0662
  165MOL    C3536443   1.440   5.033   6.749 -0.1444  0.3795 -0.4507
  165MOL    C3636444   1.366   4.934   6.841  0.1355 -0.3135 -0.5110
  165MOL    C3736445   1.459   4.815   6.869  0.3420 -0.4970 -0.1418
  165MOL    O3836446   1.540   4.809   6.964  0.2409 -0.5589 -0.0066
  165MOL    C3936447   1.441   4.694   6.777 -0.5931 -0.6515  0.9749
  165MOL    H4036448   1.515   5.083   6.811  0.9327 -2.1185  0.3473
  165MOL    H4136449   1.508   4.978   6.684 -0.6133 -1.8496  0.8767
  165MOL    H4236450   1.287   4.886   6.783  0.1401 -2.0156  0.8733
  165MOL    H4336451   1.472   4.601   6.823  0.3578 -0.3294  0.9892
  165MOL    H4436452   1.468   4.713   6.673 -2.1389 -1.0166  0.4815
  165MOL    H4536453   1.333   4.678   6.770 -0.7707  0.1244  1.9181
  165MOL    C4636454   1.305   4.990   6.966 -0.4891 -0.3878  0.1319
  165MOL    C4736455   1.188   4.908   7.021  0.1903  0.3962 -0.3474
  165MOL    C4836456   1.213   4.871   7.166  0.0904  0.3471 -0.8567
  165MOL    O4936457   1.135   4.927   7.255  0.1137  0.0914  0.4024
  165MOL    C5036458   1.309   4.771   7.213 -0.2868 -0.9237 -0.0674
  165MOL    H5136459   1.259   5.086   6.941  2.3402  0.4561 -2.1426
  165MOL    H5236460   1.387   4.996   7.038 -0.2553 -0.4803 -0.1233
  165MOL    H5336461   1.197   4.816   6.964  0.7300  0.2108  0.0266
  165MOL    H5436462   1.263   4.681   7.174  0.8036 -0.9745 -1.2789
  165MOL    H5536463   1.406   4.785   7.165  0.1950  0.1773  1.1902
  165MOL    H5636464   1.319   4.771   7.322 -0.8589 -1.9448 -0.0092
  165MOL    C5736465   1.052   4.966   6.991  0.0302  0.3142  0.0168
  165MOL    C5836466   0.933   4.870   7.019  0.4562 -0.3523 -0.5077
  165MOL    C5936467   0.805   4.949   7.063  0.5757 -0.5509  0.2026
  165MOL    O6036468   0.753   5.039   6.997 -0.1508 -0.1658  0.2059
  165MOL    C6136469   0.730   4.912   7.194 -0.1940 -0.4311 -0.8415
  165MOL    H6236470   1.029   4.995   6.889 -1.5534  0.3664  0.3801
  165MOL    H6336471   1.048   5.061   7.043 -0.5863  0.0345  0.4823
  165MOL    H6436472   0.972   4.808   7.100  0.5771  1.7513  1.0807
  165MOL    H6536473   0.786   4.945   7.282  0.7801 -0.1047 -1.5795
  165MOL    H6636474   0.633   4.961   7.202  1.1174  2.0526  0.6962
  165MOL    H6736475   0.730   4.804   7.210 -0.4553 -0.6407 -2.2202
  165MOL    C6836476   0.894   4.783   6.898  0.3461 -0.3374  0.8541
  165MOL    C6936477   0.843   4.644   6.945 -0.5667  0.1243 -0.1234
  165MOL    C7036478   0.956   4.561   7.015  0.6115  0.2018 -0.1882
  165MOL    O7136479   1.076   4.584   7.001 -0.9907 -0.0843  0.0952
  165MOL    C7236480   0.912   4.446   7.102  0.4002 -0.1536  0.3576
  165MOL    H7336481   0.826   4.828   6.826  1.3082 -0.5831 -0.2207
  165MOL    H7436482   0.979   4.765   6.832 -0.3126 -0.2519 -0.0144
  165MOL    H7536483   0.759   4.659   7.014  0.1362 -1.1018  1.0179
  165MOL    H7636484   0.992   4.403   7.162  2.0322 -0.6085 -2.0658
  165MOL    H7736485   0.843   4.488   7.175 -1.0671  1.3732 -1.8654
  165MOL    H7836486   0.864   4.366   7.046 -0.5207  1.4410 -1.1618
  165MOL    C7936487   0.768   4.564   6.833  0.1535  0.5678  0.0661
  165MOL    C8036488   0.845   4.489   6.725 -0.5935 -1.1061  0.6334
  165MOL    C8136489   0.922   4.582   6.638 -0.1281  0.6433  0.4552
  165MOL    O8236490   0.876   4.661   6.557  0.3163  0.3187  0.1828
  165MOL    C8336491   1.075   4.570   6.648  0.5731 -0.3491 -0.0199
  165MOL    H8436492   0.685   4.614   6.782  1.2220 -0.1324 -2.4252
  165MOL    H8536493   0.724   4.485   6.894 -0.2399  0.6878 -0.0579
  165MOL    H8636494   0.918   4.425   6.775  0.2936 -0.7488 -0.1644
  165MOL    H8736495   1.112   4.496   6.576  0.4653  0.4598 -0.9056
  165MOL    H8836496   1.116   4.534   6.743 -1.1615 -0.9706  0.5050
  165MOL    H8936497   1.122   4.667   6.638  0.5509 -0.0999  2.1205
  165MOL    C9036498   0.747   4.403   6.647  0.7680  0.8833  0.2645
  165MOL    C9136499   0.804   4.259   6.615  0.5790  0.1320 -0.0449
  165MOL    C9236500   0.909   4.269   6.503  0.2153 -0.1018  0.6622
  165MOL    O9336501   1.013   4.210   6.503 -0.1044  0.2941 -0.2983
  165MOL    C9436502   0.877   4.359   6.381 -0.3989  0.1749 -0.3399
  165MOL    H9536503   0.664   4.380   6.714  0.0191  0.2460 -0.8564
  165MOL    H9636504   0.714   4.463   6.563 -1.0725  0.7947  0.9052
  165MOL    H9736505   0.722   4.201   6.574 -1.0019 -0.0302  3.1630
  165MOL    H9836506   0.903   4.462   6.405 -0.1393  0.6514 -2.5668
  165MOL    H9936507   0.942   4.324   6.301  0.4752 -2.2398  1.3802
  165MOL   H10036508   0.772   4.340   6.359 -0.6819  0.5525  0.6512
  165MOL   C10136509   0.849   4.168   6.738 -0.2938 -0.6681  0.1355
  165MOL   C10236510   0.846   4.011   6.731  0.3772  0.1220  0.1678
  165MOL   C10336511   0.705   3.957   6.723  0.3496  0.2156  0.0055
  165MOL   O10436512   0.613   4.024   6.773 -0.0039  0.3253 -0.2119
  165MOL   C10536513   0.687   3.817   6.669  0.5596  0.7924 -0.1034
  165MOL   H10636514   0.951   4.194   6.764 -0.1244  0.2859 -1.4126
  165MOL   H10736515   0.777   4.189   6.817 -1.1653  2.3749 -1.3911
  165MOL   H10836516   0.891   3.975   6.638  0.2221 -0.4582  0.3161
  165MOL   H10936517   0.583   3.795   6.645 -0.0520  0.5345  2.6748
  165MOL   H11036518   0.738   3.806   6.573 -0.3329 -2.1119 -0.2968
  165MOL   H11136519   0.742   3.755   6.740 -1.6784 -1.1088  0.0242
  165MOL   C11236520   0.930   3.947   6.843 -0.1568  0.0667  0.3150
  165MOL   C11336521   1.074   3.909   6.794 -0.1710 -0.3208 -0.0834
  165MOL   C11436522   1.072   3.771   6.727  0.0921  0.2689 -0.3821
  165MOL   O11536523   1.020   3.671   6.780 -0.7286 -0.5763  0.2450
  165MOL   C11636524   1.169   3.743   6.616 -0.0627  0.2763 -0.6282
  165MOL   H11736525   0.882   3.860   6.886  0.2869  0.6596  2.0247
  165MOL   H11836526   0.925   4.021   6.923  2.3715 -0.0958  0.6455
  165MOL   H11936527   1.102   3.973   6.710  0.3270 -0.8916 -0.3476
  165MOL   H12036528   1.200   3.638   6.609 -0.4608  0.1018  0.2384
  165MOL   H12136529   1.120   3.781   6.527 -0.4929  1.3246  0.0592
  165MOL   H12236530   1.253   3.810   6.637 -0.8254  0.6179  1.3522
  165MOL   C12336531   1.185   3.911   6.908  0.2093 -0.0832 -0.5127
  165MOL   C12436532   1.255   4.044   6.940  0.0990  0.3123 -0.0327
  165MOL   C12536533   1.306   4.114   6.811 -0.6843 -0.9439 -0.2939
  165MOL   O12636534   1.373   4.055   6.728 -0.2185  0.0833  0.0016
  165MOL   C12736535   1.265   4.256   6.787  0.3796  0.3076 -0.6959
  165MOL   H12836536   1.272   3.853   6.879  1.5396  1.8818 -0.5522
  165MOL   H12936537   1.144   3.868   7.000 -0.1398 -0.9011 -1.0433
  165MOL   H13036538   1.175   4.093   6.996 -0.8590 -3.3110  1.9067
  165MOL   H13136539   1.232   4.272   6.685 -1.3162  0.0167 -0.2194
  165MOL   H13236540   1.361   4.307   6.798 -0.9505  2.9728 -1.2258
  165MOL   H13336541   1.194   4.288   6.863 -1.4974 -1.5730 -1.5943
  165MOL   C13436542   1.367   4.020   7.045 -0.1478 -0.3323 -0.4544
  165MOL   C13536543   1.445   4.150   7.090 -0.5622 -0.3021  0.0373
  165MOL   C13636544   1.349   4.242   7.165 -0.4400 -0.6599 -0.3969
  165MOL   O13736545   1.296   4.206   7.264  0.1024  0.0066 -0.6834
  165MOL   C13836546   1.326   4.380   7.118  0.2562  0.0935  0.2204
  165MOL   H13936547   1.431   3.934   7.029  0.3920  0.1904 -1.1344
  165MOL   H14036548   1.316   3.975   7.130  0.6870 -1.9776 -0.8133
  165MOL   H14136549   1.488   4.205   7.006  2.3082 -0.3751  1.3910
  165MOL   H14236550   1.394   4.418   7.042  1.9087 -0.4497  1.3951
  165MOL   H14336551   1.326   4.454   7.198  0.7144 -2.0201  2.2743
  165MOL   H14436552   1.231   4.386   7.065 -0.0807  0.8556  0.9068
  165MOL   C14536553   1.564   4.115   7.174 -0.1102 -0.4576 -0.2977
  165MOL   C14636554   1.650   4.235   7.223 -0.2897 -0.2831  0.0645
  165MOL   C14736555   1.762   4.177   7.304 -0.1864 -0.8796  0.2375
  165MOL   O14836556   1.880   4.198   7.277  0.3651 -0.6389 -0.0046
  165MOL   C14936557   1.722   4.079   7.411  0.2703 -0.1878  0.3110
  165MOL   H15036558   1.633   4.051   7.119  3.3330  2.1798  0.7776
  165MOL   H15136559   1.520   4.056   7.254  0.8634  0.1731  0.7089
  165MOL   H15236560   1.581   4.287   7.289 -2.9284 -1.9305 -1.2807
  165MOL   H15336561   1.743   3.978   7.376  1.5431 -0.3229  1.4006
  165MOL   H15436562   1.778   4.096   7.503  0.2428 -0.6791  0.4183
  165MOL   H15536563   1.614   4.084   7.428  0.3394  1.1742  0.4437
  165MOL   C15636564   1.696   4.336   7.117  0.2498 -0.4695 -0.2132
  165MOL   C15736565   1.768   4.462   7.157  0.4688 -0.2685 -0.7033
  165MOL   C15836566   1.693   4.537   7.271 -0.1480  0.2976  0.0423
  165MOL   O15936567   1.573   4.560   7.256 -0.4009 -0.1357 -0.1578
  165MOL   C16036568   1.764   4.564   7.401 -0.1455  0.3312 -0.4958
  165MOL   H16136569   1.762   4.277   7.053  0.9041 -0.1211  0.1318
  165MOL   H16236570   1.614   4.376   7.058  0.7583  2.2458  0.8172
  165MOL   H16336571   1.860   4.424   7.200 -0.4366 -2.4714 -0.6489
  165MOL   H16436572   1.710   4.631   7.467 -1.5428  0.3386 -1.6305
  165MOL   H16536573   1.869   4.592   7.388 -0.2722  0.4683 -1.2642
  165MOL   H16636574   1.756   4.467   7.451  1.2581 -0.1709 -1.1899
  165MOL   C16736575   1.816   4.556   7.046 -0.2022  0.1735 -0.0708
  165MOL   C16836576   1.933   4.509   6.952 -0.2893  0.5336 -0.2471
  165MOL   C16936577   1.889   4.442   6.825  0.1761  0.5024 -0.5766
  165MOL   O17036578   1.782   4.391   6.805  0.0727  0.0516 -0.7352
  165MOL   C17136579   1.979   4.458   6.710 -0.6351  0.7934 -0.1625
  165MOL   H17236580   1.732   4.583   6.981  0.7468  1.6817 -0.6729
  165MOL   H17336581   1.843   4.651   7.091  1.3741  0.7828 -2.2384
  165MOL   H17436582   1.953   4.608   6.910  1.5009  0.6629  0.8378
  165MOL   H17536583   1.960   4.551   6.658  0.0341  1.0321  0.0069
  165MOL   H17636584   1.966   4.377   6.638  1.2164 -0.1330  0.5083
  165MOL   H17736585   2.086   4.448   6.732 -0.7107 -0.0956 -0.1881
  165MOL   C17836586   2.055   4.440   7.018 -0.7661  0.2689 -0.4021
  165MOL   C17936587   2.133   4.537   7.119 -0.5689  0.2311  0.5922
  165MOL   C18036588   2.183   4.663   7.048  0.6749 -0.4298  0.6213
  165MOL   O18136589   2.222   4.655   6.932 -0.3982 -0.0362 -0.1010
  165MOL   C18236590   2.202   4.791   7.133  0.6018 -0.1931  0.1602
  165MOL   H18336591   2.022   4.343   7.055 -2.1654  0.7090 -0.4582
  165MOL   H18436592   2.127   4.412   6.941 -1.1202  2.3218 -1.5267
  165MOL   H18536593   2.067   4.574   7.197 -0.5605  1.2240  0.1311
  165MOL   H18636594   2.158   4.760   7.228 -1.6833  0.7805 -0.5409
  165MOL   H18736595   2.134   4.869   7.098  2.2142  0.5596 -1.3671
  165MOL   H18836596   2.305   4.825   7.140  0.8516 -0.9652  0.3780
  165MOL   C18936597   2.252   4.466   7.190  0.1146  0.3568  0.7462
  165MOL   C19036598   2.268   4.482   7.340  0.3598  0.4755 -0.6591
  165MOL   C19136599   2.160   4.399   7.406 -0.2458  0.0878  0.4493
  165MOL   O19236600   2.063   4.456   7.466 -0.1498  0.2926  0.1604
  165MOL   C19336601   2.172   4.253   7.422 -0.0107  0.8828  0.1792
  165MOL   H19436602   2.259   4.359   7.168  3.3909  0.6924 -0.1588
  165MOL   H19536603   2.339   4.500   7.134  0.0168  1.0438  1.0074
  165MOL   H19636604   2.252   4.587   7.367  0.8107 -0.3144  2.8948
  165MOL   H19736605   2.267   4.202   7.407  0.6806  1.9880  0.6879
  165MOL   H19836606   2.137   4.226   7.522  0.0140 -0.1371 -0.0854
  165MOL   H19936607   2.115   4.208   7.341  3.6217  1.7030 -2.9788
  165MOL   C20036608   2.409   4.439   7.386 -0.3253 -0.1841  0.2418
  165MOL   C20136609   2.443   4.450   7.541  0.8327  0.4598 -0.4444
  165MOL   C20236610   2.403   4.589   7.588 -0.1036 -0.7184  0.6973
  165MOL   O20336611   2.444   4.692   7.532 -0.7926  0.2042  1.0681
  165MOL   C20436612   2.300   4.595   7.697  0.8283  0.2516 -0.5753
  165MOL   H20536613   2.434   4.337   7.355 -0.7739  0.1931 -1.3538
  165MOL   H20636614   2.482   4.500   7.333  1.2464 -2.3820 -0.1835
  165MOL   H20736615   2.385   4.376   7.595  0.5440  0.7112 -0.4095
  165MOL   H20836616   2.296   4.495   7.742  1.6267 -0.0379 -1.1375
  165MOL   H20936617   2.326   4.659   7.782 -1.6344 -0.0444  0.4685
  165MOL   H21036618   2.204   4.623   7.655  0.7686  0.5372 -0.2535
  165MOL   C21136619   2.589   4.420   7.579 -0.3960 -0.5351  0.2507
  165MOL   C21236620   2.656   4.300   7.520  0.0011  0.0335  0.0136
  165MOL   C21336621   2.588   4.166   7.543  1.0297  0.5013  0.6755
  165MOL   O21436622   2.500   4.133   7.464 -0.5446  0.0747 -0.4258
  165MOL   C21536623   2.618   4.076   7.660 -0.2847  0.6378  0.1505
  165MOL   H21636624   2.649   4.506   7.547 -1.8529 -0.0632 -1.3066
  165MOL   H21736625   2.597   4.406   7.687 -1.3898 -0.9700  0.2738
  165MOL   H21836626   2.754   4.288   7.566  0.4792 -2.1106 -1.5343
  165MOL   H21936627   2.573   3.978   7.644  0.7974  0.3133 -1.0067
  165MOL   H22036628   2.725   4.061   7.677  1.1334  4.1612 -4.4561
  165MOL   H22136629   2.579   4.117   7.754 -1.2649  1.5013 -0.6181
  165MOL   H22236630   2.672   4.315   7.414 -2.4223 -0.2876 -0.4220
  166MOL     C136631   0.067   2.457   4.330 -0.5898  0.0715  0.3076
  166MOL     C236632   0.047   2.435   4.485  0.1139  0.2241 -0.1376
  166MOL     C336633   0.085   2.290   4.524  0.0644 -0.3617  0.2939
  166MOL     O436634   0.201   2.244   4.500  0.2948 -0.5552 -0.0682
  166MOL     C536635   7.845   2.196   4.584 -0.0273  0.1168 -0.7223
  166MOL     H636636   0.171   2.486   4.312 -1.2324  1.4495 -1.3359
  166MOL     H736637   0.006   2.537   4.288 -0.9881  0.1005  0.9401
  166MOL     H836638   7.797   2.438   4.497  0.1663 -1.5880  0.9967
  166MOL     H936639   7.811   2.112   4.523 -0.1423  0.7538 -1.5346
  166MOL    H1036640   0.035   2.149   4.670 -0.1085  0.5987 -0.4117
  166MOL    H1136641   7.751   2.242   4.616  0.0023 -0.3119 -0.0047
  166MOL    H1236642   0.045   2.360   4.284  0.5345 -0.3581  0.6513
  166MOL    C1336643   0.127   2.532   4.571  0.6034 -0.0934 -0.2517
  166MOL    C1436644   0.035   2.660   4.572  0.2304  0.2118 -0.4629
  166MOL    C1536645   0.135   2.779   4.564 -0.6880 -0.3435 -0.4652
  166MOL    O1636646   0.201   2.820   4.661 -0.5232 -0.1582 -0.4429
  166MOL    C1736647   0.128   2.859   4.434 -0.2593  0.5902  0.2880
  166MOL    H1836648   0.159   2.501   4.670  1.7704  2.7454  0.2963
  166MOL    H1936649   0.217   2.554   4.514 -0.1499  0.5461 -1.2291
  166MOL    H2036650   7.826   2.661   4.486  0.6102  2.0629 -0.7468
  166MOL    H2136651   0.118   2.965   4.458  1.5288  0.4962  1.5557
  166MOL    H2236652   0.221   2.850   4.379 -0.9759 -2.0334 -0.5860
  166MOL    H2336653   0.052   2.828   4.362  0.1771  0.8084 -0.2670
  166MOL    C2436654   7.808   2.655   4.703  0.8877 -1.1411  0.0760
  166MOL    C2536655   7.690   2.756   4.716  0.6188 -0.6710  0.3679
  166MOL    C2636656   7.590   2.758   4.598 -0.1976  0.0578  0.1449
  166MOL    O2736657   7.528   2.654   4.570 -0.4069  0.1997 -0.0302
  166MOL    C2836658   7.603   2.859   4.495  0.1089 -0.4485  0.3808
  166MOL    H2936659   7.778   2.553   4.726  0.6718 -1.3546 -1.0884
  166MOL    H3036660   0.017   2.684   4.783  0.6152  2.0215 -0.7674
  166MOL    H3136661   7.739   2.852   4.722 -0.4161 -0.2424  2.9016
  166MOL    H3236662   7.663   2.945   4.524 -1.9089  1.2231 -0.3036
  166MOL    H3336663   7.654   2.809   4.412  0.9394 -0.8957  1.1585
  166MOL    H3436664   7.509   2.882   4.444  1.1018 -0.3698 -1.4832
  166MOL    C3536665   7.607   2.737   4.848 -0.7507  0.3989  0.3104
  166MOL    C3636666   7.683   2.769   4.984 -0.0229 -0.5206 -0.2567
  166MOL    C3736667   7.735   2.905   4.974 -0.0133 -0.3331 -0.2460
  166MOL    O3836668   7.664   3.004   4.975 -0.2848  0.3646 -0.0041
  166MOL    C3936669   0.027   2.919   4.963 -0.2496  0.4644 -0.1333
  166MOL    H4036670   7.593   2.630   4.860  2.2530 -0.0692 -0.0081
  166MOL    H4136671   7.511   2.789   4.847 -0.7551  0.3880  0.1726
  166MOL    H4236672   7.766   2.701   5.000 -0.0890 -0.8065 -1.0972
  166MOL    H4336673   0.068   2.846   5.032  1.6875  0.7889 -0.9063
  166MOL    H4436674   0.053   3.022   4.989 -0.6621  0.6166 -0.3169
  166MOL    H4536675   0.064   2.898   4.863 -1.9996 -2.0510 -0.3075
  166MOL    C4636676   7.594   2.757   5.109  0.0906  0.2048  0.4631
  166MOL    C4736677   7.645   2.727   5.251  0.5709 -0.1880  0.6687
  166MOL    C4836678   7.677   2.862   5.326 -0.0257 -0.2484  0.6070
  166MOL    O4936679   7.592   2.920   5.389 -0.0606 -0.1960 -0.2942
  166MOL    C5036680   7.823   2.913   5.315 -0.0012  0.6944 -0.5705
  166MOL    H5136681   7.526   2.674   5.087 -1.3135  0.3406  4.0396
  166MOL    H5236682   7.515   2.831   5.104  0.2872  0.4149  0.4697
  166MOL    H5336683   7.741   2.682   5.225  0.8223  0.1773  0.9586
  166MOL    H5436684   0.034   2.874   5.390  0.9570 -0.6396 -2.0801
  166MOL    H5536685   0.028   2.892   5.228 -2.1558 -0.5547 -1.8708
  166MOL    H5636686   7.819   3.019   5.338  1.4776  0.7077 -0.2792
  166MOL    C5736687   7.558   2.635   5.339  0.0162  0.7760 -0.8763
  166MOL    C5836688   7.607   2.562   5.466 -0.2712  0.4576  0.3814
  166MOL    C5936689   7.736   2.490   5.432  0.0836 -0.5141 -0.1638
  166MOL    O6036690   7.836   2.560   5.416 -0.5022 -0.3764  0.5697
  166MOL    C6136691   7.727   2.339   5.415  0.2103  0.0109 -0.2492
  166MOL    H6236692   7.521   2.562   5.268  2.3763 -1.1170 -0.2214
  166MOL    H6336693   7.472   2.693   5.372  0.4400 -1.1167  4.0639
  166MOL    H6436694   7.526   2.492   5.484  0.5308 -0.9577 -1.4809
  166MOL    H6536695   7.812   2.287   5.457  0.3099  1.4202  1.3352
  166MOL    H6636696   7.641   2.301   5.470  0.7724 -3.1940 -1.5047
  166MOL    H6736697   7.695   2.309   5.315  0.3259 -0.3733 -0.1719
  166MOL    C6836698   7.626   2.653   5.592  0.8952  0.2626 -0.0132
  166MOL    C6936699   7.602   2.573   5.722 -0.0498  0.4380 -0.3359
  166MOL    C7036700   7.583   2.682   5.827 -0.2072 -0.5295 -0.0851
  166MOL    O7136701   7.672   2.754   5.877 -0.3075 -0.1716 -0.0416
  166MOL    C7236702   7.437   2.698   5.873  0.0638  0.2115  0.3397
  166MOL    H7336703   7.723   2.703   5.590  0.4690  1.0740 -2.2441
  166MOL    H7436704   7.550   2.730   5.579 -0.1572 -0.5774  1.1080
  166MOL    H7536705   7.510   2.516   5.710  1.2649 -1.3310 -2.3195
  166MOL    H7636706   7.420   2.803   5.892 -1.0405  0.3994 -1.5556
  166MOL    H7736707   7.368   2.664   5.796 -0.0487 -0.4641  0.7254
  166MOL    H7836708   7.414   2.630   5.955  3.3804 -2.8508 -1.1005
  166MOL    C7936709   7.723   2.483   5.752 -0.2785  0.8214  0.0300
  166MOL    C8036710   7.713   2.409   5.882 -0.2675 -0.2791  0.1846
  166MOL    C8136711   0.002   2.363   5.924  0.4246 -0.3049  0.5952
  166MOL    O8236712   0.073   2.432   5.996 -0.0870  0.4265  0.2087
  166MOL    C8336713   0.049   2.229   5.861  0.0585 -0.5164 -0.1304
  166MOL    H8436714   7.812   2.546   5.763  1.9524 -1.9461 -1.4057
  166MOL    H8536715   7.753   2.414   5.673 -0.6440  0.8854 -0.1639
  166MOL    H8636716   7.685   2.477   5.963  3.9489  2.4808 -0.5265
  166MOL    H8736717   0.022   2.228   5.756  0.3182 -0.5577 -0.1967
  166MOL    H8836718   0.021   2.140   5.917 -2.2043 -0.7233 -1.5194
  166MOL    H8936719   0.158   2.231   5.869  0.2748  0.8786 -2.7375
  166MOL    C9036720   7.609   2.294   5.876 -0.3327  0.4502  0.4956
  166MOL    C9136721   7.576   2.216   6.013 -0.1393  0.4928 -0.3757
  166MOL    C9236722   7.534   2.298   6.129  0.0146  1.0195  0.7421
  166MOL    O9336723   7.464   2.400   6.122 -0.0286 -0.1565  0.1440
  166MOL    C9436724   7.598   2.264   6.260  0.0688  0.1598 -0.8483
  166MOL    H9536725   7.514   2.339   5.847 -0.6048  1.1233  2.3582
  166MOL    H9636726   7.644   2.228   5.797  0.0017  0.3654  0.7123
  166MOL    H9736727   7.670   2.164   6.031  0.0703  0.8303 -0.4868
  166MOL    H9836728   7.704   2.288   6.248  0.3867  0.4430  2.3062
  166MOL    H9936729   7.571   2.338   6.335 -0.3033 -0.9047  0.0807
  166MOL   H10036730   7.596   2.165   6.306  0.8917  1.0451  1.1100
  166MOL   C10136731   7.478   2.100   5.988  0.7820 -0.1005  0.4874
  166MOL   C10236732   7.486   1.983   6.091 -0.0068 -0.5453 -0.5702
  166MOL   C10336733   7.625   1.927   6.097 -0.5400  0.4471  0.4775
  166MOL   O10436734   7.704   1.940   6.002  0.8055 -0.1228 -0.1350
  166MOL   C10536735   7.654   1.828   6.210  0.0492 -0.6645  0.1000
  166MOL   H10636736   7.377   2.138   6.001  0.8696 -0.2497  1.6938
  166MOL   H10736737   7.484   2.060   5.887 -0.3048  0.7015  0.0956
  166MOL   H10836738   7.458   2.021   6.189  2.4439 -0.5161  0.1483
  166MOL   H10936739   7.558   1.785   6.236  0.5263 -1.8000  0.0219
  166MOL   H11036740   7.724   1.749   6.180  1.6282  1.0210 -0.7761
  166MOL   H11136741   7.695   1.880   6.297 -2.5941  0.9284  0.4368
  166MOL   C11236742   7.384   1.879   6.034  1.0158  0.2274  0.1815
  166MOL   C11336743   7.243   1.911   6.082  0.3552 -1.0516 -0.1552
  166MOL   C11436744   7.245   1.911   6.238 -0.1764  0.0965 -0.0900
  166MOL   O11536745   7.247   2.008   6.313  0.0014  0.0868 -0.1229
  166MOL   C11636746   7.249   1.772   6.306 -0.2095 -0.7475  0.2945
  166MOL   H11736747   7.418   1.777   6.048  1.4192 -0.0635 -2.6070
  166MOL   H11836748   7.371   1.885   5.926  1.9898  1.2426  0.0966
  166MOL   H11936749   7.209   2.011   6.056  0.0419 -0.4843  2.2818
  166MOL   H12036750   7.315   1.709   6.247  1.2315  2.1114 -1.2627
  166MOL   H12136751   7.268   1.776   6.413 -1.2772  0.2028  0.4565
  166MOL   H12236752   7.146   1.740   6.287  0.4779 -2.2640 -1.0265
  166MOL   C12336753   7.138   1.818   6.014 -1.0920  0.8028 -0.0122
  166MOL   C12436754   6.991   1.821   6.073  0.1326 -0.8808  0.5724
  166MOL   C12536755   6.923   1.681   6.061 -0.0853  0.3163  0.0566
  166MOL   O12636756   6.860   1.648   5.953  0.3175 -0.7902 -0.1290
  166MOL   C12736757   6.955   1.574   6.156  0.5464 -0.2555  0.5691
  166MOL   H12836758   7.164   1.712   6.024 -0.3567  1.0468  0.6523
  166MOL   H12936759   7.137   1.842   5.908 -2.2722  2.7024  0.4120
  166MOL   H13036760   7.010   1.831   6.180  1.1528  0.5339  0.2827
  166MOL   H13136761   6.990   1.610   6.253 -0.9183  0.1268  0.9775
  166MOL   H13236762   7.043   1.525   6.115  0.5191  1.6740 -1.8983
  166MOL   H13336763   6.874   1.502   6.170 -0.7622  1.4205  1.8318
  166MOL   C13436764   6.922   1.949   6.029  0.8033 -0.3014  0.4048
  166MOL   C13536765   6.775   1.965   6.063 -0.4607  0.5183  0.0027
  166MOL   C13636766   6.743   1.950   6.216  0.4333  0.0079  0.4843
  166MOL   O13736767   6.684   1.859   6.262  0.1833 -0.4407  0.1817
  166MOL   C13836768   6.797   2.058   6.316 -0.4292 -0.1256 -0.1610
  166MOL   H13936769   6.933   1.947   5.921  1.1928 -1.2674  0.4623
  166MOL   H14036770   6.974   2.035   6.073 -0.6220  0.0917  1.3807
  166MOL   H14136771   6.720   1.881   6.020  1.2977 -0.5852 -0.1417
  166MOL   H14236772   6.756   2.041   6.416  0.7235 -0.8607  0.2124
  166MOL   H14336773   6.778   2.161   6.286  1.1026  0.5279  1.0257
  166MOL   H14436774   6.906   2.045   6.319 -0.4967 -0.8973 -1.0057
  166MOL   C14536775   6.716   2.097   6.008  0.1671  0.0788  0.2158
  166MOL   C14636776   6.569   2.128   6.042  0.2566  0.6759  0.2862
  166MOL   C14736777   6.527   2.262   5.973 -0.1261  0.1300  0.4239
  166MOL   O14836778   6.437   2.273   5.889 -0.1675 -0.6393  0.8283
  166MOL   C14936779   6.602   2.382   6.021 -0.4656  0.5312  0.5378
  166MOL   H15036780   6.740   2.104   5.902 -1.2481  0.4278 -0.0881
  166MOL   H15136781   6.768   2.178   6.060 -0.5122  0.1606  0.7741
  166MOL   H15236782   6.567   2.151   6.149 -0.9135  0.2731  0.3588
  166MOL   H15336783   6.556   2.474   5.984 -2.9111  0.8617  4.0491
  166MOL   H15436784   6.585   2.386   6.129 -0.2226 -1.2901  0.6510
  166MOL   H15536785   6.706   2.376   5.990 -1.2489 -0.9615 -1.9268
  166MOL   C15636786   6.465   2.017   6.001 -0.5231  0.4919 -0.3006
  166MOL   C15736787   6.315   2.022   6.066  0.0469  0.0263  0.7118
  166MOL   C15836788   6.311   1.932   6.191  0.1495 -0.0480  0.0169
  166MOL   O15936789   6.275   1.815   6.191 -0.0308  0.7681 -0.8729
  166MOL   C16036790   6.354   2.010   6.313  0.1916  0.3284  0.1398
  166MOL   H16136791   6.460   2.027   5.893 -1.0900  2.3717 -0.1219
  166MOL   H16236792   6.508   1.919   6.023 -0.2851  0.4610 -0.9133
  166MOL   H16336793   6.294   2.123   6.102  1.2880  0.9956 -1.2212
  166MOL   H16436794   6.414   2.094   6.279  3.0698 -1.8389 -0.3420
  166MOL   H16536795   6.420   1.936   6.357 -0.3243 -1.1344 -1.4637
  166MOL   H16636796   6.251   2.024   6.347 -0.1098 -0.8174 -0.2800
  166MOL   C16736797   6.204   1.980   5.966 -0.1856 -0.0221  0.0505
  166MOL   C16836798   6.055   1.997   6.012  0.5499 -0.1611  0.0833
  166MOL   C16936799   5.976   1.871   5.971 -0.0035 -0.2544  0.5017
  166MOL   O17036800   5.935   1.802   6.064  0.8847 -0.5325 -0.2716
  166MOL   C17136801   5.930   1.844   5.828  0.4031  0.3350 -0.6521
  166MOL   H17236802   6.210   2.035   5.872 -0.0187  1.4235  0.8894
  166MOL   H17336803   6.218   1.876   5.936  0.1278 -0.3218  1.2050
  166MOL   H17436804   6.057   2.002   6.121  0.0031  1.2604  0.0303
  166MOL   H17536805   5.841   1.898   5.798  0.2696  0.9916  0.9195
  166MOL   H17636806   5.909   1.738   5.809 -3.4527  1.4775 -3.1888
  166MOL   H17736807   5.998   1.881   5.751 -1.6307  0.7985 -2.2676
  166MOL   C17836808   5.979   2.125   5.962 -0.2609 -0.4569 -0.6292
  166MOL   C17936809   5.833   2.152   5.993 -0.4585  1.0295  0.6200
  166MOL   C18036810   5.793   2.294   5.948  0.5627  0.3081  0.3400
  166MOL   O18136811   5.689   2.306   5.880  0.3234  0.3521 -0.1275
  166MOL   C18236812   5.863   2.424   5.986  0.1502 -0.0100 -0.3500
  166MOL   H18336813   6.031   2.210   6.006 -1.8393  0.1056  0.1813
  166MOL   H18436814   5.999   2.133   5.855 -2.1446  1.8305 -0.8672
  166MOL   H18536815   5.785   2.080   5.927  0.9186  0.8049 -0.1545
  166MOL   H18636816   5.958   2.444   5.936 -0.5191  3.3755 -0.4471
  166MOL   H18736817   5.875   2.414   6.094 -1.9526 -1.7054 -0.2326
  166MOL   H18836818   5.800   2.513   5.978  0.8311  0.9279  3.8907
  166MOL   C18936819   5.803   2.138   6.145  1.2965 -0.6429  0.2072
  166MOL   C19036820   5.656   2.122   6.179  0.6400 -0.1892 -0.1719
  166MOL   C19136821   5.581   1.995   6.116  0.1888  0.0643 -0.9767
  166MOL   O19236822   5.497   2.011   6.034  0.1310  0.4358  0.2505
  166MOL   C19336823   5.615   1.859   6.180  0.0574  0.3322  0.1991
  166MOL   H19436824   5.864   2.057   6.186  0.6435 -0.0697  2.3660
  166MOL   H19536825   5.840   2.221   6.205  1.2305 -0.5123  0.0687
  166MOL   H19636826   5.600   2.206   6.138 -2.1874 -0.9521  1.9045
  166MOL   H19736827   5.696   1.877   6.251 -1.0907 -0.4060  1.7111
  166MOL   H19836828   5.537   1.810   6.238  1.4564 -2.4704 -0.1918
  166MOL   H19936829   5.649   1.799   6.096 -1.0577 -1.3562  0.9316
  166MOL   C20036830   5.623   2.131   6.327 -0.2341  0.1131  0.2615
  166MOL   C20136831   5.473   2.149   6.368 -0.2181  0.4468 -0.2147
  166MOL   C20236832   5.401   2.248   6.283  0.0384  0.4645 -0.1618
  166MOL   O20336833   5.453   2.361   6.275  0.3869  0.4848 -0.2782
  166MOL   C20436834   5.267   2.208   6.221 -0.2503  0.4453  0.0224
  166MOL   H20536835   5.667   2.043   6.376  1.9700  0.1799 -1.4982
  166MOL   H20636836   5.682   2.202   6.385  1.5458 -1.1955  0.1060
  166MOL   H20736837   5.432   2.053   6.338  0.1270  0.0155  0.6738
  166MOL   H20836838   5.281   2.131   6.145 -0.4448 -0.4114  0.8552
  166MOL   H20936839   5.206   2.162   6.298  1.4446 -2.4243 -0.2582
  166MOL   H21036840   5.219   2.290   6.167  1.5142  2.0827  0.8618
  166MOL   C21136841   5.462   2.160   6.520  0.2023  0.7628  0.3192
  166MOL   C21236842   5.537   2.282   6.586 -1.1878 -0.2615 -1.2519
  166MOL   C21336843   5.497   2.284   6.732  0.7377  0.2501 -0.5773
  166MOL   O21436844   5.446   2.188   6.794  0.8562  0.2389 -0.1232
  166MOL   C21536845   5.498   2.424   6.794  0.1477 -0.3253  0.9201
  166MOL   H21636846   5.357   2.152   6.546 -0.0243  1.7663 -0.2718
  166MOL   H21736847   5.509   2.068   6.556 -0.3474  0.2682 -0.2023
  166MOL   H21836848   5.534   2.376   6.531  0.0041  2.4466  3.0689
  166MOL   H21936849   5.479   2.494   6.713 -0.5552 -0.9694  0.5253
  166MOL   H22036850   5.404   2.428   6.848 -0.1100 -1.4340  0.5701
  166MOL   H22136851   5.591   2.453   6.843 -0.0943  0.7433  0.7563
  166MOL   H22236852   5.643   2.261   6.599 -1.1316  0.5544 -0.3882
  167MOL     C136853   2.527   2.767   0.695 -0.1183  0.1554  0.1282
  167MOL     C236854   2.420   2.866   0.746  0.1259  0.4420  0.4846
  167MOL     C336855   2.462   3.011   0.722  0.3267 -0.1466 -0.4642
  167MOL     O436856   2.448   3.063   0.615 -0.4178  0.4399 -0.2902
  167MOL     C536857   2.526   3.083   0.833 -0.0917 -0.2509  0.6217
  167MOL     H636858   2.550   2.681   0.759 -3.7654 -0.5113  0.6793
  167MOL     H736859   2.621   2.820   0.684 -0.7531  1.1171 -0.7745
  167MOL     H836860   2.413   2.859   0.855  1.1689  2.5123  0.7070
  167MOL     H936861   2.575   3.168   0.785 -1.1560 -0.3022 -0.6037
  167MOL    H1036862   2.456   3.117   0.910 -0.2909  0.2878  0.2137
  167MOL    H1136863   2.606   3.022   0.874  1.6957  1.4898 -0.1744
  167MOL    H1236864   2.497   2.731   0.597 -0.7915  0.8807  0.0634
  167MOL    C1336865   2.278   2.836   0.690 -0.8408 -0.4607  0.1793
  167MOL    C1436866   2.163   2.901   0.770  0.9329 -1.2943  0.7823
  167MOL    C1536867   2.122   2.825   0.894 -0.0901 -0.4680  0.6295
  167MOL    O1636868   2.022   2.751   0.906  0.3262  0.7406 -0.5016
  167MOL    C1736869   2.196   2.853   1.023  0.4661 -0.3389  0.0387
  167MOL    H1836870   2.277   2.866   0.586 -2.3699  0.7308  0.5187
  167MOL    H1936871   2.266   2.728   0.681 -1.9134 -0.3674  0.3998
  167MOL    H2036872   2.195   2.999   0.804  1.1608 -1.7635  1.9335
  167MOL    H2136873   2.265   2.936   1.012  0.6710 -0.4696  0.3111
  167MOL    H2236874   2.127   2.859   1.108  1.5056  2.6447  0.7264
  167MOL    H2336875   2.245   2.756   1.034 -1.0908 -1.1404  0.1395
  167MOL    C2436876   2.039   2.926   0.687 -0.0689 -0.6353  1.0100
  167MOL    C2536877   1.952   3.045   0.745 -0.3567 -0.3802  0.0440
  167MOL    C2636878   2.013   3.186   0.722 -0.4890  0.4082 -0.5111
  167MOL    O2736879   2.021   3.263   0.816 -1.1712 -0.3145 -1.0906
  167MOL    C2836880   2.055   3.225   0.576 -0.3068 -0.6271  0.6267
  167MOL    H2936881   2.063   2.944   0.582 -1.3448 -0.5354  0.7293
  167MOL    H3036882   1.986   2.831   0.679 -2.5229  0.9338 -2.9755
  167MOL    H3136883   1.944   3.027   0.852  4.6563 -2.3045  0.2205
  167MOL    H3236884   2.127   3.306   0.584  0.1317 -0.7204 -1.9268
  167MOL    H3336885   2.093   3.148   0.509 -1.7294 -0.2068 -0.6982
  167MOL    H3436886   1.970   3.262   0.518  1.1788  3.8892  1.1334
  167MOL    C3536887   1.802   3.040   0.693 -0.6367 -0.0179  0.2451
  167MOL    C3636888   1.707   3.141   0.756  0.2057  0.4990  0.1307
  167MOL    C3736889   1.576   3.142   0.676  0.0906  0.1405  0.0607
  167MOL    O3836890   1.497   3.045   0.683 -0.4802  0.2280 -0.6583
  167MOL    C3936891   1.563   3.251   0.569 -0.0796 -0.1131 -0.1253
  167MOL    H4036892   1.757   2.941   0.702 -2.0906  0.5555 -0.5495
  167MOL    H4136893   1.808   3.042   0.584  1.2258  0.9307  0.3528
  167MOL    H4236894   1.754   3.239   0.742 -0.1633  0.8157  1.1153
  167MOL    H4336895   1.462   3.261   0.530 -0.7946 -1.6808  1.2624
  167MOL    H4436896   1.634   3.224   0.491 -2.0195  1.5834 -2.5769
  167MOL    H4536897   1.603   3.340   0.617 -2.8382  0.9935  0.2065
  167MOL    C4636898   1.689   3.113   0.903 -0.3599 -0.1778 -0.3071
  167MOL    C4736899   1.610   3.212   0.989  0.5773  0.4592  0.2504
  167MOL    C4836900   1.671   3.347   0.976  1.0452  0.2568 -0.7141
  167MOL    O4936901   1.639   3.431   0.891  0.1280 -0.1523  0.6685
  167MOL    C5036902   1.790   3.385   1.068 -0.3330 -0.1355 -0.1422
  167MOL    H5136903   1.787   3.135   0.945 -0.7743  2.1060 -0.4582
  167MOL    H5236904   1.654   3.014   0.934  1.4317 -0.1451  2.0308
  167MOL    H5336905   1.617   3.179   1.093 -1.0306 -1.0716 -0.0960
  167MOL    H5436906   1.854   3.446   1.004  0.7325  0.3103  1.3193
  167MOL    H5536907   1.751   3.434   1.157 -1.3269 -0.5053 -0.3760
  167MOL    H5636908   1.844   3.291   1.085  1.2853  0.9196  0.6921
  167MOL    C5736909   1.453   3.210   0.967 -0.1207  0.8633 -0.3521
  167MOL    C5836910   1.359   3.239   1.089 -0.1896 -0.7406 -0.3830
  167MOL    C5936911   1.371   3.139   1.209  0.5490  0.8466 -0.3286
  167MOL    O6036912   1.467   3.151   1.291 -0.2155  0.1890  0.0217
  167MOL    C6136913   1.257   3.045   1.237 -0.3413 -0.3917  0.6665
  167MOL    H6236914   1.444   3.110   0.925  1.6095  0.0735  1.0312
  167MOL    H6336915   1.435   3.288   0.893  0.4889  1.0072 -0.3530
  167MOL    H6436916   1.258   3.214   1.056 -1.3045  0.7099  1.8022
  167MOL    H6536917   1.162   3.093   1.260  0.0558  0.3312  0.8142
  167MOL    H6636918   1.229   2.991   1.147 -1.3158  0.5461  0.4015
  167MOL    H6736919   1.291   2.987   1.323  0.2531 -0.5184  0.3445
  167MOL    C6836920   1.366   3.382   1.144  0.1891 -0.0934 -0.4762
  167MOL    C6936921   1.230   3.435   1.209  0.4560 -0.7437 -0.6666
  167MOL    C7036922   1.126   3.488   1.110  0.2498 -0.1246  0.4492
  167MOL    O7136923   1.160   3.582   1.035  0.1745  0.7184 -0.4993
  167MOL    C7236924   0.998   3.406   1.083  0.3360 -0.0662  0.4803
  167MOL    H7336925   1.440   3.374   1.224 -0.6238  2.0936  0.5569
  167MOL    H7436926   1.408   3.450   1.070  1.1740  0.1210  0.2723
  167MOL    H7536927   1.176   3.356   1.260 -0.6443 -0.6800 -1.7245
  167MOL    H7636928   0.991   3.360   0.985 -1.1915 -2.3523  1.6250
  167MOL    H7736929   0.996   3.330   1.161  0.2643 -0.6387 -0.0760
  167MOL    H7836930   0.908   3.467   1.082  0.4375  0.0837 -0.5967
  167MOL    C7936931   1.252   3.551   1.308 -0.2855 -0.2763 -0.3782
  167MOL    C8036932   1.321   3.529   1.443 -0.3077 -0.5804 -0.1953
  167MOL    C8136933   1.239   3.450   1.549 -0.4943 -0.8312 -0.4328
  167MOL    O8236934   1.165   3.506   1.628 -0.2848  0.5935 -0.4952
  167MOL    C8336935   1.228   3.301   1.537 -0.3360  0.0420  0.5946
  167MOL    H8436936   1.151   3.587   1.330 -0.9662 -1.3980 -1.6199
  167MOL    H8536937   1.306   3.638   1.270 -0.3326  0.1719  0.5503
  167MOL    H8636938   1.406   3.463   1.422  1.8069  0.7151  3.6985
  167MOL    H8736939   1.216   3.244   1.629 -0.9744 -3.1256 -1.3550
  167MOL    H8836940   1.316   3.267   1.481 -2.0226  0.5870 -2.4889
  167MOL    H8936941   1.141   3.286   1.473  1.9997  1.3534 -3.0499
  167MOL    C9036942   1.390   3.656   1.500  0.2811 -0.0179 -0.5749
  167MOL    C9136943   1.481   3.625   1.618 -0.1785  0.1625 -0.7471
  167MOL    C9236944   1.605   3.540   1.581  0.1179 -0.1544 -0.4384
  167MOL    O9336945   1.675   3.556   1.486  0.5265 -0.6292  0.1711
  167MOL    C9436946   1.624   3.427   1.676  0.1483  0.0480  0.1302
  167MOL    H9536947   1.454   3.700   1.423  1.7817 -0.4311  0.4145
  167MOL    H9636948   1.312   3.728   1.522 -1.4434 -1.9511 -0.2431
  167MOL    H9736949   1.408   3.576   1.683 -1.0188  0.4818 -1.4328
  167MOL    H9836950   1.545   3.408   1.748 -1.1323  0.7859 -1.0446
  167MOL    H9936951   1.639   3.342   1.609  0.9142  0.8784 -0.7728
  167MOL   H10036952   1.718   3.423   1.730  0.8454  0.3644 -1.0273
  167MOL   C10136953   1.528   3.744   1.705 -0.0056 -0.1978 -0.6304
  167MOL   C10236954   1.535   3.716   1.861 -0.5463  0.0270  0.0174
  167MOL   C10336955   1.414   3.652   1.921  0.4274  0.0454 -0.3488
  167MOL   O10436956   1.399   3.532   1.933 -0.5915 -0.3530 -0.1549
  167MOL   C10536957   1.289   3.741   1.934  0.1929  0.2151  0.3017
  167MOL   H10636958   1.623   3.775   1.663 -0.6183  2.4436 -0.1337
  167MOL   H10736959   1.470   3.835   1.689 -2.0913 -1.1180  1.4009
  167MOL   H10836960   1.612   3.642   1.880  0.8634  1.2766 -0.7203
  167MOL   H10936961   1.251   3.741   2.036  0.6517  0.1712  0.4738
  167MOL   H11036962   1.314   3.839   1.895  2.7620 -0.5304 -0.0167
  167MOL   H11136963   1.214   3.687   1.876  1.3467 -1.5504  0.4190
  167MOL   C11236964   1.582   3.838   1.945  0.4906  0.4339 -1.1371
  167MOL   C11336965   1.719   3.892   1.924 -0.5990  0.0241 -0.5526
  167MOL   C11436966   1.819   3.794   1.978 -0.3585  0.1400  0.8255
  167MOL   O11536967   1.841   3.778   2.096 -0.7763  0.5058 -0.3471
  167MOL   C11636968   1.907   3.723   1.874  0.5905  0.1493 -0.4018
  167MOL   H11736969   1.582   3.818   2.052  1.3255  1.6319 -0.8989
  167MOL   H11836970   1.500   3.908   1.931 -0.6040 -0.8715 -1.2823
  167MOL   H11936971   1.739   3.887   1.817 -1.4695 -1.8638 -0.6512
  167MOL   H12036972   1.955   3.637   1.921 -0.6196 -0.3646 -0.0965
  167MOL   H12136973   1.853   3.693   1.784 -0.8452 -1.9200  1.0870
  167MOL   H12236974   1.989   3.787   1.841  2.3281 -2.2552 -0.8917
  167MOL   C12336975   1.730   4.031   1.993 -0.0623 -0.9087 -0.4124
  167MOL   C12436976   1.867   4.095   1.988 -0.4810 -0.7063 -0.0419
  167MOL   C12536977   1.879   4.206   2.093  0.1749  0.0932 -0.4727
  167MOL   O12636978   1.821   4.313   2.080  0.4175 -0.1126  0.6531
  167MOL   C12736979   1.952   4.169   2.221 -0.1838  0.1420  0.6505
  167MOL   H12836980   1.702   4.021   2.098  1.6110 -0.0891  0.1275
  167MOL   H12936981   1.651   4.092   1.949  1.6308  2.0979  0.5428
  167MOL   H13036982   1.928   4.011   2.022 -0.5660 -0.4730  0.6917
  167MOL   H13136983   1.889   4.137   2.304 -0.3419 -2.7060 -0.5016
  167MOL   H13236984   2.010   4.259   2.242 -0.9352  0.3016  2.1231
  167MOL   H13336985   2.015   4.083   2.201 -0.8105  0.2584 -2.1465
  167MOL   C13436986   1.907   4.150   1.844  0.2974  0.1220 -0.4868
  167MOL   C13536987   2.055   4.197   1.836 -0.4262 -0.2067 -0.5625
  167MOL   C13636988   2.149   4.082   1.884  0.1785  0.4395  0.3357
  167MOL   O13736989   2.133   3.964   1.846  0.2593 -0.4827  0.2335
  167MOL   C13836990   2.264   4.126   1.979 -0.2294 -0.2288 -0.7032
  167MOL   H13936991   1.843   4.235   1.821 -1.6981 -0.9479  0.9514
  167MOL   H14036992   1.874   4.075   1.773 -0.8365  0.2571 -0.1104
  167MOL   H14136993   2.075   4.283   1.901 -0.1223 -0.3196 -0.5088
  167MOL   H14236994   2.354   4.065   1.977  0.2359  0.3359  1.4985
  167MOL   H14336995   2.224   4.135   2.080  1.3026 -0.6292 -0.0456
  167MOL   H14436996   2.313   4.219   1.952 -1.2454  0.4812 -0.1242
  167MOL   C14536997   2.088   4.225   1.689  0.2643 -0.2304 -0.8669
  167MOL   C14636998   2.230   4.270   1.659 -0.1925 -0.3071 -0.1337
  167MOL   C14736999   2.278   4.227   1.520  0.4675  0.1478 -0.7804
  167MOL   O14837000   2.388   4.179   1.498  0.2049  0.3634 -0.2368
  167MOL   C14937001   2.174   4.244   1.409 -0.5439  0.8442  0.1376
  167MOL   H15037002   2.017   4.294   1.643 -0.7083  0.8531  2.1433
  167MOL   H15137003   2.060   4.132   1.640 -2.7392 -0.7916  1.7859
  167MOL   H15237004   2.302   4.217   1.722  0.2752  0.4548 -0.0237
  167MOL   H15337005   2.215   4.274   1.313  0.6178  0.1041  0.3889
  167MOL   H15437006   2.117   4.151   1.416 -0.9914  1.2478  2.0377
  167MOL   H15537007   2.102   4.321   1.435  1.7084  2.6831  1.0337
  167MOL   C15637008   2.246   4.419   1.688 -0.2833 -0.1961 -0.6374
  167MOL   C15737009   2.397   4.468   1.694 -0.4322  0.4226  0.2521
  167MOL   C15837010   2.477   4.415   1.815  0.5245 -0.0154 -0.0217
  167MOL   O15937011   2.461   4.471   1.924 -0.5605 -0.1890  0.2040
  167MOL   C16037012   2.578   4.308   1.788 -0.0626  0.0110  0.2310
  167MOL   H16137013   2.198   4.478   1.610 -1.8265  0.9132  1.1054
  167MOL   H16237014   2.192   4.441   1.781  0.0781  1.4462 -0.8032
  167MOL   H16337015   2.440   4.427   1.603 -0.3899  1.5027 -0.2296
  167MOL   H16437016   2.626   4.332   1.693  0.8865 -0.8794  0.4755
  167MOL   H16537017   2.530   4.211   1.776 -0.9413  0.6512 -1.7401
  167MOL   H16637018   2.648   4.311   1.871  2.7740  0.3190 -2.1075
  167MOL   C16737019   2.411   4.625   1.683  0.4972 -0.2294 -0.1033
  167MOL   C16837020   2.544   4.695   1.734 -0.0786 -0.2895 -0.2403
  167MOL   C16937021   2.522   4.786   1.848  0.0199 -0.4333 -0.2148
  167MOL   O17037022   2.448   4.888   1.835  0.1133 -0.2755  0.3301
  167MOL   C17137023   2.591   4.760   1.980  0.2270  0.3578  0.1701
  167MOL   H17237024   2.369   4.664   1.591  0.4741 -0.4825 -0.2000
  167MOL   H17337025   2.344   4.673   1.755  1.4261 -0.0046  0.6257
  167MOL   H17437026   2.622   4.619   1.745  0.3608  0.3058  0.8640
  167MOL   H17537027   2.529   4.797   2.062 -0.1862  0.6048 -0.2531
  167MOL   H17637028   2.682   4.818   1.988 -0.1981  0.9453  0.8792
  167MOL   H17737029   2.607   4.653   1.996  1.7384  0.6649  0.7207
  167MOL   C17837030   2.614   4.776   1.619  1.1912 -0.5936  0.2153
  167MOL   C17937031   2.760   4.826   1.639 -0.3991 -0.0260  0.6154
  167MOL   C18037032   2.788   4.936   1.533 -0.3158 -0.6960  0.3099
  167MOL   O18137033   2.718   4.938   1.432  0.0440  0.3923 -0.0454
  167MOL   C18237034   2.898   5.036   1.555  0.3602 -0.1746  0.8015
  167MOL   H18337035   2.611   4.713   1.530 -1.4658  0.6317 -0.6130
  167MOL   H18437036   2.553   4.865   1.603  3.1661  0.4871 -1.6091
  167MOL   H18537037   2.765   4.876   1.736 -0.1473 -1.7979  1.5418
  167MOL   H18637038   2.988   5.002   1.504 -0.4772 -1.2061 -0.0359
  167MOL   H18737039   2.915   5.049   1.661 -0.0058 -0.9025  0.9565
  167MOL   H18837040   2.868   5.130   1.507  2.1021 -0.9529 -1.9296
  167MOL   C18937041   2.870   4.721   1.647 -0.2024 -0.3193  0.1245
  167MOL   C19037042   3.006   4.765   1.708 -0.1829 -0.6619  0.5614
  167MOL   C19137043   2.989   4.799   1.863 -0.5167 -0.1561  0.5036
  167MOL   O19237044   2.917   4.721   1.925 -0.0632  0.0947  0.1732
  167MOL   C19337045   3.058   4.919   1.926 -0.3926 -0.0516 -0.4031
  167MOL   H19437046   2.827   4.632   1.692 -1.7244 -0.0668 -0.7882
  167MOL   H19537047   2.897   4.695   1.544 -0.5946 -3.3830  0.7534
  167MOL   H19637048   3.048   4.850   1.655  0.5630 -0.2806  1.7560
  167MOL   H19737049   3.048   4.913   2.034 -1.3918  0.2668 -0.4727
  167MOL   H19837050   3.164   4.899   1.910  0.1877  1.4486  1.4375
  167MOL   H19937051   3.034   5.019   1.892  1.0114  0.1625 -0.7879
  167MOL   C20037052   3.108   4.646   1.702  0.8458  0.3458 -0.6267
  167MOL   C20137053   3.252   4.680   1.657  0.6956  0.6197  0.3065
  167MOL   C20237054   3.250   4.736   1.516 -0.1179  0.1888  0.5937
  167MOL   O20337055   3.227   4.667   1.416 -0.3616  0.3188 -0.0268
  167MOL   C20437056   3.297   4.874   1.493  0.2444  0.7394 -0.6784
  167MOL   H20537057   3.119   4.601   1.801  1.2843  1.0569 -0.3524
  167MOL   H20637058   3.069   4.567   1.638 -1.1832 -0.9145  2.0787
  167MOL   H20737059   3.276   4.768   1.716 -0.8483  1.8067 -0.7790
  167MOL   H20837060   3.339   4.892   1.394  0.8207  0.8816 -0.4067
  167MOL   H20937061   3.218   4.949   1.505  2.0469  2.3757  1.1886
  167MOL   H21037062   3.374   4.892   1.567 -0.7451  0.8445  0.3357
  167MOL   C21137063   3.351   4.572   1.678  0.2972 -0.0855 -0.3554
  167MOL   C21237064   3.504   4.616   1.672  0.0064 -0.3440 -0.5293
  167MOL   C21337065   3.547   4.727   1.768  0.0067  0.3603 -0.4671
  167MOL   O21437066   3.588   4.839   1.728  0.2503 -0.3936 -0.1681
  167MOL   C21537067   3.549   4.680   1.913 -0.3364  0.9264 -0.5127
  167MOL   H21637068   3.319   4.521   1.769  1.0321  2.2639  1.2616
  167MOL   H21737069   3.336   4.490   1.608  1.1129 -0.5553  0.0163
  167MOL   H21837070   3.518   4.660   1.573  0.2089 -0.1760 -0.4267
  167MOL   H21937071   3.609   4.746   1.975  0.8118  1.9660 -2.6766
  167MOL   H22037072   3.450   4.676   1.959 -0.0337 -0.4602  0.0443
  167MOL   H22137073   3.584   4.578   1.906  0.1844  0.9668  1.1576
  167MOL   H22237074   3.569   4.529   1.675 -0.0344 -0.3695 -0.3885
  168MOL     C137075   3.518   4.329   2.190  0.4703 -0.2814  0.3093
  168MOL     C237076   3.372   4.364   2.191 -0.6946 -0.1249 -0.0435
  168MOL     C337077   3.343   4.501   2.133 -0.4097  0.3419  0.1281
  168MOL     O437078   3.279   4.520   2.029 -0.2768  0.3576  0.5861
  168MOL     C537079   3.400   4.617   2.218  0.1070 -0.4664  0.5740
  168MOL     H637080   3.530   4.221   2.188 -0.7403 -0.4208  0.3914
  168MOL     H737081   3.570   4.377   2.273  1.5950  0.6201 -0.8927
  168MOL     H837082   3.338   4.370   2.294 -0.6421  1.6658 -0.1188
  168MOL     H937083   3.437   4.576   2.312  0.5826 -2.8879 -0.6436
  168MOL    H1037084   3.478   4.677   2.172 -0.5088 -0.4892 -0.5114
  168MOL    H1137085   3.319   4.682   2.251 -2.2556 -2.5207 -1.0480
  168MOL    H1237086   3.571   4.367   2.102 -1.5473  0.3247 -0.6706
  168MOL    C1337087   3.279   4.252   2.126  0.4362 -0.5433  0.2383
  168MOL    C1437088   3.123   4.277   2.099  0.5967 -0.8193  0.6202
  168MOL    C1537089   3.047   4.359   2.200 -0.0999  0.1639  0.0875
  168MOL    O1637090   3.053   4.338   2.322  0.7761 -0.0725 -0.2089
  168MOL    C1737091   2.955   4.463   2.152  1.0150 -0.1839  0.4955
  168MOL    H1837092   3.323   4.221   2.031 -0.8360  2.2865 -1.3483
  168MOL    H1937093   3.298   4.168   2.192 -2.5055 -0.8017  0.7939
  168MOL    H2037094   3.113   4.335   2.007 -0.6723  0.6100  1.6457
  168MOL    H2137095   2.900   4.503   2.237  0.1648 -0.5987  0.1395
  168MOL    H2237096   3.015   4.537   2.098 -1.7511  0.4026 -1.8855
  168MOL    H2337097   2.884   4.425   2.079  1.5947 -1.1571  0.4315
  168MOL    C2437098   3.053   4.139   2.063 -0.1893  0.2836 -0.1660
  168MOL    C2537099   2.956   4.151   1.945 -0.1404 -0.0828  0.2821
  168MOL    C2637100   3.029   4.179   1.809 -0.3965 -0.4780 -0.1356
  168MOL    O2737101   3.132   4.130   1.779 -0.7031  0.2518 -0.6997
  168MOL    C2837102   2.953   4.274   1.711 -0.2612  0.5206 -0.8502
  168MOL    H2937103   3.131   4.067   2.036  0.2890  0.4713  0.6977
  168MOL    H3037104   2.994   4.102   2.146  0.4890 -1.9445 -0.6451
  168MOL    H3137105   2.884   4.232   1.955  1.4920  1.9576 -3.2591
  168MOL    H3237106   2.972   4.380   1.729 -0.5783  0.4790 -0.2325
  168MOL    H3337107   2.977   4.249   1.608 -0.8658  0.4123 -0.9669
  168MOL    H3437108   2.849   4.248   1.731  0.0304 -0.6189 -0.8085
  168MOL    C3537109   2.858   4.029   1.933  0.1744  0.2788  0.0713
  168MOL    C3637110   2.920   3.889   1.910 -0.0437 -0.0315 -0.2272
  168MOL    C3737111   2.970   3.816   2.039 -0.2569  0.1282  0.8907
  168MOL    O3837112   2.896   3.823   2.139 -0.6658  0.6135  0.4331
  168MOL    C3937113   3.111   3.751   2.045 -0.6370 -0.3231 -0.3795
  168MOL    H4037114   2.809   4.030   1.836 -1.1646  1.5586  0.7536
  168MOL    H4137115   2.779   4.031   2.008  0.0243  2.4288 -0.1226
  168MOL    H4237116   3.015   3.910   1.860  0.6188 -3.7769 -0.6658
  168MOL    H4337117   3.112   3.662   2.108 -0.7590 -0.4491 -0.5568
  168MOL    H4437118   3.187   3.828   2.060 -2.0358  1.2706 -1.1291
  168MOL    H4537119   3.140   3.716   1.946  0.7821 -0.2242  0.0003
  168MOL    C4637120   2.856   3.791   1.805  0.0464  0.1628 -0.8745
  168MOL    C4737121   2.717   3.722   1.846  0.3562 -0.6127  0.3286
  168MOL    C4837122   2.608   3.757   1.742  0.7107  0.1484  0.3610
  168MOL    O4937123   2.593   3.701   1.632 -0.6036 -0.1647  0.2734
  168MOL    C5037124   2.515   3.865   1.787  0.0154 -0.0516  0.5849
  168MOL    H5137125   2.935   3.717   1.792  0.8050  1.0173 -1.1623
  168MOL    H5237126   2.854   3.851   1.714  1.1503  0.2032 -0.8785
  168MOL    H5337127   2.684   3.773   1.936  1.5345 -0.4450  0.6687
  168MOL    H5437128   2.474   3.836   1.884  0.0370 -2.1811 -0.0324
  168MOL    H5537129   2.548   3.969   1.782  1.4261 -0.4782  0.9318
  168MOL    H5637130   2.422   3.849   1.731  0.4611  0.7001 -0.3909
  168MOL    C5737131   2.734   3.568   1.871  0.4694  0.5149 -0.6950
  168MOL    C5837132   2.614   3.498   1.935 -0.2862 -0.5037  0.2719
  168MOL    C5937133   2.621   3.345   1.912 -0.3371  0.1268  0.2965
  168MOL    O6037134   2.673   3.273   1.995  0.2475  0.4434 -0.4792
  168MOL    C6137135   2.561   3.288   1.779 -0.4707  0.1149  0.9479
  168MOL    H6237136   2.822   3.558   1.934 -1.5427 -0.5449  2.0823
  168MOL    H6337137   2.763   3.517   1.779 -0.4836  0.8615 -1.2015
  168MOL    H6437138   2.524   3.536   1.889 -0.1946 -0.1290  0.4014
  168MOL    H6537139   2.531   3.370   1.713 -0.1434 -0.4680  0.0586
  168MOL    H6637140   2.641   3.235   1.728  0.4038  0.8208  1.5651
  168MOL    H6737141   2.481   3.221   1.808  0.3386 -1.2651  0.0626
  168MOL    C6837142   2.624   3.533   2.091  0.0348  0.6067  0.5844
  168MOL    C6937143   2.506   3.472   2.169  0.0023 -0.7641  0.1128
  168MOL    C7037144   2.369   3.528   2.128  0.2106 -0.2707 -0.9554
  168MOL    O7137145   2.356   3.640   2.079  0.0346  0.3178 -0.5575
  168MOL    C7237146   2.253   3.433   2.130  0.2854 -0.3583 -0.0935
  168MOL    H7337147   2.720   3.501   2.132 -1.1485 -0.6518  2.4621
  168MOL    H7437148   2.615   3.640   2.112 -0.8977  0.9128 -1.2758
  168MOL    H7537149   2.498   3.365   2.149  0.9973 -0.9730  0.8273
  168MOL    H7637150   2.222   3.425   2.234 -0.8299  1.1544 -0.2875
  168MOL    H7737151   2.177   3.482   2.069  1.8122  1.6437 -0.4285
  168MOL    H7837152   2.289   3.337   2.093  0.5295 -0.2363 -0.1767
  168MOL    C7937153   2.527   3.489   2.323 -0.1138  0.2950  0.3601
  168MOL    C8037154   2.544   3.628   2.390  0.2074 -0.2001 -1.1458
  168MOL    C8137155   2.628   3.612   2.516  0.6315 -0.1936 -0.1714
  168MOL    O8237156   2.612   3.515   2.586  0.4521  0.1612  0.0551
  168MOL    C8337157   2.705   3.727   2.569  0.6039  0.2761 -0.4141
  168MOL    H8437158   2.611   3.422   2.337  0.1231  0.4738 -0.2167
  168MOL    H8537159   2.439   3.446   2.371  0.3933 -0.6682  0.4359
  168MOL    H8637160   2.603   3.695   2.328 -0.2527  1.0100 -0.2864
  168MOL    H8737161   2.770   3.777   2.498  1.0220 -1.8762 -1.5884
  168MOL    H8837162   2.771   3.683   2.643 -0.3722 -0.3938  0.0734
  168MOL    H8937163   2.640   3.797   2.622  0.1290 -1.8513  1.9309
  168MOL    C9037164   2.408   3.696   2.412  0.4291 -0.1995 -0.4094
  168MOL    C9137165   2.398   3.847   2.374  0.5028  0.1561 -0.4534
  168MOL    C9237166   2.242   3.878   2.368 -0.0076  0.0626 -0.8237
  168MOL    O9337167   2.178   3.942   2.455  0.1365 -0.4566 -0.4726
  168MOL    C9437168   2.174   3.829   2.240 -0.0482 -0.1168 -0.2865
  168MOL    H9537169   2.322   3.644   2.371  0.2573  1.7438 -2.6502
  168MOL    H9637170   2.384   3.684   2.518 -1.9567  1.7984 -0.6633
  168MOL    H9737171   2.431   3.847   2.270 -2.5611 -0.3064 -1.4865
  168MOL    H9837172   2.238   3.856   2.156 -1.4547  2.7524 -0.5287
  168MOL    H9937173   2.125   3.732   2.242  0.5830 -0.4359 -0.3717
  168MOL   H10037174   2.087   3.894   2.229 -0.1126  0.0260  1.0598
  168MOL   C10137175   2.476   3.957   2.460  0.7475  0.2497 -0.5083
  168MOL   C10237176   2.469   4.104   2.418 -0.5075 -0.3259  0.4267
  168MOL   C10337177   2.493   4.143   2.271  1.1480  0.6255  0.0618
  168MOL   O10437178   2.542   4.061   2.189 -0.3168  0.2924 -0.0850
  168MOL   C10537179   2.475   4.288   2.225  0.2101  0.3476  0.0962
  168MOL   H10637180   2.442   3.960   2.564 -0.6672 -0.5172 -0.9411
  168MOL   H10737181   2.582   3.932   2.464  1.0726  1.6868  0.1949
  168MOL   H10837182   2.364   4.132   2.420 -0.6966 -1.0632  0.8127
  168MOL   H10937183   2.378   4.333   2.245 -1.1324 -2.4032  0.0026
  168MOL   H11037184   2.555   4.343   2.274  0.3574 -0.8240  1.1826
  168MOL   H11137185   2.499   4.307   2.120  0.4886 -0.2776  0.0440
  168MOL   C11237186   2.543   4.203   2.511  0.0863  0.4616  0.0509
  168MOL   C11337187   2.694   4.233   2.482  0.8358  0.4527  0.0234
  168MOL   C11437188   2.782   4.102   2.491 -0.0328  0.0892  0.3323
  168MOL   O11537189   2.806   4.046   2.602 -0.3065 -0.0610  0.0127
  168MOL   C11637190   2.842   4.038   2.366  0.1259  0.6145  0.6241
  168MOL   H11737191   2.552   4.162   2.612  3.6721 -0.3258 -0.5211
  168MOL   H11837192   2.486   4.296   2.504 -1.8055 -0.7525 -1.1638
  168MOL   H11937193   2.714   4.268   2.380 -2.5571  1.8471 -0.2259
  168MOL   H12037194   2.904   4.118   2.325 -0.0611  0.6085  0.3264
  168MOL   H12137195   2.903   3.953   2.395  0.7840  0.4089 -1.3077
  168MOL   H12237196   2.763   4.013   2.296  1.4829 -0.7836 -0.4360
  168MOL   C12337197   2.757   4.347   2.561 -0.3215  0.0244  0.0664
  168MOL   C12437198   2.806   4.327   2.708 -0.5933  0.1179  0.5367
  168MOL   C12537199   2.698   4.303   2.813  0.4850 -0.1245  0.6126
  168MOL   O12637200   2.585   4.338   2.796  0.2511  0.1735  1.2411
  168MOL   C12737201   2.744   4.236   2.941  0.2063  0.4206  0.3868
  168MOL   H12837202   2.686   4.428   2.548  2.2999  2.2276 -1.0443
  168MOL   H12937203   2.844   4.363   2.497 -0.2400  2.2471  0.6742
  168MOL   H13037204   2.861   4.233   2.713 -0.2511  0.0869 -2.5474
  168MOL   H13137205   2.747   4.130   2.918  0.3500  0.6488 -0.6729
  168MOL   H13237206   2.663   4.246   3.014  0.2112 -1.3602  0.6536
  168MOL   H13337207   2.843   4.268   2.972  0.9678 -0.0486 -1.4924
  168MOL   C13437208   2.902   4.443   2.752 -0.1431 -0.8966  0.1274
  168MOL   C13537209   3.037   4.444   2.681  0.2340 -0.3476  0.2178
  168MOL   C13637210   3.059   4.579   2.610  0.1899  0.4648 -0.0873
  168MOL   O13737211   3.084   4.680   2.675 -0.1231 -0.2467  0.2207
  168MOL   C13837212   3.014   4.592   2.462  0.4386  0.0172  0.2935
  168MOL   H13937213   2.923   4.445   2.859  1.1023 -0.7728 -0.1081
  168MOL   H14037214   2.848   4.536   2.734  2.0273  0.6858  1.4895
  168MOL   H14137215   3.022   4.371   2.602  1.0236  1.8226 -1.9969
  168MOL   H14237216   3.013   4.697   2.430  2.1885  0.1216  0.5327
  168MOL   H14337217   2.915   4.550   2.447 -0.0781  0.9174  1.0969
  168MOL   H14437218   3.091   4.545   2.401  1.1032  1.2171  0.1900
  168MOL   C14537219   3.160   4.401   2.756 -0.6311 -0.0730 -0.0198
  168MOL   C14637220   3.244   4.302   2.678 -0.5249 -0.2898  0.3661
  168MOL   C14737221   3.387   4.310   2.727 -0.1789  0.3873  0.5049
  168MOL   O14837222   3.432   4.218   2.800  0.1033 -0.6100  0.3953
  168MOL   C14937223   3.473   4.425   2.681  0.5360 -0.3962 -0.7014
  168MOL   H15037224   3.137   4.350   2.850 -2.1540 -0.5427 -0.6296
  168MOL   H15137225   3.227   4.483   2.779  0.5014 -0.5494 -1.5096
  168MOL   H15237226   3.257   4.331   2.574  0.5434 -1.4452  0.1708
  168MOL   H15337227   3.417   4.494   2.618  0.9599 -0.3579 -1.0386
  168MOL   H15437228   3.513   4.498   2.750 -0.2517 -1.1937  0.6106
  168MOL   H15537229   3.544   4.379   2.612  1.1042 -1.2438  0.4417
  168MOL   C15637230   3.175   4.161   2.678 -0.1609 -0.2054 -0.3012
  168MOL   C15737231   3.252   4.036   2.630 -0.1307  0.0582  0.1500
  168MOL   C15837232   3.276   4.034   2.475 -0.6614 -0.1091  0.4705
  168MOL   O15937233   3.185   4.034   2.393  0.3090  0.0293  0.1963
  168MOL   C16037234   3.419   4.037   2.430  0.4186 -0.5792  0.2100
  168MOL   H16137235   3.141   4.141   2.780 -0.4195 -0.8217 -0.5047
  168MOL   H16237236   3.090   4.160   2.611 -0.9173 -1.0448  0.6493
  168MOL   H16337237   3.348   4.031   2.682  0.7375 -1.2803 -1.5372
  168MOL   H16437238   3.489   3.986   2.496 -0.4910 -1.9661  0.1252
  168MOL   H16537239   3.456   4.139   2.421  1.4209 -0.8620  1.1431
  168MOL   H16637240   3.416   3.998   2.328 -3.0063 -1.8105  0.7218
  168MOL   C16737241   3.162   3.920   2.653  0.0079  0.2852 -0.2903
  168MOL   C16837242   3.231   3.784   2.632  0.0876 -0.2580 -0.0624
  168MOL   C16937243   3.126   3.676   2.591 -0.1985 -0.3871  0.6302
  168MOL   O17037244   3.098   3.588   2.671  0.1810  0.2825  0.0601
  168MOL   C17137245   3.055   3.698   2.455  0.0794  0.0891 -0.2166
  168MOL   H17237246   3.113   3.920   2.750 -1.3131  0.5791 -0.9446
  168MOL   H17337247   3.079   3.919   2.583 -0.2335 -0.1738 -0.0023
  168MOL   H17437248   3.301   3.789   2.548  1.1817  1.9519  0.9203
  168MOL   H17537249   2.962   3.749   2.479  0.1385 -0.1866  0.6219
  168MOL   H17637250   3.041   3.600   2.409  0.9078  0.4958 -1.3588
  168MOL   H17737251   3.125   3.755   2.394  1.9326 -1.5317  0.3175
  168MOL   C17837252   3.321   3.751   2.756  0.5585 -0.5697 -0.8713
  168MOL   C17937253   3.441   3.663   2.727  0.2349  0.0700 -1.2388
  168MOL   C18037254   3.476   3.558   2.837 -0.3550 -0.4118 -0.1141
  168MOL   O18137255   3.551   3.591   2.933 -0.6766  0.6439  0.0338
  168MOL   C18237256   3.421   3.418   2.826 -0.4992  0.3044 -0.1239
  168MOL   H18337257   3.356   3.845   2.799 -0.5857 -0.1324 -0.8624
  168MOL   H18437258   3.254   3.710   2.832 -0.6000  2.5011 -0.1280
  168MOL   H18537259   3.409   3.606   2.640  1.9239  0.1866 -1.9617
  168MOL   H18637260   3.358   3.394   2.912  0.0386 -0.9476 -0.0718
  168MOL   H18737261   3.494   3.340   2.806  1.0853  1.7914 -0.2217
  168MOL   H18837262   3.360   3.416   2.735  2.5283  2.2896 -2.2810
  168MOL   C18937263   3.570   3.738   2.680  0.4917  0.4959  0.4630
  168MOL   C19037264   3.655   3.651   2.580 -0.5279 -0.4160  0.3059
  168MOL   C19137265   3.722   3.738   2.467  0.0625  0.4909  0.3289
  168MOL   O19237266   3.786   3.841   2.490  0.2549 -0.2566  0.3748
  168MOL   C19337267   3.701   3.695   2.323 -0.1166 -0.3762 -0.0811
  168MOL   H19437268   3.528   3.822   2.624  0.6393  1.5280  1.8622
  168MOL   H19537269   3.627   3.777   2.764  0.3518 -0.6729  1.1006
  168MOL   H19637270   3.591   3.575   2.535 -0.9188 -0.3819  0.8042
  168MOL   H19737271   3.798   3.677   2.276  0.0178  0.4907 -0.1310
  168MOL   H19837272   3.636   3.608   2.314 -2.1295  1.2996 -2.8115
  168MOL   H19937273   3.649   3.767   2.260  0.2713 -1.3848 -1.6041
  168MOL   C20037274   3.760   3.573   2.663  0.6976 -0.2243  0.1015
  168MOL   C20137275   3.858   3.490   2.579  0.6831 -0.1165  0.0817
  168MOL   C20237276   3.789   3.376   2.496 -0.5543 -0.2125  0.4680
  168MOL   O20337277   3.670   3.349   2.511 -0.0788  0.9446 -0.0661
  168MOL   C20437278   3.870   3.310   2.388  0.8833 -0.3210  0.1230
  168MOL   H20537279   3.819   3.639   2.726 -0.0997 -1.1747  1.8796
  168MOL   H20637280   3.706   3.502   2.725  2.0125 -0.4404  1.0267
  168MOL   H20737281   3.911   3.558   2.512  1.7212 -0.2282  0.7745
  168MOL   H20837282   3.947   3.380   2.356  1.1475 -0.9025 -0.4876
  168MOL   H20937283   3.910   3.216   2.425 -0.9155 -0.4464  1.8662
  168MOL   H21037284   3.803   3.300   2.303  0.5233  0.1004  0.3504
  168MOL   C21137285   3.965   3.440   2.679  0.6652 -0.0759  0.6549
  168MOL   C21237286   4.112   3.485   2.651 -0.6707  0.7247  0.1134
  168MOL   C21337287   4.205   3.404   2.740  0.2158  0.3346 -0.1808
  168MOL   O21437288   4.254   3.303   2.688  0.4999 -0.7351 -0.1200
  168MOL   C21537289   4.242   3.450   2.886  0.4212  0.4270 -0.1477
  168MOL   H21637290   3.936   3.471   2.779 -0.8130 -1.0620  0.5487
  168MOL   H21737291   3.962   3.331   2.672  2.2162 -0.0668 -0.4581
  168MOL   H21837292   4.142   3.589   2.665 -0.2112  0.9008 -2.0690
  168MOL   H21937293   4.347   3.442   2.913  0.7050  1.8172 -0.7414
  168MOL   H22037294   4.223   3.558   2.892 -0.7990  0.2543 -0.6656
  168MOL   H22137295   4.198   3.393   2.967  3.4334  0.4045  1.5464
  168MOL   H22237296   4.139   3.459   2.549  1.1218 -2.4441  1.3343
  169MOL     C137297   0.007   3.281   0.320 -0.0825  0.1974 -0.0223
  169MOL     C237298   0.055   3.160   0.392  0.4204  0.1194 -0.2832
  169MOL     C337299   0.088   3.045   0.290  0.0817 -0.4130 -0.2302
  169MOL     O437300   0.183   3.055   0.208  0.5264  0.1329  0.2306
  169MOL     C537301   0.003   2.922   0.301 -0.7114 -0.1150 -0.2186
  169MOL     H637302   0.094   3.341   0.290  0.2993 -1.0130 -1.3723
  169MOL     H737303   7.799   3.336   0.388 -0.8927 -0.4989 -0.2473
  169MOL     H837304   7.839   3.117   0.459  0.6019 -2.2942 -1.5815
  169MOL     H937305   0.053   2.835   0.258 -0.6795 -0.5894  0.7600
  169MOL    H1037306   7.830   2.889   0.400  1.1165  0.4328  0.5625
  169MOL    H1137307   7.771   2.939   0.241 -1.4349 -0.8281  0.6486
  169MOL    H1237308   7.823   3.259   0.222  1.0369 -1.4788 -0.1397
  169MOL    C1337309   0.169   3.196   0.484  0.3010  0.4221 -0.1021
  169MOL    C1437310   0.210   3.091   0.593 -0.3662  0.2120 -0.2275
  169MOL    C1537311   0.098   3.080   0.698 -0.3744 -0.2717 -0.0987
  169MOL    O1637312   0.015   3.170   0.719  0.1780  0.3294  0.2296
  169MOL    C1737313   0.078   2.938   0.765  0.2557 -0.0001 -0.5183
  169MOL    H1837314   0.257   3.219   0.423 -0.9511 -2.3236 -3.1453
  169MOL    H1937315   0.148   3.290   0.535  0.4303 -0.3102  1.3320
  169MOL    H2037316   0.211   2.997   0.538 -1.7073 -0.1128  0.2799
  169MOL    H2137317   0.020   2.946   0.857 -1.2906 -0.1091 -1.4743
  169MOL    H2237318   0.023   2.876   0.695  0.0845  2.8274 -3.0054
  169MOL    H2337319   0.175   2.900   0.797 -0.7297 -0.3616  2.1543
  169MOL    C2437320   0.349   3.115   0.647  0.0378  0.0380 -0.1172
  169MOL    C2537321   0.382   3.258   0.694 -0.1161  0.6720 -0.3518
  169MOL    C2637322   0.329   3.269   0.834 -0.2745  0.0484 -0.4160
  169MOL    O2737323   0.347   3.177   0.913 -0.0260  0.3705 -0.1385
  169MOL    C2837324   0.269   3.402   0.880  0.2454  1.0455 -0.3221
  169MOL    H2937325   0.370   3.039   0.722  2.1991  0.6420 -0.0774
  169MOL    H3037326   0.414   3.089   0.564  1.8336  2.6155  0.4238
  169MOL    H3137327   0.336   3.329   0.625 -0.9145  2.2331  1.7227
  169MOL    H3237328   0.310   3.491   0.833  2.6329 -0.3759 -0.9794
  169MOL    H3337329   0.160   3.413   0.881  0.0755 -0.5454  1.1140
  169MOL    H3437330   0.306   3.407   0.982 -1.4357  2.0404  0.2659
  169MOL    C3537331   0.536   3.288   0.690  0.8281  0.0403 -0.0111
  169MOL    C3637332   0.589   3.363   0.565 -0.0123  0.2829 -0.6016
  169MOL    C3737333   0.508   3.481   0.526  0.0135  1.1191  0.4270
  169MOL    O3837334   0.439   3.537   0.607  0.0944 -0.2683 -0.3765
  169MOL    C3937335   0.521   3.527   0.377  0.0136 -0.4046  0.0609
  169MOL    H4037336   0.587   3.192   0.701  0.5324 -0.1353 -0.1476
  169MOL    H4137337   0.556   3.352   0.775 -3.0486  0.9890  0.2730
  169MOL    H4237338   0.577   3.297   0.480  0.3359 -1.0527  0.3576
  169MOL    H4337339   0.580   3.617   0.362  0.5592 -0.4522  1.7870
  169MOL    H4437340   0.425   3.561   0.337  0.7132  0.8505 -0.5731
  169MOL    H4537341   0.559   3.446   0.315  0.0160  1.2000 -2.0990
  169MOL    C4637342   0.737   3.403   0.585  0.8454  0.3528  0.2992
  169MOL    C4737343   0.835   3.282   0.565  0.1561 -0.1018  0.2659
  169MOL    C4837344   0.936   3.312   0.455 -0.6795  0.7918 -0.2446
  169MOL    O4937345   1.051   3.348   0.482 -0.3521 -0.3760 -0.0500
  169MOL    C5037346   0.882   3.293   0.315 -0.2043  0.4088 -0.2210
  169MOL    H5137347   0.744   3.452   0.682 -2.1429 -1.9018  1.7284
  169MOL    H5237348   0.754   3.481   0.510 -0.4316 -1.3443 -1.8245
  169MOL    H5337349   0.782   3.192   0.534 -1.1939  0.9339 -0.5013
  169MOL    H5437350   0.778   3.260   0.308 -0.6499  0.9729  2.9470
  169MOL    H5537351   0.884   3.388   0.262  1.2647  0.4207 -0.1622
  169MOL    H5637352   0.948   3.228   0.259 -0.4402  0.8662 -1.0325
  169MOL    C5737353   0.898   3.247   0.700  0.6953  0.0932  0.3144
  169MOL    C5837354   0.955   3.100   0.697 -0.5315  0.1955 -1.0583
  169MOL    C5937355   1.088   3.101   0.780 -0.5719 -0.0139 -0.1680
  169MOL    O6037356   1.104   3.172   0.881  0.3779 -0.1025  0.5479
  169MOL    C6137357   1.203   3.026   0.720 -0.2267  0.5230 -0.2184
  169MOL    H6237358   0.828   3.259   0.783 -0.1701 -0.9761 -0.2422
  169MOL    H6337359   0.976   3.320   0.723  1.2369 -0.9093  1.7524
  169MOL    H6437360   1.002   3.080   0.601  0.5407 -0.2127 -0.4623
  169MOL    H6537361   1.169   2.929   0.682  1.1751  0.0804 -0.3628
  169MOL    H6637362   1.230   3.088   0.634 -0.5682  0.8799 -0.0697
  169MOL    H6737363   1.292   3.012   0.781 -0.9291  0.9857  0.9180
  169MOL    C6837364   0.846   2.989   0.729 -0.0768  0.4336  0.0336
  169MOL    C6937365   0.824   2.969   0.882  0.3412 -0.1445 -0.1663
  169MOL    C7037366   0.912   2.853   0.928  0.7349 -0.0134 -0.5219
  169MOL    O7137367   0.926   2.745   0.876  0.6079 -0.3533  0.1999
  169MOL    C7237368   1.002   2.893   1.037  1.0110  0.4826 -0.5877
  169MOL    H7337369   0.753   3.024   0.685  0.4983  0.8303 -0.8601
  169MOL    H7437370   0.870   2.897   0.675 -0.4431  0.2568  0.1662
  169MOL    H7537371   0.837   3.067   0.928 -0.1972  0.3914 -1.1311
  169MOL    H7637372   0.993   2.810   1.107 -0.3710 -0.3248 -1.7091
  169MOL    H7737373   1.105   2.903   1.003  0.9345  1.3136 -0.5890
  169MOL    H7837374   0.967   2.978   1.096  0.2325 -0.2496  0.0286
  169MOL    C7937375   0.680   2.922   0.907 -0.0501  0.8212 -0.1439
  169MOL    C8037376   0.642   2.900   1.060 -0.2359 -0.5146 -0.1897
  169MOL    C8137377   0.511   2.821   1.078  0.5484 -0.0296  0.1424
  169MOL    O8237378   0.502   2.740   1.165  0.5911  0.0966  0.0688
  169MOL    C8337379   0.390   2.870   1.003  0.2179  0.0142 -0.3032
  169MOL    H8437380   0.652   2.833   0.851  1.2889 -0.0195  0.5209
  169MOL    H8537381   0.607   2.992   0.866 -1.0667  0.3614  0.8735
  169MOL    H8637382   0.714   2.828   1.097  0.8588  1.3900  1.4960
  169MOL    H8737383   0.420   2.894   0.901  0.6417 -2.6474 -0.8423
  169MOL    H8837384   0.335   2.955   1.041 -2.4483 -1.0506 -1.6002
  169MOL    H8937385   0.320   2.786   1.000  0.7265 -0.3743 -3.1661
  169MOL    C9037386   0.664   3.023   1.156 -0.7084 -0.1984  0.2784
  169MOL    C9137387   0.654   2.999   1.305  0.5453 -0.2469  0.4460
  169MOL    C9237388   0.757   2.892   1.352  0.0803 -0.7598 -0.2007
  169MOL    O9337389   0.875   2.897   1.323 -0.0121  0.5633  0.1709
  169MOL    C9437390   0.705   2.765   1.416 -0.4493 -0.5880 -0.0572
  169MOL    H9537391   0.753   3.084   1.139  0.3507 -0.6674  3.6443
  169MOL    H9637392   0.576   3.085   1.140 -0.6730  0.0211  0.9043
  169MOL    H9737393   0.554   2.961   1.326  0.2144 -0.3755 -1.3119
  169MOL    H9837394   0.668   2.796   1.514  0.2941  1.0004 -0.2541
  169MOL    H9937395   0.633   2.721   1.348 -0.1227  1.9204 -2.1048
  169MOL   H10037396   0.786   2.692   1.426 -0.5841 -0.8194 -0.6434
  169MOL   C10137397   0.686   3.118   1.398  0.3625 -0.0153 -1.1846
  169MOL   C10237398   0.674   3.107   1.555  0.7691  0.0023 -0.3819
  169MOL   C10337399   0.530   3.084   1.604 -0.9535  0.2995  0.1066
  169MOL   O10437400   0.445   3.174   1.573  0.5242  0.3179  0.0529
  169MOL   C10537401   0.503   2.959   1.689 -0.0820  0.4710  0.7582
  169MOL   H10637402   0.787   3.154   1.380  0.5433 -1.3035 -2.9467
  169MOL   H10737403   0.623   3.201   1.367  1.6364  0.4634 -2.5547
  169MOL   H10837404   0.728   3.018   1.588 -0.7729 -0.2605  1.5297
  169MOL   H10937405   0.447   2.984   1.779  0.5876  1.0073  1.0377
  169MOL   H11037406   0.448   2.894   1.622 -0.6964  0.9275  0.8223
  169MOL   H11137407   0.597   2.914   1.720  1.2608  2.3093 -0.5145
  169MOL   C11237408   0.742   3.232   1.620  0.1813  0.0731 -0.5872
  169MOL   C11337409   0.740   3.224   1.777  0.2103  1.0399 -0.0669
  169MOL   C11437410   0.654   3.345   1.829  0.1553 -0.6127 -0.2958
  169MOL   O11537411   0.675   3.463   1.791 -0.1796  0.0942  0.4795
  169MOL   C11637412   0.550   3.317   1.929  0.1636  0.0198 -0.6115
  169MOL   H11737413   0.689   3.318   1.580 -2.7004 -0.8374  1.1220
  169MOL   H11837414   0.839   3.242   1.571 -0.6455 -0.6531 -2.4130
  169MOL   H11937415   0.685   3.137   1.812 -1.9541  3.0123  1.6549
  169MOL   H12037416   0.499   3.403   1.972  0.3317  0.7828 -1.8943
  169MOL   H12137417   0.479   3.249   1.884  0.6506 -1.4734  0.8472
  169MOL   H12237418   0.611   3.274   2.009 -0.0454  0.4651 -0.2119
  169MOL   C12337419   0.883   3.225   1.835  0.2341  0.4014  0.6709
  169MOL   C12437420   0.959   3.094   1.819  0.3722  0.2852  0.4367
  169MOL   C12537421   0.877   2.980   1.882 -0.1770  0.0075 -0.3651
  169MOL   O12637422   0.837   2.889   1.810  0.0506  0.0864  0.2035
  169MOL   C12737423   0.846   2.982   2.031 -0.0334  0.2707  0.3609
  169MOL   H12837424   0.885   3.258   1.939 -3.1048  0.0817  0.9029
  169MOL   H12937425   0.934   3.305   1.781 -2.2684  1.5677 -0.0411
  169MOL   H13037426   0.959   3.063   1.715  0.6440 -0.2260  0.5833
  169MOL   H13137427   0.856   3.084   2.068  2.9937 -0.5586  1.9597
  169MOL   H13237428   0.919   2.924   2.086  0.2694  0.2877 -0.0228
  169MOL   H13337429   0.745   2.945   2.051  0.1125  1.3663  3.3732
  169MOL   C13437430   1.104   3.097   1.879  0.5323  1.4445 -0.7974
  169MOL   C13537431   1.184   2.970   1.841 -0.5637 -0.0635  0.2016
  169MOL   C13637432   1.206   2.954   1.691  0.7883  0.5983 -0.1401
  169MOL   O13737433   1.298   3.014   1.639  0.7555  0.1899  0.1818
  169MOL   C13837434   1.114   2.861   1.618  0.2356 -0.2986  0.4063
  169MOL   H13937435   1.106   3.126   1.984  1.7718 -0.8073 -0.1872
  169MOL   H14037436   1.156   3.185   1.841 -0.1219  2.4349  0.5366
  169MOL   H14137437   1.122   2.886   1.871  0.7546 -1.0583  0.1812
  169MOL   H14237438   1.059   2.904   1.534 -2.0511  1.1070  2.5361
  169MOL   H14337439   1.031   2.832   1.684 -0.2807 -0.6186 -0.3754
  169MOL   H14437440   1.174   2.772   1.600  0.2503 -0.5000  1.4369
  169MOL   C14537441   1.318   2.974   1.925 -0.0961 -0.0911 -0.4637
  169MOL   C14637442   1.393   2.841   1.939 -0.3592  0.7864 -0.1804
  169MOL   C14737443   1.521   2.855   2.021  0.0943  0.1391  0.3174
  169MOL   O14837444   1.509   2.853   2.140 -0.1818 -0.0811 -0.3503
  169MOL   C14937445   1.647   2.905   1.960  0.3575  0.1494 -0.1823
  169MOL   H15037446   1.293   3.003   2.027  0.8700 -0.6888 -0.0484
  169MOL   H15137447   1.381   3.055   1.890  0.5398 -0.9862 -1.4195
  169MOL   H15237448   1.419   2.819   1.836  0.4164 -2.6378  0.6752
  169MOL   H15337449   1.615   2.981   1.889 -0.0156 -0.6976 -0.9238
  169MOL   H15437450   1.692   2.971   2.035 -0.8273  1.5778 -0.7006
  169MOL   H15537451   1.721   2.840   1.912  0.5420 -0.6233  1.1256
  169MOL   C15637452   1.300   2.727   1.986  0.6749 -0.0806 -0.3979
  169MOL   C15737453   1.360   2.585   1.981 -0.5163  0.0735  1.0084
  169MOL   C15837454   1.309   2.516   1.854  0.0284  0.4643  0.0882
  169MOL   O15937455   1.191   2.483   1.847  0.0210 -0.1736 -0.0389
  169MOL   C16037456   1.407   2.499   1.737 -0.1506 -0.0990  0.2357
  169MOL   H16137457   1.268   2.756   2.086 -2.7197 -0.9529 -1.1884
  169MOL   H16237458   1.200   2.725   1.944  0.3985  1.1398  0.1796
  169MOL   H16337459   1.468   2.592   1.967 -1.0721 -0.1966 -4.4553
  169MOL   H16437460   1.437   2.599   1.707 -0.6329  0.3051  1.0801
  169MOL   H16537461   1.353   2.454   1.654 -0.2236 -3.6459  2.1167
  169MOL   H16637462   1.495   2.443   1.768 -0.7154  0.3842  2.8228
  169MOL   C16737463   1.327   2.491   2.099 -0.3007 -0.6042  0.5978
  169MOL   C16837464   1.384   2.529   2.242 -0.1032 -0.3299  0.4702
  169MOL   C16937465   1.542   2.558   2.238  0.4981  0.0969  0.2816
  169MOL   O17037466   1.604   2.522   2.139 -0.2745  0.1558 -0.0460
  169MOL   C17137467   1.599   2.634   2.358 -0.4033  0.1645  0.0115
  169MOL   H17237468   1.220   2.475   2.107 -0.9801  3.6096  1.0227
  169MOL   H17337469   1.373   2.396   2.070 -0.7842 -0.9474  0.9502
  169MOL   H17437470   1.350   2.625   2.282 -0.1571 -0.2007  0.1143
  169MOL   H17537471   1.532   2.656   2.441 -0.2155 -0.2026  0.2612
  169MOL   H17637472   1.630   2.735   2.331  1.0445 -0.0692  0.7564
  169MOL   H17737473   1.680   2.577   2.404  0.3366  1.4678  0.3508
  169MOL   C17837474   1.345   2.424   2.355  0.2939 -0.2754  0.0062
  169MOL   C17937475   1.194   2.395   2.370  0.0789  0.3231 -0.8570
  169MOL   C18037476   1.115   2.525   2.403 -0.0357  0.4271  0.5083
  169MOL   O18137477   1.049   2.591   2.320  0.1082 -0.0355  0.2740
  169MOL   C18237478   1.146   2.586   2.541 -0.9316  0.0205  0.6214
  169MOL   H18337479   1.401   2.336   2.324 -1.8078 -0.2884 -4.0503
  169MOL   H18437480   1.390   2.464   2.446  1.5953  0.7817 -1.0722
  169MOL   H18537481   1.147   2.362   2.277 -1.7256 -0.8256  0.4349
  169MOL   H18637482   1.232   2.653   2.545 -0.3861 -0.6367 -0.0039
  169MOL   H18737483   1.164   2.508   2.615 -0.8278  0.3399  0.9348
  169MOL   H18837484   1.055   2.635   2.575 -0.5557  0.7174  0.6408
  169MOL   C18937485   1.171   2.277   2.472 -0.3992  0.3728 -0.1919
  169MOL   C19037486   1.181   2.138   2.408 -0.2795  0.4519  0.0979
  169MOL   C19137487   1.326   2.101   2.368 -0.8494  0.7069 -0.2128
  169MOL   O19237488   1.401   2.086   2.464 -0.2935 -0.0523  0.2085
  169MOL   C19337489   1.365   2.090   2.223  0.1680 -0.4080 -0.8487
  169MOL   H19437490   1.241   2.284   2.555 -1.0256 -1.4488  0.5035
  169MOL   H19537491   1.069   2.290   2.511 -0.0211  1.5139  0.4682
  169MOL   H19637492   1.127   2.130   2.314  0.1702 -1.2182 -0.0419
  169MOL   H19737493   1.470   2.122   2.226  1.0895 -3.1842 -2.2853
  169MOL   H19837494   1.363   1.989   2.184  0.5725 -0.7511 -0.0004
  169MOL   H19937495   1.308   2.168   2.172 -1.0070 -0.9244 -0.3483
  169MOL   C20037496   1.127   2.031   2.497 -0.0226  0.1657 -0.2601
  169MOL   C20137497   1.116   1.889   2.437  0.2612 -0.3346  0.7436
  169MOL   C20237498   0.971   1.863   2.389  0.3193  0.3425 -0.5481
  169MOL   O20337499   0.927   1.903   2.278 -0.3432  0.2312 -0.6419
  169MOL   C20437500   0.878   1.786   2.480 -0.5246 -0.3467 -0.1359
  169MOL   H20537501   1.164   2.028   2.599 -0.8624 -1.6618  0.0242
  169MOL   H20637502   1.026   2.067   2.519 -0.6578 -0.8281 -1.4601
  169MOL   H20737503   1.175   1.887   2.346  0.5320 -0.5180  0.9226
  169MOL   H20837504   0.879   1.830   2.580  0.1051 -0.1026 -0.2497
  169MOL   H20937505   0.780   1.767   2.435  0.0164  1.8120 -2.2954
  169MOL   H21037506   0.910   1.684   2.502  0.9260 -0.3630 -2.2088
  169MOL   C21137507   1.179   1.782   2.534  0.7465  0.5739 -1.0961
  169MOL   C21237508   1.209   1.647   2.453  0.1354 -0.2130  0.5341
  169MOL   C21337509   1.265   1.540   2.552  0.1303 -0.2437 -0.6350
  169MOL   O21437510   1.239   1.544   2.674  0.6203 -0.0001 -0.6610
  169MOL   C21537511   1.351   1.422   2.494 -0.6146  0.5813 -0.5809
  169MOL   H21637512   1.272   1.821   2.575  0.2728  1.5434 -0.9325
  169MOL   H21737513   1.113   1.762   2.618  1.3195 -1.8627 -1.1649
  169MOL   H21837514   1.285   1.658   2.376  0.1833 -2.3223  0.2481
  169MOL   H21937515   1.437   1.398   2.556 -1.8557 -0.1161  0.9148
  169MOL   H22037516   1.292   1.331   2.499  1.0493 -0.4647  0.7004
  169MOL   H22137517   1.387   1.441   2.393 -0.6300 -0.1311 -0.7253
  169MOL   H22237518   1.123   1.589   2.420 -1.1007  1.6012  0.4734
  170MOL     C137519   7.688   6.335   6.341 -0.1568  0.0444 -0.5997
  170MOL     C237520   7.596   6.418   6.256 -0.3526  0.0047  0.5799
  170MOL     C337521   7.476   6.457   6.337 -0.2284 -0.2581 -0.0254
  170MOL     O437522   7.468   6.564   6.396 -0.5256 -0.0810  0.0942
  170MOL     C537523   7.353   6.367   6.324 -0.7172 -0.5718  0.0400
  170MOL     H637524   7.647   6.234   6.345  0.6942 -0.3356 -1.3032
  170MOL     H737525   7.695   6.360   6.447 -2.3520 -1.4965 -0.0679
  170MOL     H837526   7.586   6.357   6.166  3.2945  1.5712 -0.9745
  170MOL     H937527   7.380   6.262   6.330  1.6516  0.0455  0.7090
  170MOL    H1037528   7.276   6.390   6.398 -1.4577  2.2181 -1.5207
  170MOL    H1137529   7.300   6.392   6.232 -0.5135 -0.3762 -0.0244
  170MOL    H1237530   7.792   6.332   6.307  0.3423  1.0458  0.7874
  170MOL    C1337531   7.674   6.542   6.213 -0.0686  0.3260 -0.3070
  170MOL    C1437532   7.654   6.599   6.069  0.0119 -0.1938 -0.4072
  170MOL    C1537533   7.767   6.699   6.033 -0.0135  0.4596 -0.3115
  170MOL    O1637534   7.780   6.803   6.089  0.1397 -0.5285 -0.2207
  170MOL    C1737535   0.011   6.649   5.933 -0.3865  0.1630 -0.0160
  170MOL    H1837536   7.679   6.627   6.281  2.1540  1.5182 -1.8850
  170MOL    H1937537   7.778   6.509   6.206  0.0792  0.8168 -0.4569
  170MOL    H2037538   7.660   6.512   6.004  1.3390 -0.4502  0.0507
  170MOL    H2137539   0.085   6.728   5.927 -0.5580  0.4026  0.8964
  170MOL    H2237540   0.047   6.564   5.991 -0.6767 -0.7417 -1.1381
  170MOL    H2337541   7.838   6.618   5.833  0.6575 -0.0461 -0.2746
  170MOL    C2437542   7.519   6.661   6.034  0.0537 -0.4727  0.2205
  170MOL    C2537543   7.470   6.648   5.887 -0.1216  0.0807  0.0055
  170MOL    C2637544   7.441   6.503   5.850  0.2033 -0.2721  0.5635
  170MOL    O2737545   7.354   6.439   5.908 -0.1266 -0.4696  0.5641
  170MOL    C2837546   7.500   6.439   5.721 -0.2751  0.4420  0.1767
  170MOL    H2937547   7.444   6.607   6.092  1.5538  0.3126  2.9687
  170MOL    H3037548   7.515   6.765   6.067 -2.4423 -0.7251  0.8331
  170MOL    H3137549   7.547   6.695   5.827  1.1915 -1.8690  0.1085
  170MOL    H3237550   7.460   6.475   5.626  1.3148 -1.6479 -1.3446
  170MOL    H3337551   7.604   6.463   5.746  0.2585 -0.5305 -1.0274
  170MOL    H3437552   7.490   6.331   5.718  1.2377  0.3252 -2.7443
  170MOL    C3537553   7.340   6.743   5.864 -0.4909 -0.9051  0.1491
  170MOL    C3637554   7.302   6.788   5.723  0.3647 -0.4932  0.4990
  170MOL    C3737555   7.276   6.683   5.614 -0.2697  0.1594  0.1953
  170MOL    O3837556   7.190   6.599   5.637  0.1886 -0.7782 -0.2432
  170MOL    C3937557   7.356   6.695   5.481  1.0078  0.1394  0.4628
  170MOL    H4037558   7.357   6.834   5.922  0.3959 -0.7684 -0.3202
  170MOL    H4137559   7.249   6.693   5.896 -0.4361 -1.5861 -0.7267
  170MOL    H4237560   7.396   6.833   5.690  1.4020 -1.5889  1.8970
  170MOL    H4337561   7.407   6.789   5.460  1.3712  0.0397  0.9045
  170MOL    H4437562   7.280   6.688   5.402  1.9718  0.2172 -0.4791
  170MOL    H4537563   7.427   6.613   5.469 -0.2950 -1.2612  2.1056
  170MOL    C4637564   7.198   6.906   5.703  0.2386  0.0132  0.9325
  170MOL    C4737565   7.047   6.873   5.710  0.0638 -0.2057 -0.3780
  170MOL    C4837566   7.007   6.840   5.856 -0.2266 -0.9488 -0.6428
  170MOL    O4937567   7.036   6.914   5.950  0.1944  0.2996 -0.3637
  170MOL    C5037568   6.909   6.729   5.878 -0.0289  0.2459  0.4925
  170MOL    H5137569   7.236   6.957   5.615  0.2076 -0.0735  0.8691
  170MOL    H5237570   7.219   6.977   5.782  1.3114 -1.8966  2.4142
  170MOL    H5337571   7.023   6.781   5.656 -0.0825 -0.0322 -0.6070
  170MOL    H5437572   6.805   6.749   5.905 -1.2582  1.3795 -4.4710
  170MOL    H5537573   6.895   6.671   5.787 -1.8449  1.3988  0.0140
  170MOL    H5637574   6.944   6.653   5.948  2.2950  2.1757  1.5167
  170MOL    C5737575   6.972   6.997   5.655  0.2801  0.5310  1.1018
  170MOL    C5837576   6.820   6.994   5.643  0.3573  0.2304 -0.1003
  170MOL    C5937577   6.750   7.128   5.676  0.0326 -0.4483 -0.5451
  170MOL    O6037578   6.649   7.138   5.744  0.5359  0.5742  0.3117
  170MOL    C6137579   6.817   7.254   5.606  0.3660 -0.1681 -0.6182
  170MOL    H6237580   7.004   6.998   5.551 -1.8983  4.1797  0.3664
  170MOL    H6337581   7.009   7.092   5.693 -0.3505  1.4673 -0.5850
  170MOL    H6437582   6.774   6.920   5.709 -0.5853  2.7132  2.1327
  170MOL    H6537583   6.796   7.345   5.663 -1.8515 -1.0581  0.0183
  170MOL    H6637584   6.924   7.236   5.602  0.0203 -2.2220 -0.9315
  170MOL    H6737585   6.771   7.282   5.511 -2.0919  1.3554  0.9426
  170MOL    C6837586   6.765   6.942   5.516  0.5280  0.0997  0.4493
  170MOL    C6937587   6.620   6.885   5.515  0.4187 -0.4054 -0.0635
  170MOL    C7037588   6.600   6.743   5.572 -0.2601  0.3509  0.4750
  170MOL    O7137589   6.698   6.668   5.588  0.6607 -0.5392 -0.2793
  170MOL    C7237590   6.463   6.697   5.623 -0.7669  0.5118  0.4802
  170MOL    H7337591   6.773   7.015   5.436  1.6121 -1.0778 -0.5419
  170MOL    H7437592   6.827   6.864   5.472  2.8069  1.9859  0.2852
  170MOL    H7537593   6.564   6.952   5.581  0.3848  0.6765 -1.1733
  170MOL    H7637594   6.398   6.784   5.613 -0.8154  0.2815 -1.4170
  170MOL    H7737595   6.415   6.612   5.574  1.7001 -0.5667 -0.1069
  170MOL    H7837596   6.474   6.674   5.728 -0.7664 -2.8804 -0.2242
  170MOL    C7937597   6.547   6.902   5.380  0.2722  1.2068  0.4582
  170MOL    C8037598   6.524   7.044   5.320 -0.3601 -1.1170 -0.3247
  170MOL    C8137599   6.435   7.130   5.408 -0.4294  0.2316 -0.3990
  170MOL    O8237600   6.341   7.083   5.469  0.0343 -0.5094  0.0510
  170MOL    C8337601   6.482   7.270   5.436 -0.2784  0.6320  0.0728
  170MOL    H8437602   6.446   6.862   5.380  1.3442 -1.6059 -1.2564
  170MOL    H8537603   6.609   6.858   5.302  0.2476  0.9802  0.5689
  170MOL    H8637604   6.617   7.101   5.315 -0.5732 -0.8116 -0.9259
  170MOL    H8737605   6.413   7.346   5.400 -1.2107  0.1660  0.8446
  170MOL    H8837606   6.576   7.291   5.385 -0.2426  1.1309  0.3455
  170MOL    H8937607   6.507   7.283   5.541 -0.7656  1.8660  0.0360
  170MOL    C9037608   6.461   7.041   5.178  0.2126 -0.1801 -0.2028
  170MOL    C9137609   6.455   7.179   5.108 -0.1753 -0.2569  0.4736
  170MOL    C9237610   6.588   7.251   5.103  0.2775 -0.8000  0.4040
  170MOL    O9337611   6.611   7.370   5.144 -0.8993 -0.3218  0.4005
  170MOL    C9437612   6.699   7.168   5.039 -0.6691  0.3655 -0.5357
  170MOL    H9537613   6.508   6.967   5.114  0.0802 -1.5261  1.2298
  170MOL    H9637614   6.364   6.992   5.192 -0.2482  0.1921 -1.9387
  170MOL    H9737615   6.394   7.245   5.170 -2.0971  0.6139 -2.2083
  170MOL    H9837616   6.745   7.220   4.955 -2.8413  0.3370 -1.7847
  170MOL    H9937617   6.771   7.143   5.117  0.2008 -2.2205 -2.1206
  170MOL   H10037618   6.666   7.069   5.008  1.3539 -0.4866 -0.0519
  170MOL   C10137619   6.387   7.169   4.974  0.0092 -0.1668  0.0490
  170MOL   C10237620   6.303   7.287   4.921 -0.5355 -0.8450 -0.2866
  170MOL   C10337621   6.177   7.222   4.859 -0.4390 -0.7234 -1.0079
  170MOL   O10437622   6.152   7.202   4.741 -0.1216  0.0761  0.2557
  170MOL   C10537623   6.072   7.189   4.959 -0.4192  0.6644  0.0122
  170MOL   H10637624   6.455   7.143   4.893  0.2880 -0.0999  0.2608
  170MOL   H10737625   6.323   7.082   4.967  2.1952 -1.9573  1.4752
  170MOL   H10837626   6.271   7.346   5.007  2.3170 -1.1289  1.0243
  170MOL   H10937627   6.100   7.203   5.064  1.1336 -2.6791  0.1009
  170MOL   H11037628   5.971   7.226   4.940 -0.5354 -0.2804 -1.2663
  170MOL   H11137629   6.047   7.084   4.941 -1.5089  0.9693 -0.3309
  170MOL   C11237630   6.394   7.373   4.826 -0.4980  0.5471  0.1878
  170MOL   C11337631   6.349   7.527   4.808 -0.9363  0.4025 -0.5092
  170MOL   C11437632   6.427   7.619   4.902 -0.1151 -0.4451 -0.8810
  170MOL   O11537633   6.531   7.669   4.863 -0.0484 -0.4761  0.4858
  170MOL   C11637634   6.367   7.643   5.040 -0.7924 -0.3021 -0.2911
  170MOL   H11737635   6.390   7.328   4.726  2.1183  0.5341  0.0461
  170MOL   H11837636   6.500   7.374   4.852 -0.7787  1.2525  1.3247
  170MOL   H11937637   6.390   7.545   4.708  1.2494 -0.2304  0.2490
  170MOL   H12037638   6.447   7.670   5.109 -0.4311  0.5404 -1.0234
  170MOL   H12137639   6.295   7.725   5.034 -0.1701  0.4252  1.6612
  170MOL   H12237640   6.320   7.551   5.075  0.6050 -0.5848  0.8855
  170MOL   C12337641   6.203   7.566   4.803 -0.7616 -0.5196 -0.1004
  170MOL   C12437642   6.123   7.525   4.678  0.0482  0.0928  0.5305
  170MOL   C12537643   6.179   7.580   4.544  0.3859 -0.2212 -0.8764
  170MOL   O12637644   6.205   7.696   4.524  0.0380  0.2519  0.2689
  170MOL   C12737645   6.212   7.480   4.441 -0.4322  0.4483  0.3415
  170MOL   H12837646   6.193   7.672   4.830  0.3655 -0.4632  0.1049
  170MOL   H12937647   6.153   7.513   4.884  1.5804 -0.4577  1.4318
  170MOL   H13037648   6.134   7.417   4.670 -0.5617  0.1812 -2.1674
  170MOL   H13137649   6.194   7.531   4.346 -0.7249  0.0045  0.1582
  170MOL   H13237650   6.154   7.388   4.450  4.1335 -2.7386 -1.0661
  170MOL   H13337651   6.317   7.458   4.460  0.7256  3.0990 -2.5471
  170MOL   C13437652   5.965   7.546   4.690  0.3369  0.1624  0.5644
  170MOL   C13537653   5.908   7.690   4.685  0.3077 -0.1303  0.4508
  170MOL   C13637654   5.792   7.695   4.591  0.1623 -0.2798  0.1500
  170MOL   O13737655   5.695   7.625   4.616 -0.5945  0.7564  1.2920
  170MOL   C13837656   5.796   7.795   4.481 -0.0152  0.1214 -0.5067
  170MOL   H13937657   5.924   7.500   4.779  1.3090  1.6879  1.8249
  170MOL   H14037658   5.923   7.491   4.605 -0.7770 -0.0015  1.2147
  170MOL   H14137659   5.984   7.758   4.644 -0.1478 -0.7458 -1.4799
  170MOL   H14237660   5.816   7.737   4.390 -2.5080  2.0525 -2.3763
  170MOL   H14337661   5.861   0.025   4.489 -1.7111  1.3417  0.3314
  170MOL   H14437662   5.699   7.840   4.459  0.5451  1.9146  0.5570
  170MOL   C14537663   5.876   7.736   4.826  0.3605 -0.2593  0.3435
  170MOL   C14637664   5.867   0.032   4.858 -0.6131 -0.0533 -0.3860
  170MOL   C14737665   5.775   0.047   4.981  0.2680  0.0742  0.5115
  170MOL   O14837666   5.811   0.040   5.102  0.0792 -0.1516  0.8476
  170MOL   C14937667   5.627   0.043   4.946 -0.4486  0.3210  0.2529
  170MOL   H15037668   5.947   7.696   4.899 -1.2311 -0.7381  1.6639
  170MOL   H15137669   5.788   7.679   4.855  0.4878 -0.8667 -0.4675
  170MOL   H15237670   5.819   0.091   4.780 -0.9640  0.2260  0.0410
  170MOL   H15337671   5.607   7.847   4.853  0.8663  0.6319 -0.2213
  170MOL   H15437672   5.576   7.851   5.029 -0.0445  0.0198  0.3192
  170MOL   H15537673   5.576   0.139   4.935 -3.0379 -1.1141 -0.8570
  170MOL   C15637674   6.001   0.093   4.877  0.3515 -0.5257 -0.6159
  170MOL   C15737675   6.020   0.229   4.942 -0.4020  0.5435 -0.5629
  170MOL   C15837676   5.934   0.333   4.876 -0.1396 -0.7178 -0.1756
  170MOL   O15937677   5.904   0.332   4.758  0.1970 -0.0059 -0.0769
  170MOL   C16037678   5.895   0.452   4.958  0.1746 -0.4871 -0.6518
  170MOL   H16137679   6.055   0.033   4.950  0.5430 -0.9734 -1.1202
  170MOL   H16237680   6.059   0.089   4.784  1.4807 -1.4495  0.1240
  170MOL   H16337681   5.983   0.210   5.042 -1.9290  0.7170 -1.0914
  170MOL   H16437682   5.974   0.527   4.956 -0.2047 -0.0957 -1.4546
  170MOL   H16537683   5.883   0.410   5.058  0.0402  1.6171  0.2509
  170MOL   H16637684   5.792   0.481   4.935 -0.2826 -2.0646 -0.6574
  170MOL   C16737685   6.169   0.288   4.938 -0.9163 -0.4070 -0.4020
  170MOL   C16837686   6.263   0.235   5.050 -0.1595  0.1828  0.3025
  170MOL   C16937687   6.202   0.264   5.193 -0.8162 -0.3627 -0.5827
  170MOL   O17037688   6.149   0.369   5.224 -0.2290  0.1636 -0.1919
  170MOL   C17137689   6.214   0.148   5.279 -0.0744 -1.5651 -0.6011
  170MOL   H17237690   6.232   0.255   4.855  0.0723 -0.8169  0.5068
  170MOL   H17337691   6.179   0.396   4.929  1.8241 -0.5844  0.2763
  170MOL   H17437692   6.275   0.129   5.028 -0.2461  0.4178 -0.8873
  170MOL   H17537693   6.119   0.100   5.300 -0.2594 -1.4436 -1.1621
  170MOL   H17637694   6.253   0.174   5.378 -0.4449  0.1361 -0.8880
  170MOL   H17737695   6.294   0.085   5.239  1.9875 -0.0643  1.0260
  170MOL   C17837696   6.406   0.298   5.040 -0.2481 -0.4290  0.5462
  170MOL   C17937697   6.500   0.250   5.155  0.1359 -0.2869 -0.0256
  170MOL   C18037698   6.620   0.346   5.175 -0.2602  0.2876  0.2198
  170MOL   O18137699   6.720   0.328   5.110 -0.3673 -0.0740  0.6168
  170MOL   C18237700   6.605   0.462   5.272 -0.3432  0.0306  0.0067
  170MOL   H18337701   6.451   0.269   4.945 -1.5494 -2.5742  0.5391
  170MOL   H18437702   6.392   0.405   5.057  0.5113 -0.0331 -1.1994
  170MOL   H18537703   6.444   0.250   5.248 -0.4070 -2.2497 -0.3323
  170MOL   H18637704   6.696   0.507   5.311 -1.5827  2.5118  0.1093
  170MOL   H18737705   6.547   0.423   5.356  1.0222  1.3126  1.5927
  170MOL   H18837706   6.557   0.545   5.221  1.4837  1.2093  0.1452
  170MOL   C18937707   6.541   0.110   5.120 -0.1530 -0.7236 -0.3847
  170MOL   C19037708   6.612   0.029   5.234 -0.4524 -0.9430 -0.6942
  170MOL   C19137709   6.763   0.002   5.206 -0.5104  0.0761 -0.2697
  170MOL   O19237710   6.849   0.060   5.273 -0.3287  0.4441  0.3001
  170MOL   C19337711   6.789   7.767   5.088 -1.4594  0.2251  0.0574
  170MOL   H19437712   6.453   0.051   5.094 -1.7193  1.7624 -0.8249
  170MOL   H19537713   6.598   0.106   5.027  0.2644 -0.9630 -0.1206
  170MOL   H19637714   6.576   7.784   5.233 -0.8770 -0.8162  0.4746
  170MOL   H19737715   6.705   7.703   5.059 -1.5943  0.4809 -0.1129
  170MOL   H19837716   6.825   7.826   5.003 -0.7053  2.0669  1.6351
  170MOL   H19937717   6.870   7.699   5.113 -0.6833  1.1964  0.2166
  170MOL   C20037718   6.588   0.072   5.382  0.7592 -0.3057 -0.0016
  170MOL   C20137719   6.633   7.823   5.491 -0.8645 -0.7226  0.4576
  170MOL   C20237720   6.560   7.687   5.470 -0.0611  0.1326 -0.2551
  170MOL   O20337721   6.438   7.686   5.437  0.5797 -0.2145 -0.5048
  170MOL   C20437722   6.633   7.560   5.519 -0.1570  0.2985  0.6057
  170MOL   H20537723   6.629   0.170   5.407  1.0009 -0.2089 -0.7790
  170MOL   H20637724   6.479   0.078   5.395  1.0068  1.3880  1.5969
  170MOL   H20737725   6.738   7.806   5.466 -1.5405  0.5303 -3.5875
  170MOL   H20837726   6.735   7.575   5.555 -0.0026  2.0061 -0.5084
  170MOL   H20937727   6.592   7.516   5.611  0.3206 -4.1904 -1.1927
  170MOL   H21037728   6.641   7.495   5.432  0.5005  2.2653 -0.8270
  170MOL   C21137729   6.618   0.011   5.641 -0.1790  0.0419 -0.5160
  170MOL   C21237730   6.727   0.108   5.684  0.1331  0.7229  0.0020
  170MOL   C21337731   6.658   0.247   5.722 -0.6126 -0.2566  0.5335
  170MOL   O21437732   6.554   0.281   5.664 -0.2192 -0.0767  0.3462
  170MOL   C21537733   6.717   0.327   5.836  0.2146  0.5140  0.3122
  170MOL   H21637734   6.513   0.030   5.662 -0.3946 -2.0110  0.3978
  170MOL   H21737735   6.637   7.775   5.694  0.0018 -0.6246 -1.7443
  170MOL   H21837736   6.809   0.109   5.612  1.8058  1.4436  1.8437
  170MOL   H21937737   6.699   0.432   5.816  0.6980  0.6635  0.6604
  170MOL   H22037738   6.667   0.292   5.926  2.4646 -1.8325  0.7057
  170MOL   H22137739   6.826   0.320   5.837  0.2101  0.4890  2.1337
  170MOL   H22237740   6.774   0.066   5.773  0.5093  0.6426 -0.2297
  171MOL     C137741   7.631   1.443   1.295  0.5298 -0.3289 -0.3789
  171MOL     C237742   7.758   1.377   1.231 -0.0277 -0.3271 -0.0524
  171MOL     C337743   7.716   1.291   1.112  0.9604  0.2965 -0.8745
  171MOL     O437744   7.766   1.311   1.000 -0.0710 -0.1494  0.1659
  171MOL     C537745   7.633   1.171   1.135 -0.8058 -0.5493  0.0099
  171MOL     H637746   7.653   1.534   1.351  1.3113 -0.5207 -0.3736
  171MOL     H737747   7.600   1.382   1.380  2.1637 -0.4753  0.1281
  171MOL     H837748   7.797   1.310   1.308 -1.1905  2.4986  3.1353
  171MOL     H937749   7.547   1.169   1.068 -0.6617 -2.1620 -0.1355
  171MOL    H1037750   7.690   1.079   1.128 -1.9826 -1.3634  0.8591
  171MOL    H1137751   7.607   1.167   1.241  0.2240 -1.3609  0.2348
  171MOL    H1237752   7.546   1.462   1.230  1.4949  0.6382 -1.3705
  171MOL    C1337753   0.010   1.481   1.199 -0.3675 -0.2007  0.0550
  171MOL    C1437754   0.157   1.427   1.162  0.1743  0.2032 -0.3874
  171MOL    C1537755   0.200   1.303   1.243 -1.1938 -0.1920 -0.4183
  171MOL    O1637756   0.205   1.195   1.184 -0.0705 -0.2274  0.5202
  171MOL    C1737757   0.219   1.321   1.389 -0.7237  0.8313 -0.6443
  171MOL    H1837758   7.833   1.531   1.108  1.2841 -1.7676 -1.4643
  171MOL    H1937759   0.007   1.556   1.278 -1.7326  0.1482 -0.3056
  171MOL    H2037760   0.145   1.388   1.061  2.1244 -1.7980  0.1173
  171MOL    H2137761   0.261   1.420   1.409 -2.1293  1.6889 -1.8282
  171MOL    H2237762   0.136   1.289   1.452  0.2012  0.9312  0.6600
  171MOL    H2337763   0.299   1.252   1.414 -1.7260 -0.0143  0.2721
  171MOL    C2437764   0.266   1.540   1.156  0.4074 -0.3903 -0.0450
  171MOL    C2537765   0.408   1.498   1.114 -0.8423  0.0077  0.2804
  171MOL    C2637766   0.407   1.445   0.971  0.5587  0.8924 -0.3813
  171MOL    O2737767   0.380   1.512   0.875 -0.1997  0.5861 -0.3167
  171MOL    C2837768   0.480   1.312   0.949  0.5555 -0.0633 -0.1221
  171MOL    H2937769   0.220   1.618   1.096  1.8922  1.0607  0.6481
  171MOL    H3037770   0.276   1.575   1.258 -0.6621  0.6782 -0.2914
  171MOL    H3137771   0.451   1.417   1.174  0.3372  0.9327  0.7086
  171MOL    H3237772   0.584   1.321   0.981  1.5778 -0.2346 -3.1968
  171MOL    H3337773   0.427   1.231   0.999  0.8134 -0.2467 -0.1393
  171MOL    H3437774   0.482   1.282   0.844 -1.5822 -0.3130 -0.1080
  171MOL    C3537775   0.505   1.620   1.128 -0.1709  0.4107 -0.6867
  171MOL    C3637776   0.654   1.591   1.144  0.1416 -0.0396  0.2990
  171MOL    C3737777   0.737   1.710   1.086 -0.2970  0.1301 -0.3635
  171MOL    O3837778   0.730   1.824   1.134  0.4377 -0.2391 -0.2421
  171MOL    C3937779   0.822   1.665   0.965  0.0593  0.2844 -0.1640
  171MOL    H4037780   0.480   1.670   1.222 -0.0193 -0.9592  0.1005
  171MOL    H4137781   0.481   1.690   1.048 -1.1482  1.4184  0.4628
  171MOL    H4237782   0.683   1.507   1.081  0.2196 -1.0491  1.6644
  171MOL    H4337783   0.913   1.725   0.955 -0.6651  1.9129  2.6279
  171MOL    H4437784   0.768   1.675   0.871  0.6890 -1.2905 -0.7238
  171MOL    H4537785   0.844   1.559   0.979 -2.5382  0.1350  3.3628
  171MOL    C4637786   0.692   1.566   1.289 -0.3112 -0.3550  0.5886
  171MOL    C4737787   0.833   1.515   1.309 -0.6471 -0.0631 -0.2005
  171MOL    C4837788   0.921   1.625   1.378  0.3104  0.1935 -0.4519
  171MOL    O4937789   0.910   1.665   1.493 -0.5954  1.0632 -0.7290
  171MOL    C5037790   1.041   1.684   1.303 -0.4339 -0.0736 -0.4622
  171MOL    H5137791   0.630   1.481   1.315 -1.5391 -0.2905 -2.0393
  171MOL    H5237792   0.648   1.632   1.364  1.0708 -1.4187  2.3846
  171MOL    H5337793   0.875   1.495   1.210 -0.5633  1.5180 -0.4881
  171MOL    H5437794   1.131   1.682   1.364 -0.8228 -1.3561  0.0808
  171MOL    H5537795   1.054   1.639   1.204 -0.1943  2.4304 -1.6042
  171MOL    H5637796   1.016   1.786   1.274  0.3522  0.1199 -0.4696
  171MOL    C5737797   0.837   1.382   1.393 -0.2520  0.2806 -0.7965
  171MOL    C5837798   0.803   1.256   1.321 -0.2623  0.2333 -0.7166
  171MOL    C5937799   0.659   1.213   1.326  0.4926  0.1256  0.3985
  171MOL    O6037800   0.588   1.209   1.223  0.6228 -0.4627  0.1057
  171MOL    C6137801   0.595   1.190   1.461 -0.3887  0.7441 -0.6924
  171MOL    H6237802   0.763   1.386   1.473  1.9793  0.5496  1.3296
  171MOL    H6337803   0.930   1.369   1.449  0.1196  0.9553 -1.2478
  171MOL    H6437804   0.854   1.178   1.376 -1.1716  0.2060  0.1026
  171MOL    H6537805   0.661   1.163   1.543 -4.6968 -1.4926  2.2286
  171MOL    H6637806   0.540   1.280   1.486 -1.7477 -0.4576  0.7238
  171MOL    H6737807   0.517   1.114   1.454  0.7976 -0.5016 -0.8162
  171MOL    C6837808   0.858   1.247   1.181  0.6909  0.1020  0.3622
  171MOL    C6937809   0.862   1.100   1.122  0.3098  0.3473  0.3566
  171MOL    C7037810   0.960   1.011   1.204 -0.2750 -0.1456 -0.1628
  171MOL    O7137811   0.923   0.895   1.222 -0.1171  0.7049  0.7976
  171MOL    C7237812   1.088   1.066   1.264 -0.0478  0.2441  0.3499
  171MOL    H7337813   0.807   1.321   1.120  0.8093 -0.9840 -1.0919
  171MOL    H7437814   0.961   1.282   1.172  0.8516 -0.8497 -1.7447
  171MOL    H7537815   0.758   1.066   1.121  0.9983 -1.7726  0.1753
  171MOL    H7637816   1.067   1.113   1.360  0.1578  0.3169  0.3616
  171MOL    H7737817   1.155   0.984   1.291  1.1575  0.6549 -1.2746
  171MOL    H7837818   1.149   1.122   1.192 -1.4284 -0.3605 -1.3225
  171MOL    C7937819   0.908   1.101   0.976  0.2472  0.0453  0.6359
  171MOL    C8037820   0.862   0.991   0.886  0.4692  0.3791 -0.4120
  171MOL    C8137821   0.969   0.932   0.795  0.9473  0.5650  0.7725
  171MOL    O8237822   0.977   0.809   0.791  0.0470 -0.5411 -0.0179
  171MOL    C8337823   1.058   1.016   0.712  0.1868  0.1603  0.6510
  171MOL    H8437824   1.017   1.089   0.973  0.2247  0.0635 -1.1780
  171MOL    H8537825   0.894   1.194   0.922 -0.3911 -0.0818  0.5744
  171MOL    H8637826   0.831   0.907   0.949 -0.2412  1.2924  0.4701
  171MOL    H8737827   1.095   0.958   0.627 -0.1157 -0.3575  0.8684
  171MOL    H8837828   1.153   1.038   0.760  0.6383 -1.5713  0.5820
  171MOL    H8937829   0.999   1.105   0.690  1.9733  1.6130  1.6335
  171MOL    C9037830   0.737   1.037   0.812  0.2033 -0.7747  0.1860
  171MOL    C9137831   0.660   0.933   0.723 -0.1571 -0.1658  0.4777
  171MOL    C9237832   0.630   0.809   0.813  0.1723 -0.6835 -0.2918
  171MOL    O9337833   0.585   0.821   0.931  0.0125 -0.0560  0.3292
  171MOL    C9437834   0.634   0.672   0.748 -0.3234  0.0114  0.3155
  171MOL    H9537835   0.671   1.073   0.891  1.1977  0.1320  0.6186
  171MOL    H9637836   0.761   1.133   0.766  0.3977 -0.2453  1.3561
  171MOL    H9737837   0.719   0.892   0.640  1.0389  0.4249  1.0187
  171MOL    H9837838   0.658   0.664   0.642 -1.7005  0.2484 -0.0325
  171MOL    H9937839   0.700   0.616   0.814 -1.1725  2.4052  3.2945
  171MOL   H10037840   0.530   0.642   0.759  0.0383 -0.4432  2.7376
  171MOL   C10137841   0.536   1.003   0.666 -0.2123 -0.8646 -0.7800
  171MOL   C10237842   0.440   0.924   0.569 -0.1950 -0.0725 -0.0334
  171MOL   C10337843   0.515   0.891   0.440  0.2289  0.0062  0.8137
  171MOL   O10437844   0.548   0.981   0.363 -0.5261 -0.2044  0.1528
  171MOL   C10537845   0.536   0.747   0.394  0.0528  0.0412 -0.7597
  171MOL   H10637846   0.475   1.057   0.738 -3.1322 -0.7470 -3.2852
  171MOL   H10737847   0.576   1.088   0.611 -1.1655  1.6644  2.3385
  171MOL   H10837848   0.414   0.824   0.602  0.4536 -0.1450  0.2599
  171MOL   H10937849   0.456   0.729   0.323 -1.1876  3.6871 -0.4245
  171MOL   H11037850   0.626   0.745   0.334  0.4942  0.3240 -0.1198
  171MOL   H11137851   0.532   0.667   0.468  0.4310  0.4879 -0.2447
  171MOL   C11237852   0.311   1.002   0.529  0.7225  0.2228  0.0632
  171MOL   C11337853   0.175   0.935   0.534  0.1309 -0.1324  0.2236
  171MOL   C11437854   0.160   0.797   0.465  0.2874  0.2155 -0.0878
  171MOL   O11537855   0.201   0.786   0.347  0.0846  0.0726 -0.2960
  171MOL   C11637856   0.107   0.679   0.544 -0.0679 -0.4627 -0.2479
  171MOL   H11737857   0.318   1.047   0.430  1.2556  2.4046  1.0523
  171MOL   H11837858   0.304   1.098   0.581 -0.5073  1.4408 -2.2712
  171MOL   H11937859   0.150   0.903   0.635 -2.3968  2.3480  0.4430
  171MOL   H12037860   0.130   0.578   0.508 -0.7693 -0.2322 -1.3709
  171MOL   H12137861   0.142   0.683   0.647  0.9992  0.8282 -0.6557
  171MOL   H12237862   7.856   0.689   0.549  0.1251  1.5269 -0.0193
  171MOL   C12337863   0.065   1.040   0.491  0.6058 -0.1052 -0.6878
  171MOL   C12437864   7.849   1.112   0.606  0.9138  0.3238  0.1815
  171MOL   C12537865   7.780   1.006   0.694 -0.5593  0.1318 -0.4576
  171MOL   O12637866   7.718   0.919   0.640 -0.0375 -0.4184 -0.3690
  171MOL   C12737867   7.796   1.005   0.848 -0.8693  0.4493  0.5613
  171MOL   H12837868   7.843   0.998   0.430  0.7683 -0.1604 -0.8620
  171MOL   H12937869   0.101   1.119   0.425 -1.1716 -0.1988 -1.8041
  171MOL   H13037870   0.067   1.166   0.663  1.0663 -0.0312  0.3186
  171MOL   H13137871   7.850   1.090   0.889  0.5595 -0.1103 -0.1200
  171MOL   H13237872   7.851   0.919   0.886 -1.0982 -0.2676 -0.6824
  171MOL   H13337873   7.694   1.011   0.885 -0.9992 -1.8748  0.6593
  171MOL   C13437874   7.740   1.206   0.534  0.8322 -0.4831 -0.0672
  171MOL   C13537875   7.653   1.288   0.632  0.0703  0.1533 -0.1408
  171MOL   C13637876   7.709   1.429   0.658 -0.2816 -0.5310  0.1843
  171MOL   O13737877   7.640   1.529   0.651  0.1756 -0.1453  0.6020
  171MOL   C13837878   7.850   1.448   0.711  0.2338 -0.3064  0.1320
  171MOL   H13937879   7.691   1.134   0.468 -2.1671  0.5101  0.9824
  171MOL   H14037880   7.789   1.276   0.467  1.2176  0.5830  1.3009
  171MOL   H14137881   7.644   1.248   0.733 -2.0474 -2.6996 -1.3677
  171MOL   H14237882   0.002   1.453   0.819  1.6879  2.3637 -0.0844
  171MOL   H14337883   0.030   1.547   0.688 -0.6850  0.2054  0.8433
  171MOL   H14437884   0.058   1.368   0.675 -1.5071 -2.3588  1.4040
  171MOL   C14537885   7.503   1.287   0.580 -0.5112  0.1916  0.3192
  171MOL   C14637886   7.435   1.152   0.593  0.1777 -0.1826 -0.2555
  171MOL   C14737887   7.396   1.121   0.740 -0.0617  0.0746 -0.5509
  171MOL   O14837888   7.386   1.208   0.827  0.5226  0.3577 -0.4330
  171MOL   C14937889   7.398   0.973   0.770  0.7541 -0.6863 -0.0414
  171MOL   H15037890   7.498   1.316   0.475  1.7923  0.0265  0.1302
  171MOL   H15137891   7.440   1.360   0.631 -1.3177 -0.4990  0.3155
  171MOL   H15237892   7.498   1.070   0.560  1.1381  1.2974 -2.1924
  171MOL   H15337893   7.475   0.921   0.714  1.9109  0.7984  0.1279
  171MOL   H15437894   7.426   0.967   0.875  1.0501 -2.8298 -0.2390
  171MOL   H15537895   7.298   0.932   0.756 -0.2689  1.2922  1.0983
  171MOL   C15637896   7.314   1.138   0.492  0.4808  0.0492  0.1380
  171MOL   C15737897   7.189   1.217   0.514  0.3795 -0.2538  0.0263
  171MOL   C15837898   7.094   1.148   0.614 -0.5301 -0.1433 -0.5121
  171MOL   O15937899   7.078   1.025   0.625  0.3063  0.5646 -0.3315
  171MOL   C16037900   7.022   1.236   0.710  0.7483  0.1770 -1.1022
  171MOL   H16137901   7.345   1.149   0.388  0.2847  1.1776  0.1881
  171MOL   H16237902   7.298   1.031   0.483 -0.7563  0.2136  0.2851
  171MOL   H16337903   7.224   1.315   0.547  1.5214 -0.0020 -1.8546
  171MOL   H16437904   6.918   1.235   0.674 -0.3452  0.8959  1.9459
  171MOL   H16537905   7.064   1.336   0.707  0.3234  0.3867 -0.2313
  171MOL   H16637906   7.032   1.178   0.802  1.4962  0.4457 -1.0136
  171MOL   C16737907   7.113   1.217   0.387  0.6534  0.3252 -0.4393
  171MOL   C16837908   6.983   1.313   0.375 -0.1577 -0.3681 -0.8066
  171MOL   C16937909   6.859   1.240   0.310 -0.1002 -0.4938  0.3656
  171MOL   O17037910   6.822   1.262   0.195  0.1289 -0.0637  0.0057
  171MOL   C17137911   6.784   1.144   0.401 -0.2158  0.0400 -0.1948
  171MOL   H17237912   7.174   1.242   0.300  0.5768 -0.2699 -0.6642
  171MOL   H17337913   7.084   1.116   0.358  0.9109  0.4586 -1.1599
  171MOL   H17437914   6.945   1.341   0.474  1.7283 -0.2920 -0.0850
  171MOL   H17537915   6.685   1.121   0.363 -0.3551  0.2394  0.0450
  171MOL   H17637916   6.770   1.198   0.495  0.3955 -0.2193  0.0472
  171MOL   H17737917   6.829   1.045   0.409 -0.4988 -0.0853 -0.1641
  171MOL   C17837918   7.007   1.440   0.295  0.3902 -0.4225  0.4790
  171MOL   C17937919   7.080   1.545   0.372  0.2547  0.3790  0.0919
  171MOL   C18037920   6.979   1.645   0.437  0.6726 -0.6275  0.2078
  171MOL   O18137921   6.961   1.754   0.387 -0.1955 -0.0259  0.0952
  171MOL   C18237922   6.934   1.621   0.580 -0.2143 -0.3845  0.5390
  171MOL   H18337923   7.077   1.415   0.216  1.7185 -0.2072  1.5700
  171MOL   H18437924   6.915   1.489   0.264 -0.7877 -2.0275  1.3406
  171MOL   H18537925   7.133   1.505   0.458 -2.1707 -0.6048  1.1754
  171MOL   H18637926   6.975   1.695   0.649  0.2917 -0.0586 -0.1078
  171MOL   H18737927   6.949   1.520   0.619  0.8663 -0.6588 -0.5429
  171MOL   H18837928   6.826   1.635   0.581 -0.1712 -0.0461  0.6005
  171MOL   C18937929   7.174   1.635   0.281  0.0456 -0.0109 -0.1070
  171MOL   C19037930   7.270   1.733   0.350  0.3811 -0.3651  0.7566
  171MOL   C19137931   7.373   1.653   0.437 -0.3597 -0.6911 -1.0288
  171MOL   O19237932   7.476   1.602   0.386  0.1709  0.1007 -0.7041
  171MOL   C19337933   7.340   1.651   0.578  0.1691 -0.1236 -0.6121
  171MOL   H19437934   7.237   1.560   0.233  0.0268  1.2229 -2.1341
  171MOL   H19537935   7.121   1.701   0.212  0.7538  1.1477  0.4361
  171MOL   H19637936   7.213   1.803   0.411 -1.4285  1.1044 -2.4971
  171MOL   H19737937   7.233   1.670   0.593  0.5597  1.4957  0.2678
  171MOL   H19837938   7.360   1.558   0.631 -0.9248  0.7719  1.4505
  171MOL   H19937939   7.399   1.725   0.632 -0.9516  0.5490 -0.2896
  171MOL   C20037940   7.338   1.829   0.249  0.0838 -0.8726  0.2844
  171MOL   C20137941   7.447   1.925   0.298  1.0125  0.1438 -0.2319
  171MOL   C20237942   7.388   2.037   0.385  0.0225  0.1973 -0.4494
  171MOL   O20337943   7.274   2.081   0.354  0.1093  0.3779  0.4121
  171MOL   C20437944   7.465   2.080   0.502  0.3852  0.7869  0.4726
  171MOL   H20537945   7.379   1.762   0.173  1.6631 -0.2364  0.5625
  171MOL   H20637946   7.267   1.882   0.186  0.6609  2.6358  2.4661
  171MOL   H20737947   7.525   1.874   0.354  0.3483  1.0948  1.6003
  171MOL   H20837948   7.569   2.046   0.500  0.8718  2.3322 -1.2294
  171MOL   H20937949   7.475   2.188   0.491  0.9910  0.7510  0.6287
  171MOL   H21037950   7.410   2.058   0.594  1.0687 -0.0870  0.6817
  171MOL   C21137951   7.518   1.996   0.181  0.2689  0.1716 -0.4857
  171MOL   C21237952   7.638   2.081   0.221  0.2861 -0.0117 -0.3569
  171MOL   C21337953   7.690   2.160   0.111 -0.1723  0.0006 -0.7337
  171MOL   O21437954   7.766   2.110   0.026 -0.1456  0.4512  0.0011
  171MOL   C21537955   7.659   2.301   0.112  0.4969 -0.3515  1.1238
  171MOL   H21637956   7.556   1.922   0.111 -1.3282  0.1645 -1.3610
  171MOL   H21737957   7.447   2.049   0.118  0.8919 -0.2038 -1.5040
  171MOL   H21837958   7.713   2.028   0.279 -1.5488 -0.0515  2.0701
  171MOL   H21937959   7.594   2.318   0.026  0.8686 -3.1278  0.2412
  171MOL   H22037960   7.600   2.331   0.199 -0.9161 -2.1028  0.8050
  171MOL   H22137961   7.743   2.370   0.117  0.9086 -0.6285 -1.5029
  171MOL   H22237962   7.590   2.145   0.295  0.3696 -1.0200  0.5898
  172MOL     C137963   6.337   7.134   4.404 -0.5453 -0.5133  0.4636
  172MOL     C237964   6.266   7.001   4.387 -0.7088 -0.4529  0.0748
  172MOL     C337965   6.281   6.953   4.245 -0.1521  0.1233  0.9155
  172MOL     O437966   6.386   6.902   4.208  0.1399  0.2024 -0.2718
  172MOL     C537967   6.155   6.967   4.160  1.0741  0.5490 -0.0364
  172MOL     H637968   6.304   7.203   4.326 -0.9911 -1.0348  0.1906
  172MOL     H737969   6.445   7.123   4.392 -0.4185  0.4964  0.6465
  172MOL     H837970   6.160   7.013   4.413 -0.6453  0.9288 -0.2408
  172MOL     H937971   6.141   7.070   4.128  2.7949  1.3309  1.6461
  172MOL    H1037972   6.145   6.896   4.078  0.7564 -0.0898  0.5551
  172MOL    H1137973   6.066   6.954   4.222  0.4969  1.6419 -0.6093
  172MOL    H1237974   6.319   7.178   4.502 -0.8892 -1.7200  0.9477
  172MOL    C1337975   6.321   6.906   4.490  0.2052  0.8950  0.2130
  172MOL    C1437976   6.264   6.769   4.518  0.4931  0.5102  0.1026
  172MOL    C1537977   6.114   6.782   4.556 -0.4333 -0.0277 -0.3232
  172MOL    O1637978   6.032   6.721   4.492 -0.2124 -0.4984 -0.5865
  172MOL    C1737979   6.074   6.888   4.658  0.4600 -0.2051 -0.4335
  172MOL    H1837980   6.427   6.890   4.474 -0.1588  0.4088 -1.8070
  172MOL    H1937981   6.329   6.970   4.578 -0.8134  1.0002  0.2350
  172MOL    H2037982   6.264   6.707   4.428 -0.6707 -0.4588  0.7549
  172MOL    H2137983   5.966   6.886   4.667  0.4933 -1.1509 -0.1663
  172MOL    H2237984   6.122   6.867   4.754 -0.7476 -1.9775 -0.1805
  172MOL    H2337985   6.101   6.987   4.623 -1.4239  0.8235  0.9583
  172MOL    C2437986   6.342   6.690   4.624 -0.5922 -0.3562 -0.3627
  172MOL    C2537987   6.294   6.542   4.641  0.2140  0.7163  0.1100
  172MOL    C2637988   6.335   6.449   4.526 -0.5442 -1.0096 -0.1201
  172MOL    O2737989   6.422   6.364   4.550  0.1430 -0.0717 -0.0788
  172MOL    C2837990   6.255   6.451   4.393  1.0235 -0.5430  0.0457
  172MOL    H2937991   6.447   6.686   4.593 -0.2439 -0.3373  0.7758
  172MOL    H3037992   6.339   6.752   4.714  0.1581  1.0739 -1.2907
  172MOL    H3137993   6.185   6.547   4.639  0.0723 -0.7543  1.9728
  172MOL    H3237994   6.208   6.353   4.387 -1.5317  0.7159 -1.0980
  172MOL    H3337995   6.177   6.527   4.399  3.8753  2.4451  0.6317
  172MOL    H3437996   6.324   6.461   4.309  0.7601  1.3083  0.0285
  172MOL    C3537997   6.328   6.483   4.784  0.0728  0.1703  0.4207
  172MOL    C3637998   6.221   6.392   4.841 -0.4481  0.1715  0.7165
  172MOL    C3737999   6.280   6.314   4.960  0.6620  0.4610  0.0140
  172MOL    O3838000   6.383   6.345   5.028  0.0297  0.0081  0.1304
  172MOL    C3938001   6.229   6.173   4.988  0.0267  0.1948  0.8043
  172MOL    H4038002   6.339   6.565   4.855  2.3807  0.4283 -0.2029
  172MOL    H4138003   6.421   6.427   4.781  1.9741  3.2589 -0.4787
  172MOL    H4238004   6.197   6.325   4.758 -1.8825  0.8790  0.5485
  172MOL    H4338005   6.234   6.154   5.095 -0.3634  1.5633  1.0651
  172MOL    H4438006   6.294   6.098   4.942  1.6441  2.7499 -1.2034
  172MOL    H4538007   6.122   6.164   4.970  0.1909  1.3777 -0.9555
  172MOL    C4638008   6.098   6.473   4.887 -0.1884 -0.4849 -0.4397
  172MOL    C4738009   6.118   6.559   5.015  0.1462 -0.1424  0.7208
  172MOL    C4838010   6.082   6.708   4.982  0.0043  0.5406  0.3939
  172MOL    O4938011   5.967   6.729   4.934 -0.5952  0.1241 -0.4374
  172MOL    C5038012   6.176   6.822   5.024 -0.2383  0.5974 -0.4698
  172MOL    H5138013   6.012   6.408   4.903 -0.5297 -0.2740 -1.4197
  172MOL    H5238014   6.066   6.532   4.802  1.2130  0.8176 -0.1020
  172MOL    H5338015   6.226   6.565   5.029  0.1230  0.2103  0.7601
  172MOL    H5438016   6.263   6.772   5.066  0.9828  1.4058 -1.9724
  172MOL    H5538017   6.213   6.886   4.943  1.4136  1.0692  0.6392
  172MOL    H5638018   6.126   6.883   5.099 -1.5819 -1.8698  0.7018
  172MOL    C5738019   6.039   6.500   5.127  0.4904 -0.8791 -0.5829
  172MOL    C5838020   6.062   6.552   5.277  0.9484 -0.2793  0.1345
  172MOL    C5938021   6.208   6.552   5.321  0.2768  0.8664  0.1736
  172MOL    O6038022   6.287   6.643   5.303 -0.4546 -0.2240  0.1708
  172MOL    C6138023   6.262   6.425   5.372 -0.5341  1.0496 -1.1349
  172MOL    H6238024   6.071   6.396   5.128  1.0651 -0.7093  0.9384
  172MOL    H6338025   5.934   6.496   5.099  0.4360 -1.1056 -0.3554
  172MOL    H6438026   6.015   6.477   5.340 -0.1340  0.8178  0.6649
  172MOL    H6538027   6.352   6.408   5.312  0.3601 -1.7191  0.8717
  172MOL    H6638028   6.287   6.441   5.477 -0.6164  2.7842 -1.3773
  172MOL    H6738029   6.187   6.345   5.369 -0.0700  0.5439  0.1568
  172MOL    C6838030   5.976   6.677   5.303 -0.1303 -0.1051 -0.4285
  172MOL    C6938031   5.985   6.732   5.441  0.0763  0.4823 -0.0053
  172MOL    C7038032   5.859   6.713   5.529  0.2351 -0.1062  0.7696
  172MOL    O7138033   5.836   6.797   5.616  0.2400  0.4952 -0.6063
  172MOL    C7238034   5.789   6.585   5.523  0.0049  0.2503 -0.5033
  172MOL    H7338035   5.984   6.756   5.228 -0.9660 -1.0777 -1.5685
  172MOL    H7438036   5.871   6.657   5.282 -0.4414  1.9199 -0.9429
  172MOL    H7538037   6.059   6.682   5.503 -2.9451 -2.9495  0.9679
  172MOL    H7638038   5.819   6.519   5.441 -1.6513 -0.6313 -0.4125
  172MOL    H7738039   5.786   6.543   5.624 -0.4531 -1.0581 -1.0434
  172MOL    H7838040   5.687   6.613   5.500  0.2113  0.2591 -1.4485
  172MOL    C7938041   6.046   6.871   5.432  0.1466  0.3782  0.5456
  172MOL    C8038042   5.930   6.989   5.408 -0.3705 -0.1387  0.5695
  172MOL    C8138043   5.840   6.970   5.278 -0.0100  0.3366 -0.2125
  172MOL    O8238044   5.876   7.009   5.164 -0.9710 -0.2216 -0.4459
  172MOL    C8338045   5.710   6.886   5.292 -0.1173  0.3798 -0.2147
  172MOL    H8438046   6.123   6.871   5.355 -0.6821  1.1339 -0.2934
  172MOL    H8538047   6.090   6.889   5.530 -1.5360  1.1608  1.1715
  172MOL    H8638048   5.869   6.979   5.497  0.2635 -1.6938  0.8418
  172MOL    H8738049   5.652   6.912   5.380  0.6977  0.2932  0.3493
  172MOL    H8838050   5.736   6.780   5.284 -1.6857  0.0763 -1.5442
  172MOL    H8938051   5.625   6.902   5.225 -1.7334 -1.4958  1.3136
  172MOL    C9038052   6.017   7.120   5.408 -0.3009 -0.4763 -0.0229
  172MOL    C9138053   5.954   7.249   5.374  0.6576 -0.4631 -0.0263
  172MOL    C9238054   5.843   7.294   5.480 -0.7651 -0.6034  0.4300
  172MOL    O9338055   5.743   7.360   5.449 -0.3648  0.1860 -0.0497
  172MOL    C9438056   5.874   7.273   5.632  0.0172 -0.5636  0.7227
  172MOL    H9538057   6.080   7.125   5.497 -1.6002 -1.1160  0.9491
  172MOL    H9638058   6.093   7.112   5.330  0.1047  0.5979  0.2480
  172MOL    H9738059   5.914   7.245   5.272  0.5972  1.1989 -0.0848
  172MOL    H9838060   5.924   7.179   5.653 -1.3142 -1.4945 -0.1647
  172MOL    H9938061   5.941   7.352   5.666 -1.4455  1.0037  0.0526
  172MOL   H10038062   5.787   7.271   5.697 -1.2969 -2.9175 -1.0239
  172MOL   C10138063   6.066   7.356   5.370  0.2220 -0.2798  0.0395
  172MOL   C10238064   6.011   7.502   5.325 -0.4310  0.9037 -0.7866
  172MOL   C10338065   5.972   7.501   5.181  0.5026 -0.1054 -0.2003
  172MOL   O10438066   6.048   7.460   5.097 -0.3961  0.4278 -0.1374
  172MOL   C10538067   5.839   7.559   5.149  0.2503  0.0959 -0.7445
  172MOL   H10638068   6.102   7.360   5.472 -0.1667 -0.2619  0.1782
  172MOL   H10738069   6.141   7.330   5.295  0.4128 -2.1196  0.8274
  172MOL   H10838070   5.920   7.520   5.382  0.6356  0.2195  1.1788
  172MOL   H10938071   5.843   7.667   5.133 -1.7119 -0.1028 -2.7354
  172MOL   H11038072   5.813   7.528   5.049 -3.6282  2.2154 -0.4762
  172MOL   H11138073   5.766   7.523   5.222  0.6817  0.1087 -0.2984
  172MOL   C11238074   6.109   7.610   5.356 -0.0317  0.1011 -0.4842
  172MOL   C11338075   6.066   7.707   5.466  0.0884 -0.0602 -0.0557
  172MOL   C11438076   6.060   7.630   5.602  0.3033  0.7187 -0.2781
  172MOL   O11538077   5.952   7.600   5.658 -0.4725  0.2008  0.4607
  172MOL   C11638078   6.195   7.603   5.664 -1.3027  0.0384  0.2392
  172MOL   H11738079   6.128   7.666   5.264  1.7086  1.4487  0.6568
  172MOL   H11838080   6.201   7.565   5.394 -1.2110  0.2086  2.6287
  172MOL   H11938081   6.152   7.773   5.477 -1.6827  2.0915  1.3530
  172MOL   H12038082   6.194   7.533   5.748  0.5202 -1.6832 -1.1051
  172MOL   H12138083   6.265   7.564   5.590 -1.2778  1.2828 -0.4039
  172MOL   H12238084   6.225   7.702   5.698  1.3736 -1.1266  1.4202
  172MOL   C12338085   5.942   7.800   5.451 -0.5008 -0.1982  0.2720
  172MOL   C12438086   5.909   0.030   5.577  0.2648  0.5295 -0.4234
  172MOL   C12538087   5.770   0.087   5.566  0.5238  0.3064 -0.5350
  172MOL   O12638088   5.749   0.201   5.537 -0.3157 -0.0314 -0.3449
  172MOL   C12738089   5.657   7.844   5.605  0.4928  0.2293  0.1884
  172MOL   H12838090   5.858   7.745   5.410 -1.2291  1.4694 -0.5273
  172MOL   H12938091   5.968   0.010   5.369 -0.9986 -1.0378 -0.5842
  172MOL   H13038092   5.889   7.833   5.669 -1.6002 -0.0752 -1.1629
  172MOL   H13138093   5.559   0.023   5.574  0.7817  0.7444 -0.1214
  172MOL   H13238094   5.649   7.836   5.713  2.6118  2.0315  0.5015
  172MOL   H13338095   5.675   7.743   5.567 -1.9113 -0.2945  0.3608
  172MOL   C13438096   6.030   0.130   5.597 -0.2072 -0.4453  0.1498
  172MOL   C13538097   6.014   0.226   5.715  0.4227  0.2644  1.1279
  172MOL   C13638098   6.000   0.144   5.837 -0.7076  0.3659 -0.3493
  172MOL   O13738099   6.095   0.079   5.883  0.7201  0.1070 -0.0890
  172MOL   C13838100   5.864   0.145   5.907  0.1835  0.1685 -1.1866
  172MOL   H13938101   6.044   0.196   5.512 -1.4326  1.0848  1.1204
  172MOL   H14038102   6.127   0.081   5.609 -0.2178 -0.0403  2.1136
  172MOL   H14138103   5.925   0.287   5.698  0.8435  0.8847  1.1285
  172MOL   H14238104   5.791   0.093   5.844  1.0660 -3.1921  0.4572
  172MOL   H14338105   5.829   0.246   5.928 -0.5932 -0.5221  0.9501
  172MOL   H14438106   5.872   0.100   6.006  0.0221 -1.4771 -1.8914
  172MOL   C14538107   6.141   0.317   5.716 -0.1669  0.2206  0.1236
  172MOL   C14638108   6.139   0.424   5.824  0.1309 -0.1917  0.4526
  172MOL   C14738109   6.275   0.488   5.848  0.3209  0.2521  0.3107
  172MOL   O14838110   6.335   0.469   5.952  0.3001 -0.5546 -0.4971
  172MOL   C14938111   6.341   0.573   5.739 -0.0065  0.3490  0.4646
  172MOL   H15038112   6.144   0.366   5.619  2.1312  1.0831  0.5803
  172MOL   H15138113   6.233   0.260   5.728  0.8412  2.1285  1.8266
  172MOL   H15238114   6.111   0.381   5.920 -0.1407  2.8291  1.7883
  172MOL   H15338115   6.270   0.576   5.656  1.6548 -1.5404 -1.0466
  172MOL   H15438116   6.359   0.671   5.783 -0.8939  1.1644 -0.9259
  172MOL   H15538117   6.434   0.529   5.705 -0.2684  0.5036 -0.4846
  172MOL   C15638118   6.040   0.537   5.786 -0.0392 -0.4676  0.2700
  172MOL   C15738119   6.044   0.670   5.863 -0.5157 -0.0079 -0.9060
  172MOL   C15838120   6.003   0.646   6.011  0.6894 -0.3012 -0.4673
  172MOL   O15938121   5.889   0.609   6.042 -0.5791 -0.3347 -0.3962
  172MOL   C16038122   6.106   0.670   6.125 -0.7875 -0.2170 -0.4974
  172MOL   H16138123   6.056   0.547   5.679  1.5270 -1.6924  0.3722
  172MOL   H16238124   5.940   0.496   5.794 -0.1266 -0.6274 -1.5552
  172MOL   H16338125   6.144   0.712   5.866 -0.7280  0.4835 -0.5691
  172MOL   H16438126   6.116   0.589   6.197  3.0554  1.1763  0.6086
  172MOL   H16538127   6.103   0.767   6.175  1.3823 -0.3495 -0.0742
  172MOL   H16638128   6.203   0.683   6.077 -0.7824 -0.4425 -0.5485
  172MOL   C16738129   5.948   0.768   5.787  0.2633 -0.5540 -0.0767
  172MOL   C16838130   5.931   0.909   5.846  0.4748  0.7023  0.4947
  172MOL   C16938131   5.809   0.990   5.783 -0.5180  0.0272 -0.6638
  172MOL   O17038132   5.820   1.101   5.729  0.6657  0.5282 -0.1819
  172MOL   C17138133   5.675   0.930   5.820  0.0322 -0.4501  0.3568
  172MOL   H17238134   5.978   0.774   5.682  1.3559 -1.9565  0.1294
  172MOL   H17338135   5.847   0.727   5.793 -0.6063  1.2720 -1.4320
  172MOL   H17438136   5.907   0.891   5.951 -0.0728 -0.1740  0.2247
  172MOL   H17538137   5.688   0.878   5.915 -2.1543  0.6509  1.2854
  172MOL   H17638138   5.634   0.860   5.746 -0.1366  1.6496 -1.6010
  172MOL   H17738139   5.596   1.001   5.843  0.5847 -0.6263  2.9122
  172MOL   C17838140   6.062   0.991   5.839 -0.0929  0.3065  0.2170
  172MOL   C17938141   6.079   1.120   5.929 -0.7767 -0.2782  0.4054
  172MOL   C18038142   6.175   1.224   5.859 -0.0884  0.3469  0.1240
  172MOL   O18138143   6.296   1.210   5.860 -0.2779  0.7667  0.4580
  172MOL   C18238144   6.110   1.335   5.779 -0.2477  0.0186  0.0029
  172MOL   H18338145   6.147   0.924   5.850  0.3196  0.7267 -0.4198
  172MOL   H18438146   6.076   1.027   5.737  2.6383  1.4517  0.9567
  172MOL   H18538147   5.976   1.154   5.935 -0.4542  1.1772 -1.5076
  172MOL   H18638148   6.137   1.316   5.675  1.3295  0.2490  0.3533
  172MOL   H18738149   6.158   1.431   5.800  1.6270 -0.9734  0.3836
  172MOL   H18838150   6.003   1.353   5.787 -0.3466 -0.7039  0.3748
  172MOL   C18938151   6.131   1.081   6.072 -0.9478 -0.5966 -0.0252
  172MOL   C19038152   6.141   1.204   6.173 -0.2343 -0.3592 -0.1102
  172MOL   C19138153   6.007   1.266   6.198 -0.0248  0.1480 -0.4754
  172MOL   O19238154   5.902   1.205   6.184  0.0674 -0.0845 -0.4585
  172MOL   C19338155   6.003   1.412   6.245 -0.0410 -0.2140  0.4014
  172MOL   H19438156   6.076   0.998   6.117 -0.8853 -0.9191 -0.5331
  172MOL   H19538157   6.231   1.039   6.064 -1.0103 -0.7634  0.0612
  172MOL   H19638158   6.204   1.284   6.135 -1.2001 -0.1747 -1.3448
  172MOL   H19738159   6.091   1.438   6.304  0.3082  0.3500 -0.3659
  172MOL   H19838160   5.991   1.474   6.156  0.9316 -0.4045  0.1326
  172MOL   H19938161   5.919   1.429   6.313 -0.6220  1.4449 -0.7126
  172MOL   C20038162   6.206   1.155   6.310 -0.1740 -0.1482  0.8782
  172MOL   C20138163   6.135   1.038   6.383  0.7091  0.8888  0.4684
  172MOL   C20238164   6.107   1.075   6.532  0.9831 -0.0697 -0.5681
  172MOL   O20338165   6.187   1.048   6.626 -0.2276 -0.3771 -0.1545
  172MOL   C20438166   5.973   1.142   6.562 -0.3003  0.3299  0.1121
  172MOL   H20538167   6.305   1.122   6.277 -0.1386 -0.2627  1.1015
  172MOL   H20638168   6.214   1.236   6.381 -0.7111  0.1060  0.6555
  172MOL   H20738169   6.035   1.028   6.342  1.4819 -0.1101 -1.2279
  172MOL   H20838170   5.910   1.067   6.610  0.0560  0.4614  0.7864
  172MOL   H20938171   5.979   1.225   6.633  0.2704  1.9640 -1.8039
  172MOL   H21038172   5.931   1.187   6.472 -1.1136  1.6300  1.1231
  172MOL   C21138173   6.220   0.906   6.365  0.8097 -0.8258  0.6808
  172MOL   C21238174   6.352   0.898   6.436  0.0025 -0.0612  0.3511
  172MOL   C21338175   6.446   0.798   6.379 -0.0817 -0.2653  0.2664
  172MOL   O21438176   6.428   0.760   6.259 -0.0840 -0.4447 -0.3528
  172MOL   C21538177   6.559   0.747   6.471 -0.6535  0.3471  0.0352
  172MOL   H21638178   6.171   0.814   6.399  0.2523  0.2895  2.9801
  172MOL   H21738179   6.228   0.889   6.257 -0.6487  1.7518  0.1195
  172MOL   H21838180   6.335   0.856   6.535 -0.0139 -1.6043 -0.2972
  172MOL   H21938181   6.520   0.666   6.533  2.1722 -0.1038  1.3065
  172MOL   H22038182   6.651   0.721   6.418  1.4755  2.2978  2.5835
  172MOL   H22138183   6.595   0.827   6.536  1.5417 -1.3607  0.9809
  172MOL   H22238184   6.399   0.996   6.439 -1.6452  0.7477  0.0488
  173MOL     C138185   1.310   5.872   4.926  0.0128 -0.1134 -0.2616
  173MOL     C238186   1.465   5.877   4.980  0.6475  0.6031  0.3319
  173MOL     C338187   1.490   6.010   5.045  0.6139  0.2871  0.6521
  173MOL     O438188   1.595   6.076   5.032  0.3599 -0.5792  0.2161
  173MOL     C538189   1.373   6.068   5.123  0.3439  0.1242  0.6593
  173MOL     H638190   1.301   5.800   4.845  1.2819 -0.2390 -0.2984
  173MOL     H738191   1.277   5.966   4.883  1.1228  0.7172  0.6532
  173MOL     H838192   1.525   5.879   4.890  0.7279 -0.1415  0.3656
  173MOL     H938193   1.398   6.119   5.216 -0.5573  0.7480  0.5640
  173MOL    H1038194   1.323   6.138   5.056 -0.7861 -0.1449  1.2074
  173MOL    H1138195   1.301   5.990   5.150 -0.4904  1.0394  1.0917
  173MOL    H1238196   1.240   5.836   5.002  0.5935 -1.9438 -0.5678
  173MOL    C1338197   1.511   5.745   5.064 -0.1424  0.5648  0.3373
  173MOL    C1438198   1.582   5.644   4.971 -1.2023 -0.0176  1.0837
  173MOL    C1538199   1.482   5.581   4.870 -0.1178 -0.1398 -0.3989
  173MOL    O1638200   1.486   5.602   4.748 -0.4479  0.1235  0.1096
  173MOL    C1738201   1.358   5.508   4.922 -0.1044 -0.4716  0.6220
  173MOL    H1838202   1.584   5.784   5.136  2.9238  0.1069 -2.3662
  173MOL    H1938203   1.428   5.689   5.106 -0.5923  1.1378  0.2116
  173MOL    H2038204   1.657   5.697   4.913 -0.1883 -2.6107 -0.0573
  173MOL    H2138205   1.380   5.500   5.028 -1.1631 -0.2089  0.8721
  173MOL    H2238206   1.267   5.568   4.914 -0.6646 -1.3353  0.4431
  173MOL    H2338207   1.324   5.411   4.886 -0.7356 -0.0944  0.1632
  173MOL    C2438208   1.654   5.536   5.047  0.0877  0.5547 -0.2674
  173MOL    C2538209   1.771   5.580   5.137  0.5042  0.0166 -0.8159
  173MOL    C2638210   1.827   5.455   5.208 -0.1297  0.6395 -0.0029
  173MOL    O2738211   1.906   5.382   5.152 -0.6512  0.5169  0.1660
  173MOL    C2838212   1.781   5.411   5.340  0.5427  0.8666  0.7977
  173MOL    H2938213   1.583   5.490   5.117 -0.0325 -3.0316 -2.6029
  173MOL    H3038214   1.699   5.462   4.981 -2.0124 -1.3029  0.3031
  173MOL    H3138215   1.733   5.647   5.214 -1.3493 -0.9735 -0.8458
  173MOL    H3238216   1.759   5.501   5.399  0.8813  0.7034  1.1734
  173MOL    H3338217   1.687   5.358   5.325  1.0210  1.1180 -3.5478
  173MOL    H3438218   1.854   5.349   5.391  2.3619  1.3628 -1.1580
  173MOL    C3538219   1.885   5.659   5.070  0.5933  0.1792 -1.0603
  173MOL    C3638220   1.961   5.762   5.167 -0.1076  0.4352  0.5478
  173MOL    C3738221   2.108   5.766   5.127 -0.1372  0.1642  0.3545
  173MOL    O3838222   2.148   5.864   5.067  0.3192 -0.4364 -0.0811
  173MOL    C3938223   2.201   5.642   5.158  0.4281 -0.2069 -0.0737
  173MOL    H4038224   1.848   5.715   4.984  0.7970  2.1532  0.1086
  173MOL    H4138225   1.953   5.583   5.032  0.0039 -0.1512 -1.4499
  173MOL    H4238226   1.952   5.729   5.271 -1.3370 -1.0497  0.0038
  173MOL    H4338227   2.268   5.626   5.073 -0.2282 -3.7130 -0.0373
  173MOL    H4438228   2.145   5.550   5.178  3.1248 -2.0125 -0.4784
  173MOL    H4538229   2.257   5.662   5.249 -2.8408  0.5218  1.8485
  173MOL    C4638230   1.893   5.898   5.164 -0.2431 -0.1575 -0.3509
  173MOL    C4738231   1.950   6.001   5.261 -0.4477 -0.0914 -0.2053
  173MOL    C4838232   1.927   6.150   5.215  0.0291  0.2863 -0.0657
  173MOL    O4938233   1.842   6.219   5.266 -0.3234  0.3305  0.1016
  173MOL    C5038234   2.032   6.217   5.117 -0.0983 -0.3362  0.6664
  173MOL    H5138235   1.790   5.891   5.199 -0.1485  1.8414  0.3937
  173MOL    H5238236   1.889   5.944   5.065  1.4488  3.9264  1.3660
  173MOL    H5338237   2.059   5.999   5.260 -0.4414 -0.2232  0.4118
  173MOL    H5438238   2.081   6.130   5.072  1.7513  1.1481 -0.2683
  173MOL    H5538239   1.993   6.275   5.034 -0.3871 -2.9556 -1.1117
  173MOL    H5638240   2.101   6.281   5.170  0.3631 -0.0528 -0.2616
  173MOL    C5738241   1.910   5.975   5.414 -0.2283 -0.0036  0.5339
  173MOL    C5838242   1.974   6.073   5.522  0.8330 -0.6545  0.4142
  173MOL    C5938243   1.891   6.099   5.647  0.1547 -0.2347  0.6346
  173MOL    O6038244   1.928   6.080   5.760 -0.4252 -0.0821 -0.7085
  173MOL    C6138245   1.747   6.153   5.625 -0.6889  0.4826  0.4404
  173MOL    H6238246   1.924   5.870   5.437  1.6048 -0.4027 -2.1507
  173MOL    H6338247   1.803   5.987   5.428  0.2956  2.2152  3.0933
  173MOL    H6438248   1.982   6.171   5.476  2.0931 -0.3339  1.2916
  173MOL    H6538249   1.708   6.203   5.714 -0.2314 -0.4607  1.1848
  173MOL    H6638250   1.738   6.225   5.544  0.7934  0.2680  0.0709
  173MOL    H6738251   1.679   6.070   5.605  0.6492 -1.0220  1.8937
  173MOL    C6838252   2.113   6.040   5.563  0.1452 -0.4283 -0.4047
  173MOL    C6938253   2.204   6.163   5.582  0.4795 -0.2684  0.2916
  173MOL    C7038254   2.248   6.225   5.451 -0.8363  0.3775  0.1487
  173MOL    O7138255   2.276   6.157   5.354  0.2164 -0.2613 -0.6379
  173MOL    C7238256   2.239   6.377   5.442 -0.0439  0.2491 -0.4090
  173MOL    H7338257   2.112   5.979   5.654 -3.1977  0.1514  0.0211
  173MOL    H7438258   2.157   5.974   5.489  3.5720  1.0548  0.2166
  173MOL    H7538259   2.145   6.242   5.629  1.3990  1.3240 -1.1836
  173MOL    H7638260   2.152   6.398   5.380 -0.3682 -0.2243 -0.1252
  173MOL    H7738261   2.229   6.412   5.545  0.9625 -0.1662 -0.1597
  173MOL    H7838262   2.323   6.433   5.401 -0.9123  0.6190 -1.7244
  173MOL    C7938263   2.330   6.141   5.668  0.4598  0.2228 -0.1255
  173MOL    C8038264   2.385   6.254   5.757  0.4129  0.0229  0.0967
  173MOL    C8138265   2.525   6.215   5.813 -0.7516  0.5077 -0.4342
  173MOL    O8238266   2.522   6.167   5.926 -0.3029  0.0649 -0.0852
  173MOL    C8338267   2.653   6.233   5.727 -0.5561 -0.2069  0.0476
  173MOL    H8438268   2.411   6.107   5.604 -0.4687  0.0319 -1.2248
  173MOL    H8538269   2.305   6.053   5.727  3.2057  1.0792  2.4481
  173MOL    H8638270   2.396   6.339   5.690  0.9589  1.9144  2.5185
  173MOL    H8738271   2.668   6.146   5.663 -0.3826 -1.9694  2.4423
  173MOL    H8838272   2.744   6.257   5.782 -0.1627  1.2620 -1.2176
  173MOL    H8938273   2.624   6.310   5.656  0.1964 -0.3721 -0.4444
  173MOL    C9038274   2.292   6.306   5.869  0.1539  0.5247  0.3086
  173MOL    C9138275   2.333   6.435   5.946 -0.0541 -0.0750 -0.3664
  173MOL    C9238276   2.362   6.550   5.848  0.4463 -0.1782 -0.2179
  173MOL    O9338277   2.270   6.598   5.778  0.2216  0.2748 -0.4255
  173MOL    C9438278   2.501   6.590   5.830 -0.1354 -0.4231 -0.1406
  173MOL    H9538279   2.186   6.303   5.841 -0.2671  1.2968  1.7476
  173MOL    H9638280   2.291   6.234   5.952  1.8425 -0.5857 -0.6217
  173MOL    H9738281   2.431   6.403   5.980 -0.5959  2.4646  3.9242
  173MOL    H9838282   2.503   6.648   5.738  1.5174  0.0507  0.1646
  173MOL    H9938283   2.545   6.648   5.911 -0.9528 -2.3499  1.7364
  173MOL   H10038284   2.576   6.510   5.832  0.9979  0.6316  0.4729
  173MOL   C10138285   2.243   6.468   6.064  0.4540 -0.4779 -0.3904
  173MOL   C10238286   2.288   6.516   6.204  0.8131 -0.0279 -0.7068
  173MOL   C10338287   2.346   6.655   6.208  0.5943 -0.7819  0.0717
  173MOL   O10438288   2.376   6.713   6.108  0.1487 -0.0083  0.4217
  173MOL   C10538289   2.362   6.723   6.344 -0.4505 -0.2102 -0.0312
  173MOL   H10638290   2.170   6.543   6.032 -1.2550 -2.9204 -2.4468
  173MOL   H10738291   2.178   6.381   6.072  0.3095 -0.1837  1.7684
  173MOL   H10838292   2.204   6.521   6.273  0.2568  1.0505 -1.4572
  173MOL   H10938293   2.275   6.706   6.407  0.8828  0.1726  1.9276
  173MOL   H11038294   2.444   6.672   6.394  0.1530 -0.1649 -0.9582
  173MOL   H11138295   2.387   6.829   6.339  0.4223 -0.3760  0.7487
  173MOL   C11238296   2.396   6.414   6.261  0.6332 -0.6237  0.1596
  173MOL   C11338297   2.356   6.265   6.268  0.8109 -0.5202  0.3594
  173MOL   C11438298   2.227   6.250   6.343  0.1495 -0.3123 -0.1288
  173MOL   O11538299   2.220   6.300   6.457  0.1166 -0.4733  0.2839
  173MOL   C11638300   2.105   6.175   6.284 -0.0510  0.2888  0.3484
  173MOL   H11738301   2.435   6.445   6.358 -2.0794  0.5810  0.9098
  173MOL   H11838302   2.487   6.412   6.200  0.1246 -0.9666 -0.6083
  173MOL   H11938303   2.342   6.232   6.166 -0.8145  0.3253  0.2926
  173MOL   H12038304   2.119   6.068   6.294  1.4456  0.5712  1.3743
  173MOL   H12138305   2.002   6.202   6.307 -0.6636 -1.2059 -0.5637
  173MOL   H12238306   2.113   6.202   6.178  2.4387  0.7005  0.6153
  173MOL   C12338307   2.465   6.175   6.338 -0.5745 -1.0032  0.1827
  173MOL   C12438308   2.525   6.057   6.261 -0.1986  0.8494  0.0450
  173MOL   C12538309   2.406   5.958   6.227 -0.3382  0.2064 -0.4882
  173MOL   O12638310   2.336   5.904   6.315  0.0984 -0.4734 -0.3146
  173MOL   C12738311   2.369   5.937   6.074 -0.7856  0.4234  0.5231
  173MOL   H12838312   2.426   6.134   6.431 -0.0418 -0.1518  0.7900
  173MOL   H12938313   2.553   6.235   6.359 -0.8145  0.0043 -1.5727
  173MOL   H13038314   2.583   6.086   6.174 -1.5061 -2.3331 -1.9907
  173MOL   H13138315   2.459   5.905   6.020 -1.8393  0.3001 -1.1894
  173MOL   H13238316   2.337   6.032   6.032 -1.5852 -0.1754 -0.2360
  173MOL   H13338317   2.287   5.868   6.058  0.8539 -1.5212  0.2154
  173MOL   C13438318   2.631   5.980   6.342 -0.1198  0.2682 -0.7030
  173MOL   C13538319   2.705   5.856   6.282  0.4323 -0.1360  0.7083
  173MOL   C13638320   2.798   5.902   6.178 -0.4239  0.9380 -0.2533
  173MOL   O13738321   2.899   5.968   6.203  0.5077 -0.1870 -0.2826
  173MOL   C13838322   2.775   5.852   6.031  0.7261  0.9223 -0.0240
  173MOL   H13938323   2.581   5.952   6.434  2.2865 -0.3385  0.4324
  173MOL   H14038324   2.703   6.055   6.374  1.0378 -1.1242 -0.0263
  173MOL   H14138325   2.626   5.800   6.232  2.2828 -0.1096 -2.3182
  173MOL   H14238326   2.683   5.794   6.028  1.4009 -0.1392 -0.6103
  173MOL   H14338327   2.853   5.787   5.991 -0.7533 -0.4252 -0.7546
  173MOL   H14438328   2.762   5.938   5.966 -0.1405  1.3246  0.6797
  173MOL   C14538329   2.781   5.764   6.384  0.0434 -0.2091 -0.5567
  173MOL   C14638330   2.873   5.653   6.325  0.0929  0.5344 -0.1986
  173MOL   C14738331   3.000   5.622   6.413  0.2253  0.9218  0.0450
  173MOL   O14838332   2.997   5.629   6.536 -0.1048  0.0050  0.7815
  173MOL   C14938333   3.128   5.580   6.350 -0.2710  0.7701  0.0299
  173MOL   H15038334   2.703   5.715   6.442  2.0501 -0.3107  2.1681
  173MOL   H15138335   2.846   5.805   6.461  0.5765 -0.8582 -0.6568
  173MOL   H15238336   2.914   5.694   6.233  2.0378  0.0824  0.4403
  173MOL   H15338337   3.134   5.472   6.339 -1.7563  0.8566 -1.8390
  173MOL   H15438338   3.157   5.614   6.250  1.5620 -2.3347 -0.5475
  173MOL   H15538339   3.207   5.614   6.417 -0.1751 -1.3110  0.9908
  173MOL   C15638340   2.796   5.526   6.294  0.9491 -0.2528  0.3082
  173MOL   C15738341   2.864   5.427   6.203 -0.0612 -0.6052  0.1702
  173MOL   C15838342   2.886   5.499   6.065 -0.0547  0.0997 -0.1326
  173MOL   O15938343   2.803   5.560   5.996 -0.5070  0.4583 -0.0577
  173MOL   C16038344   3.037   5.503   6.024  0.3266 -0.3563 -0.4440
  173MOL   H16138345   2.769   5.466   6.381  0.8719 -0.0783  0.4034
  173MOL   H16238346   2.695   5.545   6.259  2.0502  2.3822 -1.5683
  173MOL   H16338347   2.960   5.391   6.239 -0.0647 -3.3759 -2.4061
  173MOL   H16438348   3.071   5.432   5.949 -1.4794  0.4601 -2.0739
  173MOL   H16538349   3.094   5.484   6.115 -0.6858  0.9862  0.4795
  173MOL   H16638350   3.078   5.593   5.980 -0.6219  0.2056 -0.1740
  173MOL   C16738351   2.783   5.301   6.176 -0.1888 -0.9980 -0.0607
  173MOL   C16838352   2.824   5.198   6.066 -0.6685 -0.5094 -0.5840
  173MOL   C16938353   2.706   5.117   6.030  0.8889  0.6204 -0.1714
  173MOL   O17038354   2.667   5.122   5.915  0.0804  0.2428  0.0234
  173MOL   C17138355   2.652   5.009   6.133  0.5246 -0.0321 -0.3426
  173MOL   H17238356   2.775   5.247   6.271 -1.3086 -0.5432  0.1095
  173MOL   H17338357   2.685   5.340   6.148 -0.5023 -1.0323  0.9701
  173MOL   H17438358   2.841   5.267   5.983  0.5531  0.1896  0.2188
  173MOL   H17538359   2.568   4.964   6.081  0.7253 -0.2269 -0.5004
  173MOL   H17638360   2.621   5.046   6.230 -1.3765 -2.2688 -0.0502
  173MOL   H17738361   2.724   4.927   6.135  0.9046  0.2991 -0.2358
  173MOL   C17838362   2.957   5.123   6.097  0.8817  0.0432  0.3970
  173MOL   C17938363   3.012   5.032   5.981  0.5734 -0.7571  0.0296
  173MOL   C18038364   3.122   4.951   6.041 -0.7697  0.2476  0.5574
  173MOL   O18138365   3.201   5.005   6.113 -0.2535 -0.3163 -0.0042
  173MOL   C18238366   3.122   4.802   5.995 -0.4230  0.9918  0.1634
  173MOL   H18338367   3.030   5.203   6.107  2.3830 -1.1487 -0.7667
  173MOL   H18438368   2.944   5.066   6.189  2.6695 -1.1845 -0.0849
  173MOL   H18538369   2.936   4.958   5.957  1.0845 -1.0654 -0.6458
  173MOL   H18638370   3.151   4.741   6.080 -1.2485  1.5573  0.8627
  173MOL   H18738371   3.191   4.786   5.912 -2.0158 -0.7961 -0.8524
  173MOL   H18838372   3.027   4.769   5.954 -0.3269  0.9939 -0.0640
  173MOL   C18938373   3.072   5.103   5.854  0.0376 -0.5214  0.2430
  173MOL   C19038374   2.988   5.083   5.730  0.7658 -0.3953  0.2606
  173MOL   C19138375   2.921   5.213   5.682 -0.6697 -0.3161  0.8927
  173MOL   O19238376   2.799   5.220   5.659  0.1611  0.4922 -0.5567
  173MOL   C19338377   3.009   5.339   5.663  0.0871 -0.2019 -0.3429
  173MOL   H19438378   3.088   5.209   5.874 -0.5931 -0.1676 -1.0296
  173MOL   H19538379   3.175   5.072   5.839  0.5487  1.8512 -1.4921
  173MOL   H19638380   2.904   5.016   5.749  0.2105 -0.0067 -0.7511
  173MOL   H19738381   3.105   5.332   5.714  0.6925  1.2510 -1.2579
  173MOL   H19838382   3.031   5.341   5.557 -0.9279 -0.5860 -0.5652
  173MOL   H19938383   2.959   5.429   5.698  2.2905  1.1781 -0.6626
  173MOL   C20038384   3.073   5.027   5.616  0.3991  0.2146 -0.2698
  173MOL   C20138385   2.995   4.960   5.498  0.4855  0.6891  0.2979
  173MOL   C20238386   2.921   4.833   5.535 -0.4589 -0.3633 -0.0702
  173MOL   O20338387   2.983   4.727   5.536 -0.3021  0.1331  0.1930
  173MOL   C20438388   2.771   4.836   5.567 -0.0229 -0.5215 -0.0845
  173MOL   H20538389   3.148   5.096   5.576  1.2162 -0.2183  0.4877
  173MOL   H20638390   3.133   4.947   5.660 -0.1125 -0.4344 -0.7498
  173MOL   H20738391   2.916   5.030   5.472 -0.2291  0.4863  1.8896
  173MOL   H20838392   2.732   4.896   5.649 -0.7665  2.0153 -2.1989
  173MOL   H20938393   2.709   4.872   5.484  1.0205  1.1418 -0.1670
  173MOL   H21038394   2.738   4.733   5.576 -2.2397  0.0576 -1.1579
  173MOL   C21138395   3.089   4.933   5.374  0.4483  0.2554 -0.0712
  173MOL   C21238396   3.006   4.907   5.246 -0.5606  0.1155 -0.4453
  173MOL   C21338397   2.931   5.031   5.198  0.5714 -0.8289  0.3331
  173MOL   O21438398   2.929   5.137   5.255  0.6395 -0.2225  0.1755
  173MOL   C21538399   2.871   5.017   5.059  0.1041  0.2904 -0.4890
  173MOL   H21638400   3.155   5.017   5.351 -0.4616  0.9281 -0.2555
  173MOL   H21738401   3.144   4.842   5.397 -1.4783 -0.8654  0.2144
  173MOL   H21838402   2.928   4.833   5.263  0.4731 -0.7075  0.7906
  173MOL   H21938403   2.786   5.085   5.050  0.2215  1.1009  3.7326
  173MOL   H22038404   2.932   5.053   4.976 -0.5753  0.2725 -1.0062
  173MOL   H22138405   2.844   4.912   5.052  1.7611 -0.2059  0.3366
  173MOL   H22238406   3.073   4.874   5.167  1.5580 -0.9870  1.7611
  174MOL     C138407   1.791   0.827   6.298  0.5265  0.7933 -0.6121
  174MOL     C238408   1.733   0.796   6.436  0.3830  0.4195  0.3628
  174MOL     C338409   1.652   0.671   6.424  0.4559 -0.1821  0.7307
  174MOL     O438410   1.539   0.662   6.469  0.3977  0.5036 -0.0802
  174MOL     C538411   1.704   0.554   6.340  0.3854 -0.5129 -0.8790
  174MOL     H638412   1.787   0.935   6.283 -0.1429  0.8406 -0.0912
  174MOL     H738413   1.728   0.786   6.219  0.1015 -0.4529  0.3521
  174MOL     H838414   1.676   0.881   6.471 -0.2101  0.1849 -0.0110
  174MOL     H938415   1.813   0.553   6.336  0.3368 -0.3674 -2.5233
  174MOL    H1038416   1.668   0.458   6.377  2.1722 -0.7330  0.3878
  174MOL    H1138417   1.660   0.562   6.241  1.5662 -0.1511 -1.3803
  174MOL    H1238418   1.896   0.798   6.286 -0.1170 -1.1433 -1.8577
  174MOL    C1338419   1.846   0.759   6.548  0.5848 -0.4527  0.7296
  174MOL    C1438420   1.780   0.749   6.688 -0.5666  0.7778  0.3516
  174MOL    C1538421   1.737   0.891   6.719 -0.4729  0.4830  0.9506
  174MOL    O1638422   1.823   0.977   6.729  0.2311  0.3338  0.2403
  174MOL    C1738423   1.589   0.925   6.738  0.0410 -0.1033 -0.7178
  174MOL    H1838424   1.891   0.662   6.531  0.6050 -0.7886  2.6442
  174MOL    H1938425   1.926   0.833   6.540  0.2565 -0.1933 -0.3237
  174MOL    H2038426   1.706   0.669   6.688  1.1912 -0.9019 -0.6523
  174MOL    H2138427   1.524   0.903   6.653 -1.7618 -1.4688  0.9610
  174MOL    H2238428   1.554   0.861   6.820 -1.9160  1.3288 -0.3850
  174MOL    H2338429   1.581   1.029   6.768  0.3582 -0.6261  1.2252
  174MOL    C2438430   1.878   0.703   6.792 -0.3701  0.3529  0.5894
  174MOL    C2538431   1.829   0.708   6.942  0.2760 -0.5062  0.3692
  174MOL    C2638432   1.700   0.634   6.963  1.1385 -0.1570 -0.2628
  174MOL    O2738433   1.663   0.536   6.900  0.1804 -0.0744 -0.0408
  174MOL    C2838434   1.604   0.692   7.069 -0.5505 -0.4136 -0.1931
  174MOL    H2938435   1.906   0.598   6.782  0.0182  0.5612 -0.5542
  174MOL    H3038436   1.969   0.764   6.788 -0.9849  1.1678 -1.6476
  174MOL    H3138437   1.819   0.816   6.959  2.7773  0.0205 -1.2210
  174MOL    H3238438   1.552   0.612   7.121 -0.7397  1.1374  2.0910
  174MOL    H3338439   1.665   0.760   7.129 -0.3394  1.2689 -2.2375
  174MOL    H3438440   1.543   0.759   7.009  0.8873 -0.0785 -1.3121
  174MOL    C3538441   1.936   0.643   7.029 -0.7797  0.2626  0.4704
  174MOL    C3638442   2.082   0.689   7.032 -0.5782 -0.3527  0.3932
  174MOL    C3738443   2.074   0.838   7.072 -0.2197  0.1030 -0.3802
  174MOL    O3838444   2.056   0.875   7.186 -0.3201  0.0686 -0.2370
  174MOL    C3938445   2.095   0.934   6.957  1.1336  0.1392  0.6395
  174MOL    H4038446   1.938   0.536   7.009  0.1571  0.3726 -0.0538
  174MOL    H4138447   1.902   0.653   7.132 -0.9090  2.2380  0.2519
  174MOL    H4238448   2.128   0.668   6.935 -1.1761  0.2693 -0.0342
  174MOL    H4338449   2.002   0.975   6.918  1.9069  0.6857 -0.6360
  174MOL    H4438450   2.153   0.891   6.876 -0.4512 -0.5517 -0.1470
  174MOL    H4538451   2.150   1.019   6.997  1.7829 -1.1127  2.4886
  174MOL    C4638452   2.162   0.611   7.141  0.5292  0.2293  0.3589
  174MOL    C4738453   2.311   0.656   7.148  1.0429  0.4446  0.1969
  174MOL    C4838454   2.363   0.625   7.292  0.6495 -0.0233 -0.1745
  174MOL    O4938455   2.381   0.511   7.337  0.6233 -0.0675 -0.5020
  174MOL    C5038456   2.369   0.742   7.388 -0.3291  0.4652 -0.2574
  174MOL    H5138457   2.147   0.505   7.124  2.4923  0.3335 -2.2916
  174MOL    H5238458   2.122   0.633   7.240  2.6824  0.9383  1.0979
  174MOL    H5338459   2.310   0.764   7.134  3.4889  0.4354 -0.2257
  174MOL    H5438460   2.471   0.771   7.410 -0.5521 -0.2799  1.9042
  174MOL    H5538461   2.314   0.833   7.366 -1.5581 -0.5607 -1.5737
  174MOL    H5638462   2.332   0.702   7.483  1.9594 -0.8265  0.1237
  174MOL    C5738463   2.391   0.585   7.036 -0.3367  0.7688 -0.0491
  174MOL    C5838464   2.541   0.644   7.024 -0.1020  0.2534 -0.0535
  174MOL    C5938465   2.636   0.552   6.948  1.0392 -0.0382 -0.4090
  174MOL    O6038466   2.604   0.437   6.918 -0.3087  0.1973  0.0559
  174MOL    C6138467   2.779   0.602   6.922  0.5066 -0.4106 -0.6837
  174MOL    H6238468   2.340   0.580   6.939  0.6655 -2.1422 -0.4813
  174MOL    H6338469   2.403   0.483   7.073  2.3203  0.8513 -0.5666
  174MOL    H6438470   2.575   0.638   7.127 -0.0781  0.4948 -0.0483
  174MOL    H6538471   2.829   0.622   7.017  0.2110 -1.7956 -0.2226
  174MOL    H6638472   2.834   0.520   6.874  2.4350 -0.0583  0.8393
  174MOL    H6738473   2.780   0.692   6.862 -0.6248  0.1323  0.1014
  174MOL    C6838474   2.529   0.781   6.961 -0.6270  0.1745  0.8271
  174MOL    C6938475   2.597   0.896   7.050  0.1261  0.2555  0.6159
  174MOL    C7038476   2.508   0.964   7.154  0.5053 -0.0602 -0.2537
  174MOL    O7138477   2.389   0.982   7.130 -0.1111  0.2640  0.6043
  174MOL    C7238478   2.578   1.026   7.274 -0.6073  0.4811 -0.0521
  174MOL    H7338479   2.573   0.779   6.862 -1.2732 -3.6858  0.5321
  174MOL    H7438480   2.426   0.804   6.935 -0.0363  0.3192 -1.4639
  174MOL    H7538481   2.663   0.831   7.108  1.0170 -0.4616 -1.1596
  174MOL    H7638482   2.645   0.946   7.306 -1.6215  0.2432  1.5163
  174MOL    H7738483   2.636   1.119   7.268  1.8264 -0.7600  2.8175
  174MOL    H7838484   2.498   1.051   7.344 -0.4717 -0.4916  0.4486
  174MOL    C7938485   2.690   1.000   6.965 -0.2471 -0.0479 -0.0374
  174MOL    C8038486   2.627   1.130   6.906 -0.0128 -0.1900  0.1848
  174MOL    C8138487   2.517   1.086   6.807 -0.6296  0.4382 -0.6631
  174MOL    O8238488   2.547   1.005   6.720  0.2672 -0.0519  0.6879
  174MOL    C8338489   2.374   1.130   6.826  0.8754 -0.0909  1.4339
  174MOL    H8438490   2.738   0.955   6.877  0.5766  1.4926 -0.3917
  174MOL    H8538491   2.765   1.041   7.032 -0.0612  1.0944 -0.9309
  174MOL    H8638492   2.573   1.196   6.974 -0.7700  0.1846 -0.7720
  174MOL    H8738493   2.347   1.195   6.742  2.3665 -0.2003  0.8627
  174MOL    H8838494   2.356   1.192   6.914 -0.3693  1.4182  0.1573
  174MOL    H8938495   2.306   1.045   6.833 -0.0829  0.5973  0.6224
  174MOL    C9038496   2.745   1.218   6.850 -0.3858  0.6543 -0.7676
  174MOL    C9138497   2.700   1.334   6.757  0.6512  0.1114 -0.0505
  174MOL    C9238498   2.728   1.478   6.823 -0.6847 -0.1519  0.3255
  174MOL    O9338499   2.793   1.561   6.759 -0.1683 -0.1004  0.3733
  174MOL    C9438500   2.681   1.510   6.959  0.1900  0.1626  0.1652
  174MOL    H9538501   2.792   1.264   6.937 -1.9492  1.3710 -0.2884
  174MOL    H9638502   2.823   1.158   6.803 -0.9642 -2.4603  2.0004
  174MOL    H9738503   2.591   1.341   6.749  0.6332  0.5546  0.5145
  174MOL    H9838504   2.606   1.587   6.977 -0.8653 -0.6763 -0.6058
  174MOL    H9938505   2.633   1.424   7.007 -0.4330  0.7313  0.5603
  174MOL   H10038506   2.760   1.526   7.033  0.6390  1.0235 -0.4878
  174MOL   C10138507   2.758   1.315   6.613 -0.3957  0.0005 -0.9353
  174MOL   C10238508   2.698   1.396   6.496  0.9286 -0.1287  0.8754
  174MOL   C10338509   2.545   1.362   6.492  0.6143 -0.6154  0.1590
  174MOL   O10438510   2.506   1.253   6.448 -0.2160  0.1630  0.0687
  174MOL   C10538511   2.448   1.451   6.556 -0.5424 -0.0509 -0.2048
  174MOL   H10638512   2.865   1.337   6.611  0.1410 -2.2471  1.2696
  174MOL   H10738513   2.754   1.212   6.580  0.1126 -0.4499  0.3785
  174MOL   H10838514   2.715   1.503   6.510  1.3803  0.4523 -3.3730
  174MOL   H10938515   2.433   1.414   6.657 -1.0136  2.4161  0.6639
  174MOL   H11038516   2.493   1.550   6.556 -0.1293 -0.2388  0.0052
  174MOL   H11138517   2.349   1.439   6.512 -0.2609  0.2251 -0.9254
  174MOL   C11238518   2.781   1.352   6.377  0.3692  0.3362 -0.4131
  174MOL   C11338519   2.765   1.423   6.239 -0.2839  0.2631 -0.3589
  174MOL   C11438520   2.787   1.573   6.252 -0.0427 -0.1328  0.8555
  174MOL   O11538521   2.688   1.647   6.269  0.5246  0.0372 -0.2245
  174MOL   C11638522   2.929   1.624   6.247  0.5365  0.1397 -0.3468
  174MOL   H11738523   2.768   1.248   6.346 -1.3103  1.1833 -2.6873
  174MOL   H11838524   2.883   1.369   6.412  0.3043 -1.3839  0.6448
  174MOL   H11938525   2.846   1.388   6.175  0.4321 -4.3426  2.8467
  174MOL   H12038526   2.949   1.686   6.160 -1.1638 -1.3065 -1.7891
  174MOL   H12138527   2.947   1.675   6.341 -0.2297  2.0884 -1.2493
  174MOL   H12238528   2.989   1.533   6.241 -1.2287 -1.2133  1.7945
  174MOL   C12338529   2.631   1.385   6.184  0.9601 -0.2282 -0.6873
  174MOL   C12438530   2.632   1.401   6.032  0.0239  0.5142 -0.3659
  174MOL   C12538531   2.569   1.530   5.987 -0.4212 -0.2808  0.8696
  174MOL   O12638532   2.617   1.594   5.895 -0.4300 -0.3151 -0.1244
  174MOL   C12738533   2.445   1.574   6.059 -0.1307  0.1813  0.3026
  174MOL   H12838534   2.546   1.433   6.231  0.4791 -1.5786 -0.1506
  174MOL   H12938535   2.619   1.279   6.207  2.2573  0.0077  1.2200
  174MOL   H13038536   2.734   1.396   5.996 -0.1933 -2.3569 -0.6944
  174MOL   H13138537   2.381   1.625   5.987  0.6279 -1.8254 -1.8548
  174MOL   H13238538   2.461   1.645   6.141 -2.4020  0.2129  0.7543
  174MOL   H13338539   2.391   1.486   6.093  3.2226 -1.6847  1.0287
  174MOL   C13438540   2.552   1.290   5.956  0.0364 -0.5762  0.0756
  174MOL   C13538541   2.577   1.292   5.797  0.1229  0.2673  0.0409
  174MOL   C13638542   2.633   1.161   5.750 -0.0912  0.4213 -0.3898
  174MOL   O13738543   2.558   1.075   5.702  0.2853  0.2345  0.0908
  174MOL   C13838544   2.780   1.129   5.768  0.2834 -0.0105 -0.0967
  174MOL   H13938545   2.446   1.287   5.982  0.2227 -0.1411  0.9072
  174MOL   H14038546   2.589   1.195   5.995  1.6578 -0.3550 -0.8869
  174MOL   H14138547   2.653   1.366   5.772 -1.7760  1.0003 -3.9326
  174MOL   H14238548   2.842   1.218   5.780 -0.1900  0.6116 -2.1002
  174MOL   H14338549   2.811   1.087   5.673 -1.4906 -2.0258  0.1952
  174MOL   H14438550   2.784   1.063   5.854  1.5343 -0.6030 -0.5908
  174MOL   C14538551   2.444   1.332   5.726  0.1378  0.1824 -0.3943
  174MOL   C14638552   2.461   1.385   5.585  0.2245  0.4900  0.6705
  174MOL   C14738553   2.333   1.369   5.506  0.3057  0.0523  0.2071
  174MOL   O14838554   2.271   1.466   5.457 -0.2040  0.0909 -0.0293
  174MOL   C14938555   2.274   1.229   5.493  0.1948 -0.0152  0.0180
  174MOL   H15038556   2.393   1.410   5.783  1.6294  0.2016  0.9363
  174MOL   H15138557   2.375   1.250   5.748  2.3584 -1.4162  0.7957
  174MOL   H15238558   2.535   1.321   5.537 -0.3647  0.2320  0.1069
  174MOL   H15338559   2.190   1.216   5.425 -1.5072  2.3141  1.5769
  174MOL   H15438560   2.354   1.165   5.455  1.4466  0.9101  1.0676
  174MOL   H15538561   2.236   1.192   5.589 -0.0519 -0.9958 -0.4438
  174MOL   C15638562   2.516   1.529   5.583  0.1461 -0.0765 -0.6186
  174MOL   C15738563   2.554   1.589   5.443  0.7375  0.0103  0.0437
  174MOL   C15838564   2.596   1.484   5.341  0.7155 -0.5851  0.7278
  174MOL   O15938565   2.701   1.424   5.357 -0.2007  0.1168 -0.2792
  174MOL   C16038566   2.507   1.447   5.220  0.1045  0.0817  0.0321
  174MOL   H16138567   2.443   1.586   5.640 -0.3534 -0.9553 -0.3762
  174MOL   H16238568   2.606   1.543   5.643  1.3510  0.2375 -2.4596
  174MOL   H16338569   2.465   1.632   5.397  0.4231 -0.7805 -0.1007
  174MOL   H16438570   2.466   1.536   5.173  3.0078  1.1467 -0.5202
  174MOL   H16538571   2.435   1.375   5.261  0.3120 -0.1900 -0.0828
  174MOL   H16638572   2.576   1.405   5.147 -0.7002  0.6973 -1.0891
  174MOL   C16738573   2.662   1.700   5.450  0.2689 -0.2194 -0.5868
  174MOL   C16838574   2.633   1.813   5.548  1.0350  0.1385  0.1624
  174MOL   C16938575   2.512   1.891   5.504 -0.1436  0.5330 -0.0154
  174MOL   O17038576   2.490   1.915   5.387  0.6758  0.5088 -0.4191
  174MOL   C17138577   2.422   1.936   5.620  0.3602  0.4552  0.0743
  174MOL   H17238578   2.759   1.658   5.475  0.0953  0.6098  1.5940
  174MOL   H17338579   2.679   1.740   5.350  1.5520  2.4796  0.6526
  174MOL   H17438580   2.594   1.769   5.640  1.5539 -1.1397 -0.2108
  174MOL   H17538581   2.364   1.855   5.665  1.3080 -0.1816  0.1858
  174MOL   H17638582   2.345   2.005   5.588 -0.3087  0.0921  0.9020
  174MOL   H17738583   2.474   1.970   5.710  0.0511 -2.4533  1.4196
  174MOL   C17838584   2.760   1.889   5.583 -0.3631  0.2195 -0.0425
  174MOL   C17938585   2.820   1.830   5.717  0.3708 -0.1341 -0.4642
  174MOL   C18038586   2.788   1.913   5.845 -0.4109 -0.2123 -0.4284
  174MOL   O18138587   2.784   2.037   5.837 -0.6837 -0.6360  0.3661
  174MOL   C18238588   2.810   1.849   5.979  0.1168  0.3824  0.1348
  174MOL   H18338589   2.839   1.881   5.509 -1.7661 -1.9246 -1.3718
  174MOL   H18438590   2.732   1.994   5.582  0.3832  0.4248  0.5174
  174MOL   H18538591   2.778   1.733   5.745 -1.0451  0.0050 -1.9729
  174MOL   H18638592   2.906   1.884   6.018  0.6526  0.8058 -1.5113
  174MOL   H18738593   2.804   1.741   5.986 -1.5035  0.4463 -0.1001
  174MOL   H18838594   2.730   1.883   6.045  0.9882  0.5345  1.1143
  174MOL   C18938595   2.976   1.808   5.690 -0.0282  0.4409  0.1090
  174MOL   C19038596   3.059   1.712   5.778 -0.5476 -0.4385 -0.6294
  174MOL   C19138597   2.996   1.570   5.783 -0.0518  0.1638 -0.2294
  174MOL   O19238598   2.976   1.511   5.891  0.0081 -0.3842 -0.0632
  174MOL   C19338599   2.961   1.501   5.656 -0.5672  0.0366  0.0056
  174MOL   H19438600   2.992   1.770   5.589 -0.8269 -0.7875  0.4268
  174MOL   H19538601   3.022   1.906   5.693 -0.4140  0.5883  1.6814
  174MOL   H19638602   3.043   1.756   5.877 -0.4368  3.1505 -2.1391
  174MOL   H19738603   2.864   1.451   5.651 -1.1561  1.1508  0.1215
  174MOL   H19838604   2.962   1.571   5.572  0.7773  1.4445  1.1705
  174MOL   H19938605   3.041   1.432   5.631 -1.9312 -0.8942 -1.9260
  174MOL   C20038606   3.205   1.722   5.757  0.3759  0.3590 -0.1821
  174MOL   C20138607   3.300   1.663   5.862 -0.8390 -0.1522 -0.0591
  174MOL   C20238608   3.267   1.690   6.015 -0.2518 -0.4411 -0.4863
  174MOL   O20338609   3.201   1.791   6.046  0.2708  0.5107 -0.0865
  174MOL   C20438610   3.323   1.589   6.117 -0.4318  0.4560  0.5865
  174MOL   H20538611   3.227   1.695   5.654  1.9079  0.3306  0.1403
  174MOL   H20638612   3.226   1.829   5.761  0.3738  0.3121  1.4945
  174MOL   H20738613   3.303   1.556   5.844 -1.8267  0.0219 -1.3482
  174MOL   H20838614   3.405   1.634   6.173  0.2612 -1.0292  0.7737
  174MOL   H20938615   3.252   1.546   6.188  0.4611 -3.6762 -0.8627
  174MOL   H21038616   3.359   1.504   6.060  0.2886  1.7572 -0.9445
  174MOL   C21138617   3.438   1.730   5.832 -0.2199  0.6524 -0.2160
  174MOL   C21238618   3.560   1.658   5.885 -0.2933  0.1660 -0.1819
  174MOL   C21338619   3.601   1.529   5.820  0.9922 -0.0369 -0.1491
  174MOL   O21438620   3.528   1.469   5.745  0.1354  0.3438 -0.7416
  174MOL   C21538621   3.725   1.464   5.866 -0.6091  0.1647  0.4400
  174MOL   H21638622   3.452   1.739   5.725  0.7960 -0.7144 -0.2164
  174MOL   H21738623   3.439   1.836   5.854 -1.2280  0.4403  0.9180
  174MOL   H21838624   3.538   1.640   5.991  2.0795  0.0973  0.3266
  174MOL   H21938625   3.762   1.527   5.947  0.9005  0.9035 -0.7996
  174MOL   H22038626   3.704   1.359   5.886 -0.4003 -0.0925 -0.6734
  174MOL   H22138627   3.794   1.464   5.782  1.7168  0.1138  2.2831
  174MOL   H22238628   3.645   1.726   5.894 -0.3927  0.0254  2.2772
  175MOL     C138629   5.129   4.823   5.445  0.3743  0.2418 -0.5954
  175MOL     C238630   5.011   4.739   5.410 -0.0830  0.3977  0.2874
  175MOL     C338631   4.916   4.824   5.322 -0.5964  0.3017 -0.3174
  175MOL     O438632   4.877   4.787   5.209  0.2987 -0.0665  0.3018
  175MOL     C538633   4.863   4.954   5.380  1.0284 -0.4351 -0.9401
  175MOL     H638634   5.163   4.824   5.549  1.9215  2.9831 -1.0711
  175MOL     H738635   5.116   4.931   5.432  0.0349  0.8130  3.6384
  175MOL     H838636   4.949   4.726   5.499 -2.0746  0.9661 -0.9952
  175MOL     H938637   4.946   5.025   5.374 -0.1617  0.9249 -1.6687
  175MOL    H1038638   4.782   4.981   5.312 -0.8139 -1.8819  0.6552
  175MOL    H1138639   4.819   4.925   5.475  1.0777  3.3978  0.3633
  175MOL    H1238640   5.213   4.790   5.384  1.0927 -0.2135  0.6113
  175MOL    C1338641   5.048   4.601   5.349  0.1124  0.7970  0.4151
  175MOL    C1438642   4.936   4.506   5.341 -0.7875 -0.2666 -0.4470
  175MOL    C1538643   4.886   4.449   5.483  0.8140 -0.0090  0.5268
  175MOL    O1638644   4.935   4.353   5.535 -0.3391 -0.0118 -0.2769
  175MOL    C1738645   4.782   4.532   5.559  0.1492  0.0191 -0.8134
  175MOL    H1838646   5.087   4.626   5.250  0.0784 -1.0803 -0.0866
  175MOL    H1938647   5.132   4.559   5.403  0.0186  2.1290  1.6186
  175MOL    H2038648   4.848   4.557   5.302  0.2555  1.7361 -0.2152
  175MOL    H2138649   4.767   4.634   5.524 -0.4716  0.1375 -0.2254
  175MOL    H2238650   4.688   4.478   5.567 -0.1089  0.4750 -0.7347
  175MOL    H2338651   4.808   4.536   5.665  0.6587  0.8283 -0.9697
  175MOL    C2438652   4.974   4.385   5.249  0.0551 -0.2456  0.4672
  175MOL    C2538653   4.865   4.289   5.202  0.7107 -0.4544  0.3299
  175MOL    C2638654   4.745   4.366   5.136  0.0151  0.0030  0.2394
  175MOL    O2738655   4.628   4.355   5.171 -0.0657 -0.2001 -0.2253
  175MOL    C2838656   4.776   4.465   5.024  0.8251  0.1828  0.0972
  175MOL    H2938657   5.026   4.430   5.164 -1.4279 -1.1516 -0.9473
  175MOL    H3038658   5.059   4.337   5.298  0.2255 -0.1672  0.2472
  175MOL    H3138659   4.822   4.248   5.293 -0.2412  0.6960  0.4096
  175MOL    H3238660   4.818   4.405   4.943  0.2133 -2.4169  1.6757
  175MOL    H3338661   4.684   4.508   4.984  2.0096 -0.0410 -2.9947
  175MOL    H3438662   4.834   4.554   5.050  1.3190  0.1468 -0.8402
  175MOL    C3538663   4.921   4.162   5.128  0.5835 -0.6413 -0.4563
  175MOL    C3638664   4.814   4.055   5.093 -0.2794 -0.0457 -0.5761
  175MOL    C3738665   4.854   3.952   4.981 -0.4480  0.1409  0.2711
  175MOL    O3838666   4.932   3.860   5.001  0.2531 -0.5827 -0.1405
  175MOL    C3938667   4.769   3.964   4.855 -0.1921  0.5503 -0.0787
  175MOL    H4038668   5.000   4.117   5.190 -0.4254 -3.2105 -0.9584
  175MOL    H4138669   4.966   4.212   5.042  1.8732 -1.5220 -0.3175
  175MOL    H4238670   4.733   4.117   5.054 -1.2119 -0.7766  0.1865
  175MOL    H4338671   4.713   3.878   4.819  1.6903 -0.7524  0.0748
  175MOL    H4438672   4.837   4.009   4.782  0.5432 -0.3198  0.0698
  175MOL    H4538673   4.690   4.037   4.872  0.6133  0.9376  2.1252
  175MOL    C4638674   4.772   3.981   5.222  0.2618  0.5482 -0.3757
  175MOL    C4738675   4.646   3.888   5.215 -0.0379  0.1212  0.1605
  175MOL    C4838676   4.678   3.738   5.224 -0.0986  0.8100  0.1633
  175MOL    O4938677   4.703   3.680   5.335  0.1477 -0.1751  0.6854
  175MOL    C5038678   4.691   3.667   5.089 -0.3543  0.1473  0.2801
  175MOL    H5138679   4.747   4.059   5.293 -0.5223 -0.2285  0.2019
  175MOL    H5238680   4.853   3.936   5.278  2.0066  1.6985 -1.9154
  175MOL    H5338681   4.599   3.896   5.117 -1.5873 -0.0981  0.8685
  175MOL    H5438682   4.743   3.572   5.103  0.3131  0.3804 -0.5740
  175MOL    H5538683   4.590   3.648   5.051 -0.2347  0.8918 -0.4108
  175MOL    H5638684   4.756   3.718   5.018 -0.1681 -0.6938 -0.1693
  175MOL    C5738685   4.543   3.930   5.323 -0.5234 -0.3987  0.2790
  175MOL    C5838686   4.406   3.855   5.324  0.1699  1.0129 -0.0110
  175MOL    C5938687   4.350   3.860   5.470  0.1584  0.4961  0.6647
  175MOL    O6038688   4.272   3.944   5.510 -0.2743  0.4068 -0.1118
  175MOL    C6138689   4.411   3.755   5.562  0.1958 -0.0743 -0.3070
  175MOL    H6238690   4.516   4.035   5.310 -0.2057 -0.3649 -0.1205
  175MOL    H6338691   4.601   3.931   5.415 -2.1706  1.5071  1.3604
  175MOL    H6438692   4.426   3.749   5.304 -2.5732  0.2311  1.1035
  175MOL    H6538693   4.520   3.754   5.564  0.1827 -0.0662  0.5358
  175MOL    H6638694   4.380   3.798   5.656 -0.3646  3.4595 -2.0465
  175MOL    H6738695   4.381   3.651   5.549 -0.8003 -0.0976  2.0473
  175MOL    C6838696   4.308   3.913   5.218  0.4106  0.1719 -0.1290
  175MOL    C6938697   4.195   3.809   5.174 -0.3823  0.1222  0.4541
  175MOL    C7038698   4.250   3.727   5.048  0.2946  0.4535 -0.1956
  175MOL    O7138699   4.365   3.716   5.013  0.1999 -0.9701  0.2863
  175MOL    C7238700   4.142   3.655   4.970  0.3664 -0.4583  0.1103
  175MOL    H7338701   4.255   3.999   5.261  0.1063 -0.8860  1.6413
  175MOL    H7438702   4.354   3.954   5.128  0.3998  1.6755  0.5287
  175MOL    H7538703   4.191   3.743   5.260  3.3136  1.0232  1.3719
  175MOL    H7638704   4.097   3.719   4.894  0.3195  3.3649  3.2114
  175MOL    H7738705   4.183   3.564   4.927 -0.4990  0.0088 -1.7659
  175MOL    H7838706   4.064   3.621   5.038 -0.2928 -0.5466 -0.6893
  175MOL    C7938707   4.062   3.874   5.155  0.5492  0.2017  0.3204
  175MOL    C8038708   3.993   3.918   5.284  0.3673 -0.1631  0.9692
  175MOL    C8138709   3.921   3.797   5.355  0.2957 -0.1639  0.0035
  175MOL    O8238710   3.870   3.710   5.292  0.6777 -0.3796 -0.3241
  175MOL    C8338711   3.929   3.788   5.509  0.2114  0.4230  0.6966
  175MOL    H8438712   3.991   3.813   5.099  0.9479  1.8211 -2.0304
  175MOL    H8538713   4.078   3.961   5.091 -4.3236  1.6791  0.9360
  175MOL    H8638714   4.072   3.961   5.346  1.7629 -0.1650 -0.7901
  175MOL    H8738715   3.860   3.714   5.550  3.0081 -1.7811  1.5882
  175MOL    H8838716   3.912   3.890   5.544  2.1272  0.7046  0.8405
  175MOL    H8938717   4.028   3.753   5.540 -1.1770 -1.8405  2.7693
  175MOL    C9038718   3.894   4.026   5.244  0.6479 -1.0797 -0.0397
  175MOL    C9138719   3.845   4.114   5.360  0.5502 -0.1207 -0.7976
  175MOL    C9238720   3.950   4.208   5.415 -0.2973  0.4049  0.0217
  175MOL    O9338721   4.006   4.295   5.348 -0.7235  0.1228  0.2320
  175MOL    C9438722   3.993   4.185   5.557  1.0769  0.2530  0.2518
  175MOL    H9538723   3.926   4.097   5.168  1.6006  0.6667  1.9241
  175MOL    H9638724   3.809   3.976   5.197 -0.4451 -0.1863  0.9433
  175MOL    H9738725   3.798   4.048   5.433  0.2244  0.6363 -0.3208
  175MOL    H9838726   3.900   4.182   5.614 -0.3885  1.3336 -2.0017
  175MOL    H9938727   4.048   4.093   5.572  1.9944  0.8228  0.4643
  175MOL   H10038728   4.052   4.272   5.588  0.5836  0.4269  0.7310
  175MOL   C10138729   3.739   4.207   5.297 -0.0811 -0.0067 -0.4431
  175MOL   C10238730   3.643   4.266   5.406  0.1233 -0.2555  0.4829
  175MOL   C10338731   3.554   4.153   5.458 -0.7145  0.0512  0.2264
  175MOL   O10438732   3.562   4.131   5.582  0.1808  0.7042  0.0428
  175MOL   C10538733   3.453   4.081   5.361 -0.1560  0.1762  0.0311
  175MOL   H10638734   3.785   4.296   5.252 -0.1589  0.4900  0.4492
  175MOL   H10738735   3.680   4.147   5.228 -0.8796  2.7835 -2.2982
  175MOL   H10838736   3.706   4.301   5.488  3.2811 -0.0220 -1.9703
  175MOL   H10938737   3.445   4.128   5.263  1.6593  0.9143  0.2215
  175MOL   H11038738   3.477   3.975   5.347  3.5739  0.9015  0.4937
  175MOL   H11138739   3.357   4.089   5.413 -0.9655  0.4842 -1.4817
  175MOL   C11238740   3.554   4.384   5.352 -0.8051  0.5472 -0.4515
  175MOL   C11338741   3.613   4.517   5.403 -0.5520  0.6702 -0.0196
  175MOL   C11438742   3.546   4.554   5.542 -0.2041  0.1267  0.0252
  175MOL   O11538743   3.422   4.550   5.555 -0.4465  0.3321  0.4229
  175MOL   C11638744   3.639   4.593   5.653  0.5393 -0.5298 -0.0636
  175MOL   H11738745   3.451   4.359   5.380  0.1982 -0.8865  2.1252
  175MOL   H11838746   3.552   4.380   5.243 -0.7800 -2.1853 -0.3865
  175MOL   H11938747   3.717   4.493   5.429 -0.2211  0.9688 -1.0614
  175MOL   H12038748   3.594   4.660   5.727  0.0674  1.3167 -1.9977
  175MOL   H12138749   3.670   4.497   5.694  1.7078  1.0650  2.9364
  175MOL   H12238750   3.727   4.642   5.613  0.0677 -0.2254 -0.7420
  175MOL   C12338751   3.606   4.628   5.296  1.0032 -0.6381  0.1302
  175MOL   C12438752   3.666   4.772   5.324 -0.0704  0.4023 -0.4590
  175MOL   C12538753   3.566   4.862   5.392 -0.6023 -0.2406 -0.1436
  175MOL   O12638754   3.560   4.873   5.517  0.2124 -0.9504  0.3228
  175MOL   C12738755   3.456   4.928   5.303  0.4820  0.9228 -0.0304
  175MOL   H12838756   3.504   4.633   5.257  0.4603  0.7478  1.6600
  175MOL   H12938757   3.664   4.607   5.207 -0.6971 -2.4753 -0.5631
  175MOL   H13038758   3.751   4.770   5.393 -0.4848  0.9496  0.0707
  175MOL   H13138759   3.395   4.989   5.370  1.0326  0.0822  1.2742
  175MOL   H13238760   3.394   4.844   5.271  0.1132  1.5904 -1.0734
  175MOL   H13338761   3.494   4.979   5.215  0.3634 -1.5025 -1.5459
  175MOL   C13438762   3.728   4.845   5.202  0.0929 -0.3730 -0.0548
  175MOL   C13538763   3.881   4.825   5.171 -0.3081  0.0847  1.2203
  175MOL   C13638764   3.892   4.724   5.060  0.1768 -0.1859  0.6206
  175MOL   O13738765   3.815   4.736   4.959  0.0434  0.4381 -0.2267
  175MOL   C13838766   3.974   4.597   5.072 -0.3344 -0.3620 -0.7552
  175MOL   H13938767   3.722   4.952   5.222 -0.0461 -0.5824  1.0334
  175MOL   H14038768   3.656   4.842   5.120  1.2474 -2.2030 -1.0432
  175MOL   H14138769   3.935   4.770   5.249  0.9180  0.8530  0.9251
  175MOL   H14238770   3.938   4.528   5.148 -1.9492  0.1825 -1.0182
  175MOL   H14338771   4.080   4.612   5.093 -0.0909  0.8338 -2.6576
  175MOL   H14438772   3.972   4.549   4.974 -2.7272 -3.4587  0.7712
  175MOL   C14538773   3.976   4.948   5.160  0.0379 -0.2606  0.0917
  175MOL   C14638774   3.932   5.076   5.078  0.4915  1.1006 -0.1279
  175MOL   C14738775   4.042   5.182   5.090 -0.3247 -0.5821  0.0371
  175MOL   O14838776   4.144   5.176   5.028  0.0564 -0.1265 -0.3321
  175MOL   C14938777   4.011   5.311   5.178  0.0061  0.9395 -0.3558
  175MOL   H15038778   4.072   4.909   5.127  0.7649  0.6241  1.1229
  175MOL   H15138779   3.996   4.992   5.258  0.1472  1.4886 -0.7073
  175MOL   H15238780   3.853   5.118   5.140  1.3772  1.4882  0.7496
  175MOL   H15338781   3.916   5.303   5.231  0.5223 -0.8599  0.3240
  175MOL   H15438782   4.088   5.332   5.252  2.0199 -1.4806 -1.6746
  175MOL   H15538783   3.994   5.398   5.115 -1.4141  1.5369  0.8171
  175MOL   C15638784   3.892   5.052   4.929  0.0389  0.2425 -0.2459
  175MOL   C15738785   3.865   5.173   4.836  0.2111  0.3633  0.1710
  175MOL   C15838786   3.742   5.255   4.877  0.1062  0.4501  0.1380
  175MOL   O15938787   3.645   5.196   4.924 -0.2771  0.3994  0.2845
  175MOL   C16038788   3.749   5.405   4.849  0.5122 -0.2248 -0.8212
  175MOL   H16138789   3.972   4.996   4.880  0.2191  0.3869 -0.1148
  175MOL   H16238790   3.800   4.993   4.924  0.3823 -0.3023 -0.2816
  175MOL   H16338791   3.947   5.245   4.832 -0.4256  1.0240 -1.3835
  175MOL   H16438792   3.753   5.411   4.740  3.2531 -1.3231 -0.7985
  175MOL   H16538793   3.839   5.459   4.879 -0.1315 -0.2982  1.2670
  175MOL   H16638794   3.667   5.467   4.887  1.1848  0.5227 -0.5767
  175MOL   C16738795   3.843   5.132   4.686 -0.1335 -0.2220  0.1226
  175MOL   C16838796   3.962   5.143   4.589  0.9253  0.3945 -0.4479
  175MOL   C16938797   4.083   5.056   4.637  0.6637 -0.6458  0.7676
  175MOL   O17038798   4.188   5.109   4.665  0.0448 -0.4730 -0.5361
  175MOL   C17138799   4.072   4.908   4.633  0.1169 -0.0212 -0.4951
  175MOL   H17238800   3.790   5.038   4.668 -0.0916 -0.0062 -1.2316
  175MOL   H17338801   3.767   5.196   4.641  1.9254  1.8515 -0.4897
  175MOL   H17438802   3.935   5.111   4.488  1.2978  0.2405 -0.5023
  175MOL   H17538803   4.078   4.875   4.529 -0.4422 -0.4369 -0.4005
  175MOL   H17638804   3.981   4.865   4.676 -0.1283  1.1722  0.2163
  175MOL   H17738805   4.158   4.878   4.693  0.4106  3.3560  0.9167
  175MOL   C17838806   4.005   5.293   4.589  0.0562  0.4950  0.2811
  175MOL   C17938807   4.041   5.345   4.444 -0.5211 -0.8547 -0.4964
  175MOL   C18038808   4.174   5.425   4.421 -0.0637 -0.1475 -0.7502
  175MOL   O18138809   4.183   5.533   4.356 -0.3161 -0.8921 -0.2028
  175MOL   C18238810   4.304   5.364   4.474 -0.2098  0.0868 -0.1006
  175MOL   H18338811   3.924   5.357   4.624 -1.5767  0.2542 -2.9898
  175MOL   H18438812   4.078   5.318   4.666 -0.4573 -0.5683  1.1207
  175MOL   H18538813   4.047   5.252   4.388  1.7072 -1.2460  0.3408
  175MOL   H18638814   4.278   5.268   4.518  2.9733 -0.2413  1.2404
  175MOL   H18738815   4.353   5.429   4.547 -1.9790  0.7298  0.5324
  175MOL   H18838816   4.375   5.329   4.399  0.3935 -1.7372  1.2982
  175MOL   C18938817   3.924   5.429   4.386 -0.6904  0.4403  0.3810
  175MOL   C19038818   3.798   5.340   4.368 -0.2633  0.3077 -0.5472
  175MOL   C19138819   3.673   5.421   4.380 -0.0019  0.2602 -0.0276
  175MOL   O19238820   3.594   5.402   4.471  0.6743  0.0084 -0.2029
  175MOL   C19338821   3.641   5.523   4.274  0.2522 -0.5066  0.3251
  175MOL   H19438822   3.913   5.513   4.455  1.3818  1.1510 -0.1034
  175MOL   H19538823   3.946   5.481   4.292 -0.1040  2.0936  1.4129
  175MOL   H19638824   3.797   5.266   4.448 -0.6453  1.1668  0.2506
  175MOL   H19738825   3.587   5.476   4.191  4.3137  1.7641 -3.8437
  175MOL   H19838826   3.585   5.606   4.318  0.1261  0.0336 -0.8269
  175MOL   H19938827   3.726   5.573   4.228  0.9604 -1.2121  0.8614
  175MOL   C20038828   3.806   5.255   4.231 -0.7325 -0.8547 -0.0434
  175MOL   C20138829   3.691   5.156   4.208  0.0809  0.7025  0.5823
  175MOL   C20238830   3.700   5.038   4.305 -0.0207 -0.1616  0.4491
  175MOL   O20338831   3.793   4.960   4.295 -0.5644  0.2570 -0.4123
  175MOL   C20438832   3.598   5.035   4.422  0.0632  0.8472  0.0011
  175MOL   H20538833   3.817   5.327   4.149 -0.3363 -0.5855  0.2434
  175MOL   H20638834   3.888   5.183   4.232  0.5395  0.5807  1.5968
  175MOL   H20738835   3.593   5.204   4.216 -0.2279  0.0857  0.5003
  175MOL   H20838836   3.616   5.129   4.473 -0.2584  0.2756  1.1876
  175MOL   H20938837   3.498   5.031   4.379  0.3439  2.8817 -0.8722
  175MOL   H21038838   3.608   4.948   4.487  0.1898  0.7754 -0.1107
  175MOL   C21138839   3.682   5.111   4.062 -0.6390 -0.1076 -0.0507
  175MOL   C21238840   3.570   5.009   4.024 -0.7845  0.2528 -0.3667
  175MOL   C21338841   3.566   4.976   3.878  0.3705  0.0403  0.6009
  175MOL   O21438842   3.656   4.917   3.822  0.2135  0.0241  0.0399
  175MOL   C21538843   3.434   4.986   3.803  0.1112 -0.8877 -0.0641
  175MOL   H21638844   3.654   5.203   4.010  2.6071  2.1605  1.9651
  175MOL   H21738845   3.781   5.083   4.025 -0.0518 -0.3052  1.6056
  175MOL   H21838846   3.469   5.027   4.062 -0.7568 -1.9940  0.8457
  175MOL   H21938847   3.355   4.986   3.878  1.6731  0.9110  1.6431
  175MOL   H22038848   3.418   5.070   3.735 -0.0104 -0.9373 -0.0982
  175MOL   H22138849   3.414   4.903   3.735 -2.4073  0.5719 -1.2177
  175MOL   H22238850   3.602   4.912   4.061 -2.2986 -0.7755 -1.6291
  176MOL     C138851   0.272   1.472   5.334  0.4165  0.1587  0.1478
  176MOL     C238852   0.361   1.532   5.222 -0.1318 -0.5869  0.6525
  176MOL     C338853   0.507   1.483   5.228 -0.1284  0.3489 -0.0791
  176MOL     O438854   0.608   1.551   5.194  0.1702  0.1886 -0.3591
  176MOL     C538855   0.531   1.334   5.260  0.0380  0.5261 -0.2623
  176MOL     H638856   0.218   1.380   5.314 -0.7825  0.6178  1.2684
  176MOL     H738857   0.186   1.536   5.352 -0.5442 -1.6956  2.4572
  176MOL     H838858   0.366   1.640   5.238 -1.5466  0.2113 -3.6585
  176MOL     H938859   0.513   1.318   5.367 -0.3979  2.4954 -0.0107
  176MOL    H1038860   0.476   1.268   5.194 -0.7169  0.3110  0.5691
  176MOL    H1138861   0.637   1.312   5.249  0.5769  2.7171  0.3281
  176MOL    H1238862   0.323   1.469   5.431  2.4729  2.6221 -0.7751
  176MOL    C1338863   0.287   1.506   5.089  0.0634 -0.1995  0.0908
  176MOL    C1438864   0.358   1.561   4.968 -0.2683 -0.5995 -0.1285
  176MOL    C1538865   0.383   1.710   4.986 -0.6907 -0.5266  0.8283
  176MOL    O1638866   0.292   1.793   5.015  0.2510  0.4096  0.3247
  176MOL    C1738867   0.523   1.766   4.984  0.4024 -0.2247  0.0887
  176MOL    H1838868   0.273   1.401   5.065 -0.2716  0.0912 -0.9850
  176MOL    H1938869   0.185   1.545   5.095  0.1474  0.0546 -0.1499
  176MOL    H2038870   0.456   1.514   4.960 -0.1683 -0.7652  1.8204
  176MOL    H2138871   0.531   1.860   4.929  0.7469  0.7984  1.8324
  176MOL    H2238872   0.552   1.776   5.089 -0.9044  0.3554  0.4047
  176MOL    H2338873   0.585   1.690   4.937 -0.2740 -1.7746  1.6559
  176MOL    C2438874   0.279   1.525   4.848 -0.5286 -0.2811 -0.3421
  176MOL    C2538875   0.345   1.559   4.705 -0.0372 -0.1535  0.3711
  176MOL    C2638876   0.483   1.497   4.683  0.3525 -0.1437 -0.5156
  176MOL    O2738877   0.506   1.384   4.718 -0.3383  0.5536  0.3165
  176MOL    C2838878   0.580   1.579   4.601 -0.7540 -0.2101 -0.0236
  176MOL    H2938879   0.266   1.417   4.856  0.8638 -0.4513 -0.1945
  176MOL    H3038880   0.180   1.570   4.849 -1.8893 -3.1369 -1.2220
  176MOL    H3138881   0.353   1.668   4.695  2.3015 -0.5374 -3.0545
  176MOL    H3238882   0.661   1.523   4.552  0.9579  1.1679  1.1811
  176MOL    H3338883   0.531   1.618   4.512  0.2081  2.1534  0.4561
  176MOL    H3438884   0.606   1.671   4.653  2.3604 -0.0914 -1.6088
  176MOL    C3538885   0.260   1.511   4.591  0.3068  0.5470  0.2741
  176MOL    C3638886   0.129   1.591   4.574 -0.3515 -0.2158  0.5777
  176MOL    C3738887   0.156   1.721   4.511 -0.1641 -0.5314  0.0945
  176MOL    O3838888   0.214   1.734   4.406 -0.3922 -0.4217 -0.4309
  176MOL    C3938889   0.128   1.843   4.603 -0.2682  0.3018 -0.5835
  176MOL    H4038890   0.236   1.407   4.614  1.2493  0.2687  0.0165
  176MOL    H4138891   0.317   1.508   4.498 -0.6652  0.4163 -0.3331
  176MOL    H4238892   0.080   1.596   4.672 -1.0441 -3.5291  0.4600
  176MOL    H4338893   0.127   1.811   4.707 -1.8271 -1.9513 -1.2521
  176MOL    H4438894   0.029   1.885   4.585 -1.4337 -2.5737 -1.1719
  176MOL    H4538895   0.206   1.916   4.584  0.5324 -0.2767  0.4040
  176MOL    C4638896   0.023   1.514   4.494  0.3541  0.3267 -0.1956
  176MOL    C4738897   7.827   1.379   4.554  0.1045  0.3111 -0.5232
  176MOL    C4838898   7.764   1.396   4.689  0.5667  0.8276  0.4266
  176MOL    O4938899   7.712   1.498   4.742 -0.3560 -0.4016  0.2414
  176MOL    C5038900   7.772   1.275   4.778 -0.6045 -0.2684  0.1438
  176MOL    H5138901   0.066   1.489   4.397  1.5518 -3.9490  1.3399
  176MOL    H5238902   7.792   1.572   4.470  0.7619  1.3072  0.6444
  176MOL    H5338903   0.055   1.313   4.564 -0.9612 -0.8251  1.3146
  176MOL    H5438904   7.671   1.234   4.776 -0.6718 -0.2036  1.5957
  176MOL    H5538905   7.841   1.197   4.745 -0.3394 -0.1844  0.4892
  176MOL    H5638906   7.789   1.315   4.878  0.0127  0.6934 -0.3408
  176MOL    C5738907   7.719   1.322   4.462  0.0061 -0.8183  0.0283
  176MOL    C5838908   7.785   1.246   4.340 -0.2223 -0.4948  0.7592
  176MOL    C5938909   7.829   1.104   4.382 -0.0434  0.0045 -0.0941
  176MOL    O6038910   7.758   1.011   4.415 -0.5197  0.6567  0.1880
  176MOL    C6138911   0.121   1.081   4.384  0.5465  0.7276 -0.4123
  176MOL    H6238912   7.650   1.401   4.433 -0.1716 -0.9783  0.0100
  176MOL    H6338913   7.647   1.249   4.501 -1.3648 -0.2038 -1.3069
  176MOL    H6438914   0.019   1.291   4.301  0.0974 -1.1136  0.7915
  176MOL    H6538915   0.165   1.180   4.393  0.2462  0.8936 -0.7491
  176MOL    H6638916   0.144   1.015   4.468  1.4932  2.0637  0.3955
  176MOL    H6738917   0.135   1.041   4.284  0.1929  0.3968 -0.3305
  176MOL    C6838918   7.691   1.249   4.221  0.1939 -0.4193 -0.2818
  176MOL    C6938919   7.735   1.171   4.097  0.5856 -0.5294 -1.0136
  176MOL    C7038920   7.831   1.249   4.015  0.3416 -0.1348  0.6401
  176MOL    O7138921   7.798   1.298   3.908 -0.0944 -0.5064  0.4770
  176MOL    C7238922   0.116   1.271   4.074  0.4720 -0.2344  0.2932
  176MOL    H7338923   7.600   1.203   4.260  0.8665 -0.8437  0.8038
  176MOL    H7438924   7.664   1.352   4.198 -1.1320 -0.7151 -0.0950
  176MOL    H7538925   7.790   1.087   4.139  2.5006  1.3921  0.4054
  176MOL    H7638926   0.190   1.293   3.998  2.4131 -0.9120  1.9207
  176MOL    H7738927   0.114   1.358   4.140 -0.7793 -1.1413  1.4931
  176MOL    H7838928   0.139   1.178   4.126 -1.9812 -1.7988 -1.3403
  176MOL    C7938929   7.610   1.127   4.016  0.5977  0.1138 -0.1528
  176MOL    C8038930   7.641   1.008   3.920 -0.0660  0.4912 -0.0110
  176MOL    C8138931   7.528   0.984   3.819 -0.3122 -0.4741  0.2637
  176MOL    O8238932   7.477   0.873   3.803  0.8580  0.3823 -0.2253
  176MOL    C8338933   7.483   1.100   3.733  0.0257  0.5680  0.5406
  176MOL    H8438934   7.570   1.217   3.969 -0.7033 -0.3788  0.0006
  176MOL    H8538935   7.524   1.112   4.081 -0.5584 -0.8459 -1.8778
  176MOL    H8638936   7.722   1.048   3.860 -0.2944  0.6367 -0.2256
  176MOL    H8738937   7.525   1.195   3.766 -0.3156  0.5590  0.9936
  176MOL    H8838938   7.378   1.109   3.706  0.1600 -0.6257 -0.4482
  176MOL    H8938939   7.526   1.065   3.639 -1.2164  0.5351 -0.0240
  176MOL    C9038940   7.690   0.881   3.993  0.4974  0.4277 -0.1503
  176MOL    C9138941   7.586   0.799   4.078 -0.0228  0.4683 -0.3285
  176MOL    C9238942   7.623   0.644   4.070  0.1261  0.1523 -0.2821
  176MOL    O9338943   7.635   0.584   4.176 -0.2161  0.5911 -0.4828
  176MOL    C9438944   7.638   0.565   3.938  0.0794  0.0479  0.1536
  176MOL    H9538945   7.737   0.817   3.918 -0.4211 -0.5266  0.0786
  176MOL    H9638946   7.777   0.902   4.056  1.1468 -0.5049 -0.7127
  176MOL    H9738947   7.487   0.802   4.031 -0.3459 -1.1223  0.2012
  176MOL    H9838948   7.645   0.630   3.851 -1.0623 -0.5435 -0.3921
  176MOL    H9938949   7.736   0.521   3.959  1.0993  1.6795 -1.0934
  176MOL   H10038950   7.564   0.485   3.927 -1.6513  1.4917  1.1088
  176MOL   C10138951   7.558   0.852   4.220 -0.5667 -0.7638 -0.1738
  176MOL   C10238952   7.412   0.850   4.284 -0.0514 -0.4720  0.2270
  176MOL   C10338953   7.324   0.952   4.213 -0.0286 -0.2052 -0.2077
  176MOL   O10438954   7.316   1.071   4.261  0.5089  0.2791 -0.1116
  176MOL   C10538955   7.265   0.913   4.085  0.4270 -0.8845  0.7637
  176MOL   H10638956   7.630   0.809   4.290  0.4250 -0.2625 -0.8870
  176MOL   H10738957   7.577   0.959   4.228 -0.3146 -1.0070  3.0580
  176MOL   H10838958   7.369   0.751   4.267 -0.0993 -0.4558  0.2532
  176MOL   H10938959   7.160   0.945   4.084  0.4854 -0.7061  0.4442
  176MOL   H11038960   7.321   0.972   4.013 -0.1129 -0.9190  0.3080
  176MOL   H11138961   7.272   0.807   4.063  0.6113 -0.5111 -1.0127
  176MOL   C11238962   7.408   0.871   4.437  0.3837 -0.8651 -0.1570
  176MOL   C11338963   7.496   0.776   4.526 -0.5613  0.3310 -0.2112
  176MOL   C11438964   7.421   0.637   4.521 -0.1752 -0.6862  0.5100
  176MOL   O11538965   7.311   0.623   4.573  0.4472  0.3759 -0.0616
  176MOL   C11638966   7.487   0.522   4.450  0.2950  0.7022  0.1723
  176MOL   H11738967   7.305   0.861   4.470  0.5349 -0.0608  0.6072
  176MOL   H11838968   7.421   0.975   4.468  0.3569 -0.5613 -1.1454
  176MOL   H11938969   7.596   0.776   4.484 -0.0570 -1.6764  0.8996
  176MOL   H12038970   7.489   0.437   4.519  2.8384  0.8477  0.3055
  176MOL   H12138971   7.429   0.499   4.360  0.8655 -1.5117  0.3405
  176MOL   H12238972   7.591   0.535   4.421 -0.0379 -0.4680 -1.6453
  176MOL   C12338973   7.513   0.832   4.668 -0.1143 -0.0678  0.5004
  176MOL   C12438974   7.609   0.751   4.761 -0.0549 -0.4133 -1.1158
  176MOL   C12538975   7.607   0.815   4.898 -0.0310  0.2454  0.1395
  176MOL   O12638976   7.702   0.888   4.925  0.0583 -0.2293 -0.6264
  176MOL   C12738977   7.502   0.791   5.007  0.8112 -0.3892  0.4378
  176MOL   H12838978   7.416   0.842   4.715 -0.9613 -1.2111 -0.9633
  176MOL   H12938979   7.555   0.933   4.662 -1.2760  0.4324  0.6312
  176MOL   H13038980   7.566   0.652   4.779  0.4869 -0.2947  1.0351
  176MOL   H13138981   7.458   0.879   5.053  0.9351 -0.7126  1.1815
  176MOL   H13238982   7.560   0.747   5.089 -1.1376 -2.4512  0.7431
  176MOL   H13338983   7.425   0.723   4.971  0.6236  1.0084 -1.9219
  176MOL   C13438984   7.752   0.733   4.696  0.3897  0.9482  0.2343
  176MOL   C13538985   7.837   0.635   4.778  0.7623  0.1747 -0.0520
  176MOL   C13638986   7.767   0.498   4.797  0.1126  0.5133  0.2963
  176MOL   O13738987   7.692   0.450   4.716 -0.1693  0.2276 -0.1928
  176MOL   C13838988   7.801   0.421   4.921  0.3133  0.7510 -0.3977
  176MOL   H13938989   7.800   0.830   4.687 -1.0937  1.7576  0.9138
  176MOL   H14038990   7.748   0.685   4.598  1.6420  1.1965  0.0576
  176MOL   H14138991   7.847   0.682   4.876  0.9287 -2.5941  1.3253
  176MOL   H14238992   0.025   0.455   4.983 -0.1722  0.2625  0.5252
  176MOL   H14338993   7.838   0.324   4.886  2.9167  2.0841 -1.3856
  176MOL   H14438994   7.707   0.401   4.974 -0.4235  1.0313 -1.5746
  176MOL   C14538995   0.127   0.625   4.730  0.1709  0.2246 -0.3206
  176MOL   C14638996   0.159   0.558   4.592  0.4381 -0.3779 -0.4450
  176MOL   C14738997   0.183   0.664   4.481  0.0661  0.4759 -0.1156
  176MOL   O14838998   0.298   0.714   4.475  0.1106 -0.2714 -0.6540
  176MOL   C14938999   0.088   0.690   4.369 -0.5798 -0.1611  0.0203
  176MOL   H15039000   0.189   0.591   4.813  2.0817  1.1259 -1.3335
  176MOL   H15139001   0.158   0.729   4.722  0.4224  0.0288 -2.1959
  176MOL   H15239002   0.067   0.509   4.562  0.2674 -0.2292 -0.1730
  176MOL   H15339003   0.118   0.618   4.293  2.8586  2.3257 -1.0805
  176MOL   H15439004   7.843   0.671   4.401 -0.2402 -1.3436  0.4517
  176MOL   H15539005   0.096   0.795   4.342  1.5757  0.1210  1.5872
  176MOL   C15639006   0.277   0.451   4.608 -0.1200  0.5860  0.3418
  176MOL   C15739007   0.267   0.330   4.518 -0.3076 -0.1356 -0.0338
  176MOL   C15839008   0.145   0.243   4.562  0.2997  0.5296 -0.1622
  176MOL   O15939009   0.128   0.208   4.677  0.2079  0.1559 -0.2089
  176MOL   C16039010   0.046   0.210   4.449 -0.0389  0.8009  0.0570
  176MOL   H16139011   0.373   0.495   4.581  0.1378 -0.0866  0.1699
  176MOL   H16239012   0.294   0.418   4.710  1.8306  0.1260 -0.1111
  176MOL   H16339013   0.245   0.358   4.415 -0.8031  0.2503  0.1721
  176MOL   H16439014   0.089   0.203   4.349  1.4115  0.8386  0.6645
  176MOL   H16539015   7.816   0.274   4.458 -0.5574  0.4476 -2.1605
  176MOL   H16639016   0.006   0.114   4.481  1.3263 -0.3939 -1.7353
  176MOL   C16739017   0.391   0.241   4.520 -0.5288 -0.5130 -0.2920
  176MOL   C16839018   0.531   0.298   4.483 -0.2064 -0.2820 -0.0242
  176MOL   C16939019   0.520   0.381   4.362 -0.2040 -0.4586 -0.4553
  176MOL   O17039020   0.461   0.342   4.265 -0.3556 -0.2490 -0.0320
  176MOL   C17139021   0.614   0.504   4.355 -0.6099 -0.2772  0.1917
  176MOL   H17239022   0.394   0.196   4.620 -0.7964  0.3935  0.1353
  176MOL   H17339023   0.363   0.154   4.461  0.3247 -1.9962  1.4271
  176MOL   H17439024   0.559   0.359   4.569  2.5347 -1.8992  0.2812
  176MOL   H17539025   0.706   0.480   4.303 -0.7114 -0.9068  0.2991
  176MOL   H17639026   0.644   0.532   4.456 -0.5574 -2.2733  0.7487
  176MOL   H17739027   0.558   0.588   4.312  2.0046  0.5946 -1.6226
  176MOL   C17839028   0.634   0.182   4.459  0.2962 -0.3436  0.2445
  176MOL   C17939029   0.695   0.112   4.590  1.2960  0.0253 -0.7987
  176MOL   C18039030   0.820   0.178   4.653  0.8164  0.3194  0.1593
  176MOL   O18139031   0.901   0.117   4.721 -0.1933  0.2706 -0.2107
  176MOL   C18239032   0.842   0.322   4.622  0.4514 -0.4431  0.8071
  176MOL   H18339033   0.592   0.103   4.397  0.4534 -0.4431  0.2641
  176MOL   H18439034   0.725   0.209   4.406 -0.9048 -1.5074 -2.4562
  176MOL   H18539035   0.615   0.126   4.663  3.4436  0.8061  1.4879
  176MOL   H18639036   0.931   0.352   4.677 -0.8872  1.6211  1.8957
  176MOL   H18739037   0.768   0.393   4.657  0.3489  0.9132 -2.0248
  176MOL   H18839038   0.850   0.336   4.514  1.7341  0.3905  0.9973
  176MOL   C18939039   0.708   7.812   4.570  0.6470  0.1994  0.3819
  176MOL   C19039040   0.789   7.771   4.443  0.2393 -0.4715 -0.5192
  176MOL   C19139041   0.937   7.823   4.440  0.7079 -0.4191 -1.0341
  176MOL   O19239042   0.964   0.065   4.379 -0.1103  0.4344 -0.3358
  176MOL   C19339043   1.053   7.751   4.500  0.3851  0.0541  0.7058
  176MOL   H19439044   0.757   7.769   4.657  1.8579 -1.8145 -1.2556
  176MOL   H19539045   0.608   7.768   4.563 -0.2830  2.6053 -2.3171
  176MOL   H19639046   0.740   7.809   4.353  0.8581 -0.5225 -0.8761
  176MOL   H19739047   1.077   7.672   4.428 -1.1534  1.7357 -1.7354
  176MOL   H19839048   1.140   7.813   4.519  1.4757 -2.1126  3.1532
  176MOL   H19939049   1.026   7.715   4.599 -1.4601  0.2678  0.2953
  176MOL   C20039050   0.785   7.616   4.421  0.2182  0.1863 -0.0254
  176MOL   C20139051   0.823   7.566   4.277  0.7154 -0.0435  0.3493
  176MOL   C20239052   0.724   7.615   4.167  1.1794  0.5719  0.7852
  176MOL   O20339053   0.626   7.546   4.134 -0.1477 -0.2033 -0.3736
  176MOL   C20439054   0.758   7.741   4.094  0.8467  0.3751  0.2979
  176MOL   H20539055   0.847   7.559   4.490 -1.2156 -0.8209  0.4636
  176MOL   H20639056   0.684   7.583   4.446  0.3086 -0.7993 -0.8927
  176MOL   H20739057   0.921   7.608   4.254  1.1180 -0.6707  0.9067
  176MOL   H20839058   0.825   7.728   4.009  2.1877 -2.2303  1.6601
  176MOL   H20939059   0.669   7.790   4.056 -0.1844 -1.8135 -0.2131
  176MOL   H21039060   0.800   7.817   4.160 -0.6462 -0.3044  2.0588
  176MOL   C21139061   0.838   7.414   4.279  0.3461  0.3015  0.6377
  176MOL   C21239062   0.881   7.370   4.143 -0.3761 -0.5444  0.1722
  176MOL   C21339063   0.909   7.217   4.140 -0.7924  0.2424  0.6758
  176MOL   O21439064   1.025   7.171   4.142  0.1366 -0.2381  0.0413
  176MOL   C21539065   0.780   7.130   4.131  0.3170 -0.2380 -0.0157
  176MOL   H21639066   0.899   7.374   4.360  1.5374  1.4843  0.3427
  176MOL   H21739067   0.737   7.376   4.288  0.4120 -0.2569 -0.8516
  176MOL   H21839068   0.976   7.422   4.137 -1.7124  2.1602  1.5064
  176MOL   H21939069   0.723   7.140   4.223  0.0703  1.5596 -0.3351
  176MOL   H22039070   0.709   7.159   4.052 -1.4803 -0.6890  1.3951
  176MOL   H22139071   0.801   7.025   4.111  0.9504  0.2435 -1.9881
  176MOL   H22239072   0.817   7.404   4.062 -0.5039 -0.2696  0.3875
  177MOL     C139073   4.263   4.376   2.802  0.4651 -0.2535 -0.7242
  177MOL     C239074   4.333   4.381   2.660  0.1691 -0.4531  0.3406
  177MOL     C339075   4.486   4.409   2.675 -0.4182 -0.1140  0.5032
  177MOL     O439076   4.575   4.322   2.675  0.0616  0.7907  0.2109
  177MOL     C539077   4.524   4.554   2.692  1.2922 -0.1433 -0.9358
  177MOL     H639078   4.158   4.399   2.785 -0.3406 -1.4778  2.3341
  177MOL     H739079   4.305   4.450   2.870 -1.1413  0.6034 -0.6440
  177MOL     H839080   4.297   4.459   2.593 -2.2790 -1.5100  0.3817
  177MOL     H939081   4.551   4.572   2.796 -1.4457 -3.0912  0.3853
  177MOL    H1039082   4.611   4.590   2.637  1.1805  1.1205 -0.3078
  177MOL    H1139083   4.432   4.612   2.680  1.8803  1.0486  0.1525
  177MOL    H1239084   4.265   4.285   2.860 -1.0779  0.2135  0.0893
  177MOL    C1339085   4.325   4.245   2.589  0.1313 -0.5956  0.0682
  177MOL    C1439086   4.185   4.191   2.581  0.7425 -0.6466  0.5225
  177MOL    C1539087   4.180   4.041   2.544 -0.1539  0.7947 -0.4547
  177MOL    O1639088   4.177   4.008   2.422  0.0002  0.1588  0.5223
  177MOL    C1739089   4.199   3.941   2.654 -0.3560  0.8100 -0.4724
  177MOL    H1839090   4.378   4.250   2.494 -2.3345  2.1729 -1.2706
  177MOL    H1939091   4.380   4.169   2.644  0.0440 -0.2447  0.6434
  177MOL    H2039092   4.145   4.194   2.682 -0.8563 -1.0878 -0.0842
  177MOL    H2139093   4.285   3.978   2.710 -0.3305  1.2913 -0.8267
  177MOL    H2239094   4.118   3.943   2.727  1.3125  0.5382  1.4324
  177MOL    H2339095   4.217   3.841   2.614  0.3475  1.0579 -0.7811
  177MOL    C2439096   4.101   4.277   2.476  0.5360 -0.0635  0.0316
  177MOL    C2539097   3.946   4.249   2.473  0.1908 -0.7227 -0.1156
  177MOL    C2639098   3.865   4.314   2.579 -0.2308  0.1860 -0.7483
  177MOL    O2739099   3.823   4.426   2.573  0.1801  0.4941  0.1400
  177MOL    C2839100   3.843   4.232   2.708  0.0034 -0.4002  0.0660
  177MOL    H2939101   4.112   4.384   2.493 -1.0140  0.3450 -1.3431
  177MOL    H3039102   4.141   4.255   2.377 -1.3881 -0.1882 -0.7404
  177MOL    H3139103   3.919   4.143   2.482 -0.9189 -0.4145  0.2661
  177MOL    H3239104   3.834   4.300   2.793 -4.0380 -0.6761 -0.0233
  177MOL    H3339105   3.760   4.162   2.700  1.6668 -2.2689 -1.6275
  177MOL    H3439106   3.921   4.156   2.715 -0.5336 -0.8153  1.5659
  177MOL    C3539107   3.890   4.299   2.340  0.3717  0.1419  0.0974
  177MOL    C3639108   3.912   4.214   2.212  0.7219  0.2465  0.7827
  177MOL    C3739109   3.840   4.077   2.209  0.0187  0.1281 -0.4733
  177MOL    O3839110   3.726   4.074   2.246 -0.4413 -0.3937 -0.0798
  177MOL    C3939111   3.901   3.960   2.135  0.2876  0.1769 -0.8187
  177MOL    H4039112   3.936   4.396   2.322  1.3093 -0.0324  1.4288
  177MOL    H4139113   3.784   4.323   2.347 -0.1306 -1.4106 -1.8577
  177MOL    H4239114   4.019   4.195   2.206  0.6721  0.0224  0.5941
  177MOL    H4339115   3.855   3.865   2.160 -0.0267  0.8212  1.1892
  177MOL    H4439116   4.008   3.959   2.152  0.5471  1.1743 -2.2826
  177MOL    H4539117   3.871   3.976   2.031  0.8921  0.8972 -0.8879
  177MOL    C4639118   3.875   4.291   2.080  0.8397  0.5218 -0.1166
  177MOL    C4739119   3.976   4.322   1.971  0.6287  0.2952  0.9149
  177MOL    C4839120   3.905   4.350   1.833 -0.2144 -0.2752  0.3193
  177MOL    O4939121   3.822   4.439   1.819  0.5753 -0.4387  0.0249
  177MOL    C5039122   3.949   4.275   1.709 -0.3061 -0.8044 -0.0384
  177MOL    H5139123   3.842   4.391   2.108  2.3707 -0.0740  4.2357
  177MOL    H5239124   3.792   4.243   2.029  0.4999  0.7933  0.1709
  177MOL    H5339125   4.041   4.234   1.965  0.2384  0.1182 -1.4389
  177MOL    H5439126   4.027   4.203   1.731  1.3792  1.0508  0.2022
  177MOL    H5539127   3.864   4.216   1.678 -1.7005  0.6945  0.8094
  177MOL    H5639128   3.986   4.350   1.639  1.3967 -0.1449  1.5044
  177MOL    C5739129   4.056   4.434   2.023  0.0336 -0.2822 -0.2159
  177MOL    C5839130   4.184   4.459   1.936  1.0546  0.0564 -0.1922
  177MOL    C5939131   4.178   4.606   1.881 -0.4440 -0.2577 -0.3849
  177MOL    O6039132   4.272   4.682   1.909  0.4327 -0.6403 -0.0926
  177MOL    C6139133   4.062   4.653   1.783  0.1478  0.1794 -0.5765
  177MOL    H6239134   4.081   4.418   2.128  1.6238 -0.4263 -0.6136
  177MOL    H6339135   3.990   4.521   2.026 -0.0235 -0.1576 -3.7212
  177MOL    H6439136   4.170   4.398   1.847  0.7401  0.5433 -0.4754
  177MOL    H6539137   4.054   4.586   1.698 -0.1486 -2.1226  1.2333
  177MOL    H6639138   3.968   4.636   1.835 -0.1813 -0.3662 -1.3374
  177MOL    H6739139   4.059   4.760   1.762  0.6360  0.4146  0.5122
  177MOL    C6839140   4.309   4.415   2.009  0.0028  0.6095 -0.8033
  177MOL    C6939141   4.449   4.392   1.932  0.1236  0.1832 -0.2683
  177MOL    C7039142   4.455   4.264   1.859  0.2595  0.4605  0.3347
  177MOL    O7139143   4.378   4.172   1.883 -0.1200 -0.3812  0.4248
  177MOL    C7239144   4.579   4.230   1.777  0.3917 -0.0882 -0.0838
  177MOL    H7339145   4.331   4.489   2.086 -0.5902  0.7823 -0.7987
  177MOL    H7439146   4.295   4.327   2.072  1.6759  1.4213  0.7342
  177MOL    H7539147   4.434   4.465   1.852 -2.3163  0.4082  0.3521
  177MOL    H7639148   4.550   4.163   1.696 -0.7339  1.1757 -0.7444
  177MOL    H7739149   4.616   4.324   1.736 -1.1825  0.2952 -0.6514
  177MOL    H7839150   4.656   4.187   1.841  0.6509  0.2383 -0.1723
  177MOL    C7939151   4.568   4.426   2.027 -0.0526  0.1665 -0.3123
  177MOL    C8039152   4.578   4.344   2.156  0.2582  0.0162 -0.0507
  177MOL    C8139153   4.543   4.441   2.270 -0.9076 -0.0818 -0.6695
  177MOL    O8239154   4.428   4.433   2.312  0.0498 -0.4866 -0.1571
  177MOL    C8339155   4.639   4.550   2.301  0.1289  0.4745  0.4657
  177MOL    H8439156   4.562   4.533   2.046  0.1783  0.0679  0.2964
  177MOL    H8539157   4.660   4.407   1.972 -0.4199 -1.7714 -0.3163
  177MOL    H8639158   4.510   4.259   2.157  0.5053 -0.1953 -0.8779
  177MOL    H8739159   4.717   4.505   2.362 -1.3161 -0.1818  1.8540
  177MOL    H8839160   4.578   4.626   2.349 -0.3592 -0.9703  2.1793
  177MOL    H8939161   4.689   4.573   2.206  0.1184 -0.4098  0.2373
  177MOL    C9039162   4.715   4.279   2.172 -0.2875 -0.4507  0.3174
  177MOL    C9139163   4.731   4.188   2.300  0.2907  0.9099  0.0054
  177MOL    C9239164   4.640   4.071   2.293  0.8906  0.2720 -0.1046
  177MOL    O9339165   4.619   4.020   2.181 -0.1807  0.0059 -0.5637
  177MOL    C9439166   4.583   4.008   2.417 -0.0726  0.7758  0.5215
  177MOL    H9539167   4.729   4.213   2.086 -4.6611 -1.2448  0.0918
  177MOL    H9639168   4.802   4.343   2.177  0.3269 -1.3192  0.9166
  177MOL    H9739169   4.692   4.245   2.384  0.7380  0.7327  0.3374
  177MOL    H9839170   4.654   4.016   2.499 -0.5029  0.6483  0.9134
  177MOL    H9939171   4.489   4.052   2.450 -1.0989  1.6450 -3.2775
  177MOL   H10039172   4.550   3.906   2.395  0.5984  0.6140  0.2733
  177MOL   C10139173   4.877   4.138   2.319  0.0095 -0.1099 -0.4950
  177MOL   C10239174   4.953   4.227   2.415 -0.0416  0.9928 -0.6443
  177MOL   C10339175   5.106   4.231   2.384  0.0520 -1.1472 -0.1831
  177MOL   O10439176   5.177   4.145   2.430 -0.1243  0.1691 -0.2995
  177MOL   C10539177   5.178   4.332   2.298  0.8960 -0.2516 -0.3607
  177MOL   H10639178   4.888   4.039   2.365 -0.7081  0.8911  1.9062
  177MOL   H10739179   4.933   4.127   2.227 -0.1725  0.5258 -0.6861
  177MOL   H10839180   4.909   4.326   2.400 -0.3674  0.5482 -2.6464
  177MOL   H10939181   5.104   4.408   2.274  1.1759  0.4395  0.9095
  177MOL   H11039182   5.265   4.371   2.351 -0.4564  0.0079  1.7101
  177MOL   H11139183   5.208   4.275   2.210  1.5775  0.9931 -0.9626
  177MOL   C11239184   4.928   4.183   2.564 -0.9098  0.0458  0.9535
  177MOL   C11339185   5.002   4.263   2.671  0.1661 -0.1185  0.2863
  177MOL   C11439186   5.026   4.159   2.791 -0.1286  0.6206 -0.3739
  177MOL   O11539187   4.972   4.160   2.901 -0.1465  0.2606 -0.6875
  177MOL   C11639188   5.143   4.063   2.769 -1.2737 -0.0333  0.9142
  177MOL   H11739189   4.954   4.077   2.569 -0.2146  0.0852 -1.5707
  177MOL   H11839190   4.824   4.184   2.598 -0.9790  0.5429  0.7259
  177MOL   H11939191   5.103   4.286   2.638  0.1024 -3.6603 -2.7457
  177MOL   H12039192   5.137   3.979   2.838 -0.2740 -1.6378 -0.8947
  177MOL   H12139193   5.152   4.031   2.665  0.3911  2.2359  0.3014
  177MOL   H12239194   5.240   4.108   2.793 -0.5217 -2.0850  1.7795
  177MOL   C12339195   4.932   4.393   2.718  0.3913  0.4348  1.1688
  177MOL   C12439196   5.028   4.516   2.746 -0.3278 -0.3514 -0.3902
  177MOL   C12539197   5.069   4.565   2.609  0.0670  0.4248 -0.4508
  177MOL   O12639198   5.183   4.558   2.563  0.2835  0.2311  0.0008
  177MOL   C12739199   4.967   4.648   2.531 -0.2789 -0.1604 -0.6169
  177MOL   H12839200   4.890   4.381   2.819  0.8416  1.6012  1.5040
  177MOL   H12939201   4.844   4.416   2.659  0.5658  1.1598  1.1888
  177MOL   H13039202   4.966   4.596   2.788  1.8095  0.2570  1.7455
  177MOL   H13139203   4.877   4.591   2.510 -1.0136  0.4861  0.7573
  177MOL   H13239204   4.998   4.687   2.433  0.4405  1.1245  0.1036
  177MOL   H13339205   4.931   4.725   2.598 -0.0346 -0.7625  0.2101
  177MOL   C13439206   5.134   4.478   2.851 -0.3043 -0.0600  0.1928
  177MOL   C13539207   5.213   4.598   2.910 -0.3054 -0.1433  0.0750
  177MOL   C13639208   5.112   4.704   2.967 -0.0648 -0.1469  0.2558
  177MOL   O13739209   5.051   4.681   3.068 -0.3533  0.0625  0.3386
  177MOL   C13839210   5.076   4.829   2.885  0.0671 -0.2251 -0.2828
  177MOL   H13939211   5.210   4.422   2.796  0.5278  0.4725  0.7816
  177MOL   H14039212   5.102   4.412   2.931  0.9712 -1.2474 -0.2599
  177MOL   H14139213   5.254   4.651   2.824  0.6398 -0.2187  0.4750
  177MOL   H14239214   5.118   4.825   2.785  0.1116 -2.0847 -0.2187
  177MOL   H14339215   5.117   4.918   2.932  1.2862 -0.4233 -0.9420
  177MOL   H14439216   4.969   4.837   2.865 -0.0358 -1.5247 -0.3336
  177MOL   C14539217   5.320   4.550   3.010 -0.3387  0.4723 -0.9820
  177MOL   C14639218   5.452   4.633   3.023  0.5263 -0.5854 -0.2864
  177MOL   C14739219   5.507   4.610   3.164  0.1212  0.1520 -0.5232
  177MOL   O14839220   5.543   4.706   3.233 -0.8009 -0.6432 -0.2529
  177MOL   C14939221   5.512   4.469   3.222  0.2615 -0.2601  0.4101
  177MOL   H15039222   5.344   4.449   2.976 -0.8551  0.1352 -0.3672
  177MOL   H15139223   5.270   4.544   3.107  0.8118  0.3513 -0.3782
  177MOL   H15239224   5.443   4.740   3.009 -1.5687 -1.0404 -2.7231
  177MOL   H15339225   5.577   4.450   3.308  0.5737 -0.6830  0.0845
  177MOL   H15439226   5.413   4.457   3.266 -0.6998 -0.2098 -1.6491
  177MOL   H15539227   5.534   4.382   3.160  2.8216 -0.2552  1.2399
  177MOL   C15639228   5.557   4.585   2.919  0.5014  0.0844 -0.8900
  177MOL   C15739229   5.671   4.685   2.900 -0.1303  0.0366 -0.4042
  177MOL   C15839230   5.624   4.820   2.831 -0.1217  0.0772 -0.7619
  177MOL   O15939231   5.548   4.814   2.737 -0.5151 -0.1364 -0.1685
  177MOL   C16039232   5.678   4.956   2.869 -0.5396  0.3206  0.0581
  177MOL   H16139233   5.597   4.488   2.949  0.1154 -0.1964 -1.2847
  177MOL   H16239234   5.509   4.556   2.825 -0.7411 -2.2570  0.4044
  177MOL   H16339235   5.708   4.724   2.995  0.2705  2.3556 -1.4964
  177MOL   H16439236   5.748   4.946   2.952  0.9086  0.6434 -1.0931
  177MOL   H16539237   5.596   5.017   2.905 -0.1421  1.6331 -1.2387
  177MOL   H16639238   5.732   5.002   2.786  0.5537 -1.6715 -0.3617
  177MOL   C16739239   5.796   4.632   2.834 -0.1818 -0.2269  0.4434
  177MOL   C16839240   5.771   4.586   2.689  0.5367 -0.1716  0.1241
  177MOL   C16939241   5.821   4.434   2.673  0.5402 -0.0786  0.4874
  177MOL   O17039242   5.923   4.404   2.608 -0.3310 -0.3701  0.2241
  177MOL   C17139243   5.741   4.321   2.737  0.0873 -0.3406 -0.8775
  177MOL   H17239244   5.879   4.702   2.843 -1.9368  1.6431  2.9530
  177MOL   H17339245   5.847   4.551   2.886 -0.3029 -0.9279 -0.5268
  177MOL   H17439246   5.664   4.576   2.668  0.7409 -0.3720 -0.8523
  177MOL   H17539247   5.796   4.278   2.821  0.4562 -0.7068 -1.3006
  177MOL   H17639248   5.733   4.239   2.666 -0.1978  0.2030 -1.4769
  177MOL   H17739249   5.641   4.349   2.771  1.7437  1.8814  2.4393
  177MOL   C17839250   5.838   4.690   2.593 -0.3230  0.5122  1.1048
  177MOL   C17939251   5.806   4.662   2.444 -0.1029  0.0486 -0.2622
  177MOL   C18039252   5.909   4.718   2.346 -0.6283  0.1362 -1.3790
  177MOL   O18139253   5.949   4.834   2.364 -0.0270  0.4114 -0.0655
  177MOL   C18239254   5.971   4.628   2.241  0.6690  0.4293  0.2115
  177MOL   H18339255   5.806   4.792   2.615 -1.3147  0.0940  1.6868
  177MOL   H18439256   5.947   4.693   2.598 -0.1171 -1.9551 -0.6441
  177MOL   H18539257   5.804   4.554   2.430 -3.7798  0.1258 -1.0268
  177MOL   H18639258   5.981   4.527   2.280 -2.0982  0.3450  0.8307
  177MOL   H18739259   6.068   4.663   2.205  1.2318 -1.0140  0.3157
  177MOL   H18839260   5.900   4.628   2.158 -0.1334  0.4929  0.8810
  177MOL   C18939261   5.671   4.732   2.402  0.2938 -0.1172  0.3042
  177MOL   C19039262   5.608   4.682   2.267 -0.8227  0.1118 -0.5584
  177MOL   C19139263   5.586   4.524   2.267 -0.3345  0.3484 -0.6372
  177MOL   O19239264   5.581   4.463   2.375  0.4014 -0.1877  0.1343
  177MOL   C19339265   5.552   4.464   2.127 -0.1053  0.3622  0.5586
  177MOL   H19439266   5.599   4.708   2.481  1.2349  0.5628  1.3848
  177MOL   H19539267   5.692   4.838   2.405 -2.5406  0.5148 -0.4811
  177MOL   H19639268   5.686   4.699   2.193 -0.8530 -0.3222 -0.6942
  177MOL   H19739269   5.591   4.363   2.113 -1.4509 -0.0005 -0.7975
  177MOL   H19839270   5.444   4.457   2.111 -0.1411  2.1366 -0.0589
  177MOL   H19939271   5.593   4.526   2.048  0.2699  2.1781  2.1516
  177MOL   C20039272   5.472   4.756   2.248 -1.0732  0.1291 -0.2104
  177MOL   C20139273   5.474   4.914   2.259  1.1242 -0.3591  0.3130
  177MOL   C20239274   5.325   4.969   2.258 -0.0292  0.3831 -0.2210
  177MOL   O20339275   5.276   5.006   2.154 -0.3399  0.4635  0.6062
  177MOL   C20439276   5.248   4.987   2.387 -0.5935 -0.3101  0.1392
  177MOL   H20539277   5.421   4.720   2.159 -1.0995  0.1670 -0.2115
  177MOL   H20639278   5.410   4.723   2.331  0.5580 -1.2903  0.4534
  177MOL   H20739279   5.509   4.948   2.356 -2.3413  0.3592  1.3763
  177MOL   H20839280   5.149   4.948   2.367 -0.3843 -0.2499 -0.9996
  177MOL   H20939281   5.300   4.950   2.476 -2.2624 -0.6653  0.9841
  177MOL   H21039282   5.220   5.091   2.406  2.6233  0.5213  0.7032
  177MOL   C21139283   5.564   4.982   2.146  0.3800  0.2028  0.7051
  177MOL   C21239284   5.700   5.042   2.186  0.0596  0.3064 -0.1049
  177MOL   C21339285   5.755   5.133   2.077 -0.8736 -0.0468 -0.3078
  177MOL   O21439286   5.729   5.111   1.958 -0.1550 -0.2967  0.2118
  177MOL   C21539287   5.826   5.260   2.117  0.1496  0.4009 -0.2454
  177MOL   H21639288   5.568   4.905   2.069 -1.3410  0.8373 -0.0405
  177MOL   H21739289   5.505   5.062   2.100  1.0022  0.2848  0.0485
  177MOL   H21839290   5.767   4.959   2.209  1.1972  0.9924 -0.8702
  177MOL   H21939291   5.892   5.232   2.199  2.8219  0.8243 -2.1942
  177MOL   H22039292   5.879   5.304   2.033 -0.4985  4.0066  1.1240
  177MOL   H22139293   5.760   5.344   2.142 -1.1801 -1.2225  1.9171
  177MOL   H22239294   5.675   5.086   2.283  1.4122  0.6536  0.0968
  178MOL     C139295   3.087   1.923   1.047 -0.1738  0.2995 -0.2588
  178MOL     C239296   2.997   2.032   1.004  0.2013  0.2240  0.3283
  178MOL     C339297   3.076   2.162   0.970  0.5348 -0.1822 -0.5556
  178MOL     O439298   3.093   2.203   0.855  1.0897 -0.1100  0.0164
  178MOL     C539299   3.130   2.247   1.083  0.6078  0.2271  0.4199
  178MOL     H639300   3.160   1.892   0.972 -2.4449 -1.7089 -1.7234
  178MOL     H739301   3.025   1.835   1.061 -1.4623  0.6424 -3.3642
  178MOL     H839302   2.942   2.054   1.096 -1.3079  1.0821 -0.7550
  178MOL     H939303   3.114   2.200   1.180  1.2711  1.8790  1.3417
  178MOL    H1039304   3.236   2.260   1.063  0.2885 -0.7239 -1.9927
  178MOL    H1139305   3.083   2.345   1.094  0.6716  0.1207  1.7856
  178MOL    H1239306   3.140   1.945   1.139 -1.0233 -0.5135  0.4347
  178MOL    C1339307   2.907   1.975   0.889  0.8841 -0.3794 -0.3433
  178MOL    C1439308   2.969   1.911   0.762  0.1600 -0.9742 -0.3539
  178MOL    C1539309   2.913   1.966   0.639 -0.3704 -0.7921 -0.1351
  178MOL    O1639310   2.795   1.967   0.610 -0.6820 -0.2509  0.3446
  178MOL    C1739311   3.012   2.018   0.536  0.2880  0.6297 -0.3022
  178MOL    H1839312   2.832   1.915   0.940 -0.0687  1.2473  0.2192
  178MOL    H1939313   2.847   2.066   0.880  0.5827 -0.3886  1.3366
  178MOL    H2039314   3.069   1.951   0.777  0.3862 -0.6500 -2.5997
  178MOL    H2139315   3.101   2.052   0.588  1.0152 -1.2588 -0.2663
  178MOL    H2239316   3.037   1.925   0.484  1.0319  0.1223  0.9427
  178MOL    H2339317   2.978   2.090   0.462  0.2759  0.3796 -0.5421
  178MOL    C2439318   2.971   1.762   0.768  0.2913  0.2038 -0.0009
  178MOL    C2539319   3.047   1.684   0.655 -0.2156  0.1150 -0.7057
  178MOL    C2639320   3.200   1.720   0.646 -0.0265 -0.3347  0.1972
  178MOL    O2739321   3.275   1.738   0.744 -0.1265 -0.2918 -0.9290
  178MOL    C2839322   3.265   1.735   0.505  0.0845  0.2447  0.1741
  178MOL    H2939323   3.021   1.726   0.858 -0.0826 -2.1312 -0.6897
  178MOL    H3039324   2.872   1.718   0.761  0.5160 -0.0687 -1.7362
  178MOL    H3139325   3.003   1.721   0.562  0.3481 -1.3463 -1.5663
  178MOL    H3239326   3.184   1.743   0.433 -0.9478  1.0211  1.3977
  178MOL    H3339327   3.351   1.801   0.494  3.0472 -3.1405  1.9818
  178MOL    H3439328   3.314   1.640   0.484  1.0793  0.7538  0.1599
  178MOL    C3539329   3.032   1.527   0.666  0.1566  0.5428  0.5545
  178MOL    C3639330   3.104   1.450   0.788 -0.7163 -0.3908  0.5507
  178MOL    C3739331   3.022   1.457   0.917  0.6000  0.3663 -0.8132
  178MOL    O3839332   2.906   1.415   0.913  0.0578  0.3915 -0.0594
  178MOL    C3939333   3.088   1.514   1.046 -0.4613  0.3051  0.2675
  178MOL    H4039334   3.076   1.484   0.576  0.5966 -1.2322  1.5976
  178MOL    H4139335   2.926   1.500   0.661 -0.1532  2.1888 -2.8608
  178MOL    H4239336   3.202   1.494   0.809 -0.6317 -0.4110  0.1889
  178MOL    H4339337   3.057   1.617   1.063  0.3083  0.4803  0.6525
  178MOL    H4439338   3.197   1.507   1.058 -0.8368 -4.3639  1.9735
  178MOL    H4539339   3.057   1.463   1.137 -1.1728  0.9913  0.4131
  178MOL    C4639340   3.139   1.306   0.748 -0.0421  0.0423  0.2891
  178MOL    C4739341   3.230   1.229   0.849  0.6636  0.4062  0.0357
  178MOL    C4839342   3.187   1.079   0.855 -0.2421 -0.1908 -0.1229
  178MOL    O4939343   3.173   1.009   0.758 -0.8857  0.3916  0.4525
  178MOL    C5039344   3.131   1.036   0.986 -0.4638 -0.1376  0.0833
  178MOL    H5139345   3.189   1.313   0.651 -0.2292  0.9296  0.2574
  178MOL    H5239346   3.047   1.252   0.722 -0.0530 -0.0789  0.5812
  178MOL    H5339347   3.215   1.271   0.949 -2.2379  0.0165 -0.1756
  178MOL    H5439348   3.118   0.931   1.011 -1.2529 -0.0352  0.0908
  178MOL    H5539349   3.201   1.070   1.063  0.6442  0.2301 -1.0602
  178MOL    H5639350   3.033   1.079   1.001 -1.4469 -2.4337  0.4295
  178MOL    C5739351   3.378   1.249   0.819 -0.3314 -0.1958 -0.1848
  178MOL    C5839352   3.477   1.203   0.925  0.6698  0.3922  0.2036
  178MOL    C5939353   3.616   1.205   0.864 -0.2068  0.0382 -0.5878
  178MOL    O6039354   3.669   1.308   0.826  0.2577  0.1979 -0.6024
  178MOL    C6139355   3.691   1.076   0.867  0.7850  0.0138  0.3107
  178MOL    H6239356   3.400   1.353   0.794  1.3604 -0.6636 -0.7281
  178MOL    H6339357   3.401   1.213   0.718  1.4355  0.4177 -0.0255
  178MOL    H6439358   3.459   1.099   0.953  1.5632 -0.4103 -2.0862
  178MOL    H6539359   3.792   1.086   0.904  0.5756  1.5355  0.5028
  178MOL    H6639360   3.648   0.998   0.930  0.5149  0.1656  0.3161
  178MOL    H6739361   3.702   1.050   0.761  0.5675  1.6285 -0.1174
  178MOL    C6839362   3.477   1.297   1.054 -0.3253  0.0552  0.1703
  178MOL    C6939363   3.582   1.262   1.157 -0.4366  0.4073 -1.3939
  178MOL    C7039364   3.537   1.155   1.259 -1.1012  0.2567 -0.0703
  178MOL    O7139365   3.541   1.173   1.381  0.6119 -0.2615 -0.0409
  178MOL    C7239366   3.487   1.018   1.205  0.0454 -0.3661  0.1309
  178MOL    H7339367   3.494   1.403   1.033  0.6639 -0.1259  0.0338
  178MOL    H7439368   3.375   1.296   1.093  0.0116  0.6597  1.0951
  178MOL    H7539369   3.672   1.216   1.117  0.9869  1.2181  0.7544
  178MOL    H7639370   3.484   0.947   1.288  0.2854 -1.5754 -0.8644
  178MOL    H7739371   3.392   1.025   1.153 -0.3115  1.9170  1.0269
  178MOL    H7839372   3.556   0.980   1.129  0.0071 -0.9697  0.3941
  178MOL    C7939373   3.645   1.388   1.220  0.4515 -0.3281 -0.4246
  178MOL    C8039374   3.755   1.452   1.141  0.2090 -0.5750 -0.2382
  178MOL    C8139375   3.888   1.378   1.155 -0.5337 -0.8658 -0.3534
  178MOL    O8239376   3.921   1.320   1.252 -0.2508 -0.0505 -0.6844
  178MOL    C8339377   3.985   1.403   1.043  0.2126  0.2633 -0.7342
  178MOL    H8439378   3.682   1.373   1.322  0.0597  0.0272 -0.2272
  178MOL    H8539379   3.558   1.454   1.223  1.7131  1.3360  0.4364
  178MOL    H8639380   3.728   1.430   1.038  1.5259 -2.7912 -0.1418
  178MOL    H8739381   4.051   1.488   1.057 -0.1688  0.8576 -2.4320
  178MOL    H8839382   3.939   1.404   0.943  1.4569  1.1260 -1.3128
  178MOL    H8939383   4.048   1.314   1.033  0.5748  0.3394  0.8645
  178MOL    C9039384   3.768   1.608   1.164 -0.0038 -0.4595 -0.1707
  178MOL    C9139385   3.781   1.693   1.037 -0.3657 -0.5685  0.2778
  178MOL    C9239386   3.668   1.675   0.941  0.4190  0.1272 -0.1457
  178MOL    O9339387   3.554   1.660   0.978  0.7651  0.0370 -0.1951
  178MOL    C9439388   3.691   1.651   0.791 -0.4494 -0.3602 -0.0477
  178MOL    H9539389   3.681   1.646   1.217  0.9051  2.0064 -0.3576
  178MOL    H9639390   3.855   1.628   1.227 -0.3106  1.1684 -0.2247
  178MOL    H9739391   3.870   1.654   0.988  0.0914 -1.8346  2.0764
  178MOL    H9839392   3.667   1.546   0.774 -0.9201 -0.1717 -0.5495
  178MOL    H9939393   3.634   1.722   0.732 -1.8196  0.1576  1.8452
  178MOL   H10039394   3.792   1.665   0.752 -0.3316 -0.6857  0.1370
  178MOL   C10139395   3.817   1.839   1.073  0.6830  0.2740  0.0176
  178MOL   C10239396   3.836   1.945   0.956  0.4389 -0.9912 -0.5267
  178MOL   C10339397   3.976   1.944   0.900  0.3639 -0.4715 -0.0080
  178MOL   O10439398   4.077   1.897   0.962  0.1732 -0.5504 -0.0991
  178MOL   C10539399   4.002   1.997   0.761  0.5546  0.6034 -0.4662
  178MOL   H10639400   3.734   1.871   1.135  1.5122  1.1115  0.6963
  178MOL   H10739401   3.905   1.838   1.137  0.4854  0.3060  0.2931
  178MOL   H10839402   3.776   1.922   0.868 -0.9283  1.7708 -0.3713
  178MOL   H10939403   3.918   2.053   0.721  0.0389 -1.4559 -2.3083
  178MOL   H11039404   4.096   2.054   0.760  0.8327  0.2640  2.0735
  178MOL   H11139405   4.025   1.923   0.685  1.6555  0.0175  0.4099
  178MOL   C11239406   3.793   2.088   0.998  0.0144 -0.4141 -0.7067
  178MOL   C11339407   3.643   2.114   1.016  0.6340 -0.4544  0.3939
  178MOL   C11439408   3.565   2.078   0.886 -0.0734  0.2096  0.1338
  178MOL   O11539409   3.598   2.118   0.777 -0.2881 -0.2401  0.0165
  178MOL   C11639410   3.437   1.993   0.894 -0.9556  0.1015  0.3954
  178MOL   H11739411   3.831   2.162   0.927 -0.6957 -0.2792 -0.9503
  178MOL   H11839412   3.844   2.112   1.091 -2.4138 -1.3181  0.9113
  178MOL   H11939413   3.602   2.045   1.090  2.7482 -0.0833  1.9498
  178MOL   H12039414   3.367   2.022   0.972 -0.7208  1.4163  0.1295
  178MOL   H12139415   3.376   1.996   0.804  1.4523 -1.4761 -1.3463
  178MOL   H12239416   3.470   1.890   0.904  0.4048  0.2002 -2.5072
  178MOL   C12339417   3.612   2.257   1.074 -0.3190  0.5110 -0.5534
  178MOL   C12439418   3.617   2.270   1.229  0.3079 -0.2449 -0.2688
  178MOL   C12539419   3.763   2.321   1.265 -0.6782 -0.1739 -0.7775
  178MOL   O12639420   3.846   2.245   1.318 -0.0465  0.3037 -0.1349
  178MOL   C12739421   3.779   2.474   1.244  0.0192  0.3509  0.3943
  178MOL   H12839422   3.509   2.271   1.040 -1.5170 -2.0206  1.8707
  178MOL   H12939423   3.682   2.327   1.029 -1.9033  0.5728 -3.0808
  178MOL   H13039424   3.562   2.363   1.246 -0.4301 -0.7503  0.1184
  178MOL   H13139425   3.798   2.502   1.141 -0.2622  0.3019  0.3279
  178MOL   H13239426   3.874   2.505   1.289  0.2206  0.2090  0.0699
  178MOL   H13339427   3.701   2.522   1.303 -0.7329 -0.0275 -0.2823
  178MOL   C13439428   3.563   2.151   1.306 -0.3432  0.6713 -0.5907
  178MOL   C13539429   3.541   2.179   1.459 -0.1551 -0.6453  0.1620
  178MOL   C13639430   3.407   2.242   1.486  0.1509 -0.3336  0.3455
  178MOL   O13739431   3.322   2.252   1.396 -0.0324  0.2582  0.2959
  178MOL   C13839432   3.378   2.284   1.628 -0.2375  0.1544  0.3372
  178MOL   H13939433   3.638   2.073   1.308 -0.1391  0.9021  0.8343
  178MOL   H14039434   3.471   2.127   1.253  0.9749  0.1863 -2.7160
  178MOL   H14139435   3.613   2.252   1.496 -0.0504 -0.3797 -0.5501
  178MOL   H14239436   3.465   2.307   1.690  0.2533  1.1761 -0.7237
  178MOL   H14339437   3.330   2.204   1.686 -0.6707  0.0295 -0.1884
  178MOL   H14439438   3.312   2.371   1.627 -0.2316  0.1623  0.6112
  178MOL   C14539439   3.561   2.052   1.544 -0.0821 -0.1428  0.5193
  178MOL   C14639440   3.713   2.017   1.551 -0.2750  0.2812 -0.0315
  178MOL   C14739441   3.786   2.089   1.670  0.4025  0.5984  0.7617
  178MOL   O14839442   3.751   2.083   1.788 -0.4765 -0.1919 -0.0303
  178MOL   C14939443   3.913   2.159   1.618 -0.2632  0.0353 -0.2279
  178MOL   H15039444   3.515   1.966   1.494  1.0061 -0.5422  0.1707
  178MOL   H15139445   3.515   2.050   1.642 -0.5326  0.3444  0.3152
  178MOL   H15239446   3.771   2.029   1.459  1.3109 -1.9011  0.6353
  178MOL   H15339447   3.934   2.128   1.516 -1.4237 -0.5743 -0.2929
  178MOL   H15439448   3.899   2.267   1.606  2.1171  0.1582 -2.0929
  178MOL   H15539449   4.000   2.142   1.681  0.3036 -2.0669 -1.5583
  178MOL   C15639450   3.720   1.862   1.555  0.4136  0.3086  0.5604
  178MOL   C15739451   3.853   1.799   1.593  0.1067  0.1427  0.4216
  178MOL   C15839452   3.973   1.826   1.496  0.6604 -0.9183  0.3037
  178MOL   O15939453   3.965   1.886   1.388  0.3568  0.1548  0.7675
  178MOL   C16039454   4.108   1.786   1.550 -0.3318  0.3529 -0.5701
  178MOL   H16139455   3.644   1.827   1.625  0.2432 -0.4921 -0.0198
  178MOL   H16239456   3.692   1.815   1.462  0.0005 -1.4392  1.5590
  178MOL   H16339457   3.885   1.827   1.693 -0.5194 -0.1753  0.7157
  178MOL   H16439458   4.157   1.862   1.612 -0.9924  0.0756  0.3075
  178MOL   H16539459   4.177   1.738   1.480  0.0676  2.4941 -1.6738
  178MOL   H16639460   4.094   1.720   1.636 -1.7638 -0.2147 -1.2137
  178MOL   C16739461   3.850   1.642   1.598 -0.6321 -0.2510 -0.3760
  178MOL   C16839462   3.770   1.584   1.717  0.4924 -0.3127  0.2575
  178MOL   C16939463   3.836   1.624   1.845 -0.1060  0.0879 -0.7678
  178MOL   O17039464   3.950   1.581   1.868 -0.3128 -0.0066 -0.1634
  178MOL   C17139465   3.756   1.708   1.949  0.2194  0.3793 -0.3493
  178MOL   H17239466   3.798   1.604   1.511 -0.1519 -1.8675  0.0321
  178MOL   H17339467   3.949   1.598   1.586 -0.3744  0.4432 -0.8676
  178MOL   H17439468   3.668   1.620   1.700  0.1559 -0.5266  1.7929
  178MOL   H17539469   3.677   1.651   1.997  2.1028 -0.9767  1.2161
  178MOL   H17639470   3.701   1.786   1.896 -0.0404  1.2435  1.1658
  178MOL   H17739471   3.827   1.743   2.024  0.7071  1.1259 -1.1473
  178MOL   C17839472   3.761   1.432   1.714  0.3588  0.1192  0.7141
  178MOL   C17939473   3.623   1.396   1.786  0.1066 -0.1579 -0.2595
  178MOL   C18039474   3.636   1.278   1.889 -0.6175 -0.4834  0.2807
  178MOL   O18139475   3.578   1.171   1.879 -0.0267  0.0881  0.0046
  178MOL   C18239476   3.724   1.305   2.014  0.4366 -0.0265  0.3526
  178MOL   H18339477   3.767   1.399   1.610  0.7422 -2.1238  1.4318
  178MOL   H18439478   3.849   1.385   1.756  1.2889 -1.2342 -2.5844
  178MOL   H18539479   3.586   1.476   1.851 -0.0134 -2.2114  2.2936
  178MOL   H18639480   3.682   1.248   2.096 -0.0925 -0.7798 -0.4354
  178MOL   H18739481   3.717   1.412   2.031  0.5667 -0.1992  1.5077
  178MOL   H18839482   3.828   1.276   1.998  0.1677  0.4335 -2.4951
  178MOL   C18939483   3.512   1.374   1.688 -0.7728  0.4407  0.0229
  178MOL   C19039484   3.373   1.352   1.741  0.2184 -0.2542 -0.1615
  178MOL   C19139485   3.331   1.458   1.840 -0.1669 -0.6731  0.1123
  178MOL   O19239486   3.357   1.570   1.809  0.4416 -0.2628 -0.5031
  178MOL   C19339487   3.237   1.427   1.960  0.6298  0.5643 -0.0840
  178MOL   H19439488   3.518   1.458   1.619  0.5994 -0.3557 -0.8320
  178MOL   H19539489   3.533   1.281   1.635  1.6573  0.5092  0.8231
  178MOL   H19639490   3.384   1.264   1.804 -0.3386 -1.4534 -1.7262
  178MOL   H19739491   3.299   1.425   2.050 -1.1751 -1.2242  1.1574
  178MOL   H19839492   3.167   1.510   1.973  2.2706  1.4710  3.7511
  178MOL   H19939493   3.183   1.333   1.949  2.9850 -0.9377  0.6627
  178MOL   C20039494   3.265   1.342   1.616 -0.5029  0.1643 -0.4188
  178MOL   C20139495   3.246   1.461   1.525 -0.3956  0.1274 -0.3452
  178MOL   C20239496   3.097   1.475   1.492 -0.0659  0.0545  0.8244
  178MOL   O20339497   3.030   1.385   1.436  0.3179  0.4823  0.5880
  178MOL   C20439498   3.038   1.615   1.509  0.3809  0.1576  0.5538
  178MOL   H20539499   3.290   1.258   1.551  1.3232  0.5441 -0.2613
  178MOL   H20639500   3.172   1.311   1.662 -0.0581 -1.1770 -0.3994
  178MOL   H20739501   3.280   1.551   1.576  0.2723 -0.9521  1.1578
  178MOL   H20839502   2.979   1.615   1.601  2.2655  0.0790  1.7840
  178MOL   H20939503   3.112   1.695   1.503 -0.6271  0.9744 -1.4554
  178MOL   H21039504   2.966   1.635   1.429 -0.4095 -0.3334  1.1336
  178MOL   C21139505   3.319   1.456   1.387  0.1308 -0.1308  0.2284
  178MOL   C21239506   3.333   1.578   1.286  1.0842  0.2300 -0.1272
  178MOL   C21339507   3.407   1.705   1.347 -0.9141  0.0758  0.5113
  178MOL   O21439508   3.469   1.703   1.449  0.5726 -0.4394 -0.0916
  178MOL   C21539509   3.384   1.839   1.268 -0.1834 -0.2572 -0.4591
  178MOL   H21639510   3.420   1.417   1.401  0.0707  0.1262  1.3834
  178MOL   H21739511   3.270   1.368   1.344 -1.7691 -0.0722  2.2320
  178MOL   H21839512   3.229   1.604   1.263  0.8387 -0.3792  0.2786
  178MOL   H21939513   3.480   1.885   1.247 -0.0738 -0.7971 -1.1206
  178MOL   H22039514   3.325   1.816   1.179  1.6660 -3.2932 -0.9774
  178MOL   H22139515   3.328   1.908   1.332 -2.0655 -1.6579 -0.5316
  178MOL   H22239516   3.373   1.550   1.189 -2.0671  2.0455 -2.0400
  179MOL     C139517   4.838   7.798   0.396  0.4696 -0.0441  0.7787
  179MOL     C239518   4.880   0.085   0.396  0.0546 -0.1829  0.3416
  179MOL     C339519   4.815   0.171   0.283  0.1930 -0.0449  0.2067
  179MOL     O439520   4.708   0.232   0.299 -0.0166 -0.0764 -0.4461
  179MOL     C539521   4.876   0.170   0.144  0.8032  0.1037  0.2850
  179MOL     H639522   4.826   7.754   0.297  0.6154  2.0553 -0.2160
  179MOL     H739523   4.745   7.781   0.451  0.4770  0.3294  0.9073
  179MOL     H839524   4.983   0.072   0.365  0.1386 -1.2694  1.0431
  179MOL     H939525   4.801   0.172   0.065  0.3896 -0.3537  0.6660
  179MOL    H1039526   4.934   0.261   0.128 -0.4534  0.4596 -2.6133
  179MOL    H1139527   4.938   0.081   0.132  1.3299  0.9427 -3.9324
  179MOL    H1239528   4.918   7.729   0.421  1.4845 -0.2284 -2.7133
  179MOL    C1339529   4.866   0.150   0.530 -0.5757  0.2847 -0.3175
  179MOL    C1439530   4.960   0.263   0.574  0.1567  0.1233 -0.2433
  179MOL    C1539531   5.115   0.247   0.563  1.2038 -0.2346 -0.1535
  179MOL    O1639532   5.175   0.157   0.621 -0.3953  0.2009  0.3833
  179MOL    C1739533   5.186   0.348   0.476  0.3773  0.6298  0.7378
  179MOL    H1839534   4.760   0.174   0.541 -0.3243  1.5865 -0.6361
  179MOL    H1939535   4.885   0.076   0.608 -0.4578 -0.1347 -0.7453
  179MOL    H2039536   4.938   0.330   0.490  0.9243 -0.5103 -0.9606
  179MOL    H2139537   5.166   0.327   0.371  2.7012 -2.2447  0.8278
  179MOL    H2239538   5.149   0.445   0.508 -0.4424  0.1967  1.1260
  179MOL    H2339539   5.293   0.341   0.493  0.4468 -0.7567 -0.1656
  179MOL    C2439540   4.913   0.328   0.707 -0.3943 -0.4550  0.4516
  179MOL    C2539541   4.957   0.257   0.843 -0.3632  0.2156  0.3814
  179MOL    C2639542   5.079   0.320   0.905 -0.3464 -0.4696 -0.9401
  179MOL    O2739543   5.095   0.441   0.910  0.3785  0.5203 -0.6209
  179MOL    C2839544   5.184   0.222   0.939 -0.1488  0.7034  0.0406
  179MOL    H2939545   4.957   0.428   0.711  0.6375 -0.8876  0.0420
  179MOL    H3039546   4.805   0.339   0.696 -0.4224 -1.1165  0.0491
  179MOL    H3139547   4.974   0.151   0.825 -1.2481  0.6325 -3.2117
  179MOL    H3239548   5.243   0.238   1.029  0.9578 -0.0967 -0.5234
  179MOL    H3339549   5.149   0.120   0.952 -1.3903  0.8373 -2.0691
  179MOL    H3439550   5.257   0.216   0.858  1.0262 -1.1084  1.1902
  179MOL    C3539551   4.831   0.255   0.939  0.0362 -0.3075 -0.3863
  179MOL    C3639552   4.708   0.164   0.899 -0.5747 -0.8181 -0.6456
  179MOL    C3739553   4.752   0.015   0.899 -0.5228 -0.2837 -0.0526
  179MOL    O3839554   4.776   7.816   0.794  0.2394 -0.1019 -0.3882
  179MOL    C3939555   4.791   7.809   1.032  0.0249 -0.1727 -0.1665
  179MOL    H4039556   4.801   0.358   0.959  1.5009 -0.2905  1.8785
  179MOL    H4139557   4.874   0.224   1.034  0.1370  0.8958 -0.0366
  179MOL    H4239558   4.677   0.192   0.799  0.5605  1.8096 -0.2936
  179MOL    H4339559   4.888   7.770   1.001  1.2745  2.6030  0.0959
  179MOL    H4439560   4.718   7.729   1.043 -0.8325  0.6879  0.5140
  179MOL    H4539561   4.799   0.025   1.112 -2.3266  0.9074 -0.8566
  179MOL    C4639562   4.585   0.191   0.990  0.1746 -0.3184 -0.0029
  179MOL    C4739563   4.438   0.165   0.931 -0.0455 -0.4039 -0.0123
  179MOL    C4839564   4.407   0.274   0.821 -0.2928  0.4141 -0.3649
  179MOL    O4939565   4.424   0.248   0.705 -0.0688  0.3658 -0.4565
  179MOL    C5039566   4.362   0.413   0.870  0.1608 -0.0318  0.9547
  179MOL    H5139567   4.592   0.298   1.012  0.1878 -0.4141  0.4709
  179MOL    H5239568   4.608   0.143   1.085 -2.2908  0.6351  1.1245
  179MOL    H5339569   4.370   0.199   1.009  2.9138  3.0420  1.2415
  179MOL    H5439570   4.452   0.461   0.908  0.8658 -0.9257  0.4371
  179MOL    H5539571   4.337   0.480   0.788 -0.0888  1.2680  2.0697
  179MOL    H5639572   4.277   0.418   0.938 -1.5711  0.6089 -1.1918
  179MOL    C5739573   4.415   0.018   0.896  0.6172 -0.4349  0.0005
  179MOL    C5839574   4.276   7.833   0.838 -0.0133 -0.7059 -0.4765
  179MOL    C5939575   4.276   7.699   0.764 -0.1070  0.1610  0.2667
  179MOL    O6039576   4.215   7.602   0.820  0.0542  0.3980 -0.1678
  179MOL    C6139577   4.332   7.699   0.623 -0.9879  0.1829  0.8795
  179MOL    H6239578   4.419   7.816   0.987 -2.1185  0.0486  0.4616
  179MOL    H6339579   4.492   7.836   0.829  1.5693  1.1921  0.0917
  179MOL    H6439580   4.255   0.050   0.761  1.5892 -1.4982 -1.6984
  179MOL    H6539581   4.391   7.610   0.602  0.3504  0.9759  1.2008
  179MOL    H6639582   4.258   7.699   0.543 -0.1867 -0.3371  0.1340
  179MOL    H6739583   4.397   7.786   0.612 -1.2418  0.2630 -0.0154
  179MOL    C6839584   4.171   7.853   0.950  0.1671  0.3497 -0.7197
  179MOL    C6939585   4.017   7.829   0.923 -0.2408 -0.1572 -0.1781
  179MOL    C7039586   3.955   0.054   0.811 -0.2125 -0.3467  0.3041
  179MOL    O7139587   3.960   0.181   0.821  0.1100  0.3187 -0.1432
  179MOL    C7239588   3.876   7.844   0.700 -0.4247  0.2857  0.1760
  179MOL    H7339589   4.197   7.784   1.030 -0.4359 -0.1322 -0.9359
  179MOL    H7439590   4.179   0.097   0.987  0.7137  0.3708 -0.9002
  179MOL    H7539591   3.994   7.726   0.892  1.8851 -0.1012 -2.1174
  179MOL    H7639592   3.898   0.024   0.600  0.9868 -0.0961  0.3337
  179MOL    H7739593   3.898   7.737   0.696 -2.0444 -0.1831  2.6410
  179MOL    H7839594   3.770   7.848   0.724 -0.5882  2.9294 -0.8532
  179MOL    C7939595   3.961   7.851   1.059 -0.6562 -0.3291 -0.6563
  179MOL    C8039596   3.823   7.796   1.083 -0.6797 -0.1673  0.1773
  179MOL    C8139597   3.723   0.040   1.027 -0.2217 -0.3535 -0.5738
  179MOL    O8239598   3.647   0.004   0.949 -0.2808 -0.0351  0.0856
  179MOL    C8339599   3.717   0.180   1.081  0.2743 -0.5839  0.4699
  179MOL    H8439600   3.981   0.098   1.082  3.4351 -1.4072  1.0960
  179MOL    H8539601   4.024   7.792   1.124  0.3527  0.2509 -1.0968
  179MOL    H8639602   3.804   7.698   1.038  0.2748 -0.4202  0.3302
  179MOL    H8739603   3.687   0.186   1.186 -0.1864 -2.3996  0.4678
  179MOL    H8839604   3.636   0.238   1.038  0.8940  0.7686  1.1060
  179MOL    H8939605   3.807   0.241   1.067  0.2010 -0.4982  0.3790
  179MOL    C9039606   3.806   7.778   1.241  0.0095 -0.1307 -0.5178
  179MOL    C9139607   3.672   7.734   1.287 -0.2402 -0.4353  0.1479
  179MOL    C9239608   3.676   7.584   1.338 -0.1866  0.5924 -0.3409
  179MOL    O9339609   3.620   7.544   1.445  0.3117  0.1610 -0.3485
  179MOL    C9439610   3.755   7.491   1.245  0.7795 -0.1347  0.0613
  179MOL    H9539611   3.883   7.705   1.265 -0.3977 -0.3274  0.1893
  179MOL    H9639612   3.841   0.012   1.290 -1.5129  0.8280 -1.1669
  179MOL    H9739613   3.609   7.735   1.198  0.4688  0.4814 -0.3655
  179MOL    H9839614   3.714   7.390   1.249 -2.7260  1.2694  2.3387
  179MOL    H9939615   3.746   7.527   1.143  2.7204  2.9751  0.9381
  179MOL   H10039616   3.856   7.477   1.284  0.0119  0.4961  2.3966
  179MOL   C10139617   3.616   7.839   1.399 -0.1995  0.0532  0.4609
  179MOL   C10239618   3.460   7.841   1.421 -1.2711 -0.5533  0.3906
  179MOL   C10339619   3.384   0.042   1.307 -0.1567 -0.1648  0.1513
  179MOL   O10439620   3.436   0.120   1.234 -0.1611  0.2847 -0.2546
  179MOL   C10539621   3.237   7.855   1.291 -0.2200 -0.4982  0.2023
  179MOL   H10639622   3.659   7.825   1.498  0.5475 -2.1095 -0.1355
  179MOL   H10739623   3.650   0.081   1.372  0.9210 -0.5418 -0.3655
  179MOL   H10839624   3.429   7.737   1.427  0.1631 -1.0134  0.0117
  179MOL   H10939625   3.203   7.842   1.188  0.7615  0.3312 -0.2297
  179MOL   H11039626   3.223   7.760   1.343 -0.5414 -1.6598 -1.9344
  179MOL   H11139627   3.176   0.078   1.333 -0.6796 -1.4760  1.4600
  179MOL   C11239628   3.418   0.051   1.561  0.4889  0.6465  0.4996
  179MOL   C11339629   3.431   7.816   1.687  0.4424 -0.2867  0.2108
  179MOL   C11439630   3.347   7.692   1.671 -0.2676  0.1126 -0.4641
  179MOL   O11539631   3.223   7.706   1.643  0.2984  0.1008 -0.4268
  179MOL   C11639632   3.409   7.561   1.684 -0.4239 -0.0415 -0.0687
  179MOL   H11739633   3.314   0.085   1.566  0.4413  0.5686  0.0319
  179MOL   H11839634   3.471   0.143   1.586  2.3374 -0.1674 -0.3499
  179MOL   H11939635   3.535   7.791   1.707 -0.0957 -3.3991 -0.5019
  179MOL   H12039636   3.511   7.568   1.722 -1.1449 -0.0114  1.9194
  179MOL   H12139637   3.342   7.512   1.754  0.5440 -0.6209  0.4589
  179MOL   H12239638   3.414   7.503   1.592 -0.1441 -1.1256  0.6160
  179MOL   C12339639   3.376   0.043   1.804  0.3341 -0.1159  0.2397
  179MOL   C12439640   3.402   7.831   1.941 -0.4492 -0.2679 -0.4921
  179MOL   C12539641   3.289   0.001   2.036 -0.2146  0.0482  0.1322
  179MOL   O12639642   3.284   0.111   2.092 -0.2474  0.0209  0.0939
  179MOL   C12739643   3.178   7.756   2.058 -0.0571 -0.2391 -0.0964
  179MOL   H12839644   3.271   0.073   1.797  0.3591  0.1770  1.0413
  179MOL   H12939645   3.424   0.141   1.798  1.2174 -0.6015 -0.6874
  179MOL   H13039646   3.399   7.722   1.934  0.5476 -0.3424  0.0755
  179MOL   H13139647   3.124   7.779   2.150  1.0788 -0.5598  0.6547
  179MOL   H13239648   3.232   7.663   2.075 -0.4627 -0.7156 -1.3111
  179MOL   H13339649   3.117   7.756   1.967  2.0359 -0.0810 -1.5366
  179MOL   C13439650   3.537   0.013   2.008 -0.1111 -0.9564  0.1914
  179MOL   C13539651   3.569   7.789   2.135  0.2454 -0.7632 -0.1717
  179MOL   C13639652   3.638   7.653   2.115 -0.8578  0.4708  0.3876
  179MOL   O13739653   3.699   7.640   2.008 -0.1290  0.9652 -0.1308
  179MOL   C13839654   3.639   7.546   2.222  0.0966  0.3807 -0.5992
  179MOL   H13939655   3.528   0.120   2.021  1.3012 -0.6992 -0.8324
  179MOL   H14039656   3.626   0.007   1.945  1.0273  0.2129  1.6482
  179MOL   H14139657   3.472   7.780   2.184  0.7440 -0.2683  0.9226
  179MOL   H14239658   3.602   7.449   2.187  0.4997 -0.7399  1.9566
  179MOL   H14339659   3.558   7.577   2.287  1.6846  2.0830  0.6077
  179MOL   H14439660   3.734   7.532   2.274 -0.8439 -1.6641  0.6383
  179MOL   C14539661   3.652   0.009   2.238 -0.0844 -0.2069 -0.2267
  179MOL   C14639662   3.584   0.124   2.319  0.1851 -0.0315 -0.1503
  179MOL   C14739663   3.474   0.054   2.405  0.7237  1.0951 -0.0356
  179MOL   O14839664   3.495   7.814   2.471  0.0828 -0.3428  0.1498
  179MOL   C14939665   3.328   0.097   2.394 -0.2148 -0.2337  0.0528
  179MOL   H15039666   3.725   0.063   2.178 -1.5811 -0.2084 -2.1110
  179MOL   H15139667   3.709   7.809   2.310  0.1870 -1.0977 -1.1481
  179MOL   H15239668   3.532   0.200   2.260  0.6785  0.3413 -0.1136
  179MOL   H15339669   3.317   0.203   2.371 -1.4158 -0.2220  0.6383
  179MOL   H15439670   3.287   0.036   2.313 -0.9670 -1.6487  1.4511
  179MOL   H15539671   3.275   0.072   2.486 -0.4621 -3.0195 -0.7884
  179MOL   C15639672   3.701   0.203   2.396 -0.0160 -0.1451  0.3133
  179MOL   C15739673   3.655   0.312   2.499 -0.2454  0.2630 -0.0169
  179MOL   C15839674   3.741   0.444   2.489 -0.6595  0.2530 -0.3786
  179MOL   O15939675   3.813   0.483   2.578  0.1778 -0.3125 -0.0260
  179MOL   C16039676   3.734   0.518   2.357  0.1449  0.4848  0.0787
  179MOL   H16139677   3.772   0.133   2.440  2.1104  1.0925 -1.0757
  179MOL   H16239678   3.769   0.249   2.324 -0.2826  1.0653  0.8155
  179MOL   H16339679   3.552   0.335   2.471 -0.9136 -1.0427  1.2946
  179MOL   H16439680   3.684   0.458   2.282  0.0813 -0.1700  0.6380
  179MOL   H16539681   3.828   0.560   2.323 -0.4695  0.5739 -1.5336
  179MOL   H16639682   3.666   0.604   2.367 -0.4909 -0.0906  0.8063
  179MOL   C16739683   3.650   0.253   2.648 -0.4290 -0.5990 -0.2622
  179MOL   C16839684   3.569   0.359   2.737  0.5844 -0.8485 -0.2921
  179MOL   C16939685   3.602   0.324   2.881  0.0876 -0.4000  0.2822
  179MOL   O17039686   3.586   0.210   2.927 -0.0726  0.8292  0.0716
  179MOL   C17139687   3.635   0.438   2.976 -0.7386  0.4636 -0.4258
  179MOL   H17239688   3.602   0.155   2.646 -1.8166  0.0350  0.9870
  179MOL   H17339689   3.748   0.237   2.694 -0.1918  1.9748  0.1951
  179MOL   H17439690   3.606   0.460   2.719  1.4211 -0.6973  2.1606
  179MOL   H17539691   3.623   0.415   3.082  0.6083 -0.8966 -0.5497
  179MOL   H17639692   3.576   0.526   2.952 -1.2901  0.8353  2.1609
  179MOL   H17739693   3.735   0.477   2.958  0.0544 -1.8146 -1.1610
  179MOL   C17839694   3.412   0.348   2.719  0.0072 -0.0005 -0.0328
  179MOL   C17939695   3.350   0.453   2.628 -0.2067  0.8531  0.0154
  179MOL   C18039696   3.397   0.592   2.646 -0.5963 -0.4731  0.4093
  179MOL   O18139697   3.441   0.653   2.551 -0.3966 -0.2908 -0.7437
  179MOL   C18239698   3.374   0.670   2.769 -0.6107 -0.2326  0.0454
  179MOL   H18339699   3.397   0.254   2.664  0.1091 -0.1027  0.1135
  179MOL   H18439700   3.360   0.331   2.813  0.7708 -0.4555  0.3111
  179MOL   H18539701   3.374   0.425   2.525 -0.0941  0.9565  0.0138
  179MOL   H18639702   3.269   0.702   2.769 -0.4285  0.4610  1.7716
  179MOL   H18739703   3.440   0.754   2.790 -0.5758 -0.3208  0.2962
  179MOL   H18839704   3.367   0.606   2.857 -1.9507  0.0915  0.1898
  179MOL   C18939705   3.199   0.440   2.627 -0.0958 -0.2030  0.0514
  179MOL   C19039706   3.124   0.498   2.501  0.5103  0.0219 -0.3366
  179MOL   C19139707   3.113   0.398   2.392  0.2974 -0.2702  0.1202
  179MOL   O19239708   3.067   0.293   2.413  0.0436  0.2329  0.0085
  179MOL   C19339709   3.152   0.429   2.249 -0.4079  0.3053  0.1371
  179MOL   H19439710   3.162   0.341   2.656 -1.1847  0.8004  2.2027
  179MOL   H19539711   3.166   0.497   2.713  0.4425 -0.0543  0.1618
  179MOL   H19639712   3.195   0.570   2.459  1.8718 -0.5331  0.9703
  179MOL   H19739713   3.063   0.434   2.186 -0.7616 -0.4324  0.5645
  179MOL   H19839714   3.204   0.524   2.256 -0.5129  0.3266  0.6494
  179MOL   H19939715   3.223   0.356   2.212  0.1657  0.5557  0.7234
  179MOL   C20039716   2.992   0.566   2.536 -0.0621 -0.4928 -0.1599
  179MOL   C20139717   2.944   0.658   2.416  0.3486 -0.1206  0.2176
  179MOL   C20239718   3.005   0.799   2.422 -0.1752  0.0714 -0.1301
  179MOL   O20339719   3.089   0.826   2.499  0.2283  0.1801  0.3382
  179MOL   C20439720   2.961   0.909   2.323 -1.0412 -0.3513 -0.0920
  179MOL   H20539721   2.913   0.499   2.573 -0.4701  0.5290  0.8398
  179MOL   H20639722   3.004   0.637   2.618 -0.1720 -1.4004  0.6615
  179MOL   H20739723   2.954   0.607   2.320  2.0891  1.2507 -0.3433
  179MOL   H20839724   3.036   0.925   2.246 -0.1254  1.3022  1.0923
  179MOL   H20939725   2.876   0.869   2.267  0.6508 -1.4432 -1.9356
  179MOL   H21039726   2.922   1.000   2.371 -0.2766  0.5554 -1.1592
  179MOL   C21139727   2.788   0.654   2.424  0.0818 -0.5399 -0.3519
  179MOL   C21239728   2.720   0.735   2.539 -0.3325  0.3345  0.0749
  179MOL   C21339729   2.573   0.765   2.530 -0.2888 -0.2053  0.2850
  179MOL   O21439730   2.512   0.768   2.425  0.1133  0.2599 -0.1081
  179MOL   C21539731   2.504   0.811   2.650  0.2542  0.0742  0.1706
  179MOL   H21639732   2.741   0.697   2.335 -1.0484  0.1502  0.5635
  179MOL   H21739733   2.755   0.551   2.434 -2.6477  0.5076  2.0350
  179MOL   H21839734   2.770   0.826   2.573  0.5051 -0.0384 -0.1253
  179MOL   H21939735   2.543   0.766   2.741  1.4158  1.6001  0.4487
  179MOL   H22039736   2.535   0.914   2.668  1.4393 -0.4753  1.3283
  179MOL   H22139737   2.397   0.793   2.644  0.2178 -0.2388  1.6691
  179MOL   H22239738   2.730   0.679   2.632  1.1573 -2.2241 -1.5580
  180MOL     C139739   6.886   6.412   5.570  0.5247 -1.1043 -0.3038
  180MOL     C239740   6.784   6.297   5.546 -0.4842  0.7750 -0.0136
  180MOL     C339741   6.639   6.335   5.583 -0.3893  0.2076 -1.0249
  180MOL     O439742   6.546   6.340   5.501 -0.1771 -0.3871  0.0273
  180MOL     C539743   6.611   6.358   5.731 -1.1263  0.4477  0.1762
  180MOL     H639744   6.881   6.444   5.675 -2.1423 -2.5746  0.0634
  180MOL     H739745   6.861   6.491   5.499  1.2665 -0.9137 -0.3496
  180MOL     H839746   6.805   6.219   5.619 -0.5833 -0.9549 -1.8036
  180MOL     H939747   6.506   6.366   5.759 -1.1455 -2.3260  0.9585
  180MOL    H1039748   6.661   6.273   5.777 -1.8428  0.1948  0.4860
  180MOL    H1139749   6.658   6.453   5.759  2.4817 -0.4218 -2.5745
  180MOL    H1239750   6.989   6.395   5.542  0.2156  0.6274 -2.5751
  180MOL    C1339751   6.777   6.234   5.408 -0.0159 -0.0699  0.1735
  180MOL    C1439752   6.726   6.094   5.390 -0.4851  0.9272  0.4598
  180MOL    C1539753   6.572   6.080   5.375  0.0124 -0.0265  0.0284
  180MOL    O1639754   6.518   6.001   5.448 -0.2102 -0.0055  0.3992
  180MOL    C1739755   6.496   6.141   5.259 -0.5557  1.3483 -0.9642
  180MOL    H1839756   6.736   6.302   5.333 -0.9253  1.0521  1.6749
  180MOL    H1939757   6.884   6.243   5.388  0.2072  0.1711  1.4661
  180MOL    H2039758   6.762   6.082   5.288  2.8317 -1.2007  1.7858
  180MOL    H2139759   6.408   6.185   5.306  0.3971  2.4764 -0.1933
  180MOL    H2239760   6.543   6.223   5.205  1.4919 -0.1172 -1.4869
  180MOL    H2339761   6.467   6.059   5.193 -2.6315  0.6131  0.7868
  180MOL    C2439762   6.796   5.990   5.484 -0.6676  0.0828 -0.5366
  180MOL    C2539763   6.782   5.842   5.435 -0.4249  0.5781 -0.4765
  180MOL    C2639764   6.828   5.814   5.297  0.6684  0.6541  0.3167
  180MOL    O2739765   6.750   5.814   5.203  0.0979 -0.2476 -0.1194
  180MOL    C2839766   6.974   5.793   5.269 -0.3941 -0.0322  0.3859
  180MOL    H2939767   6.901   6.012   5.501 -0.8612  0.1222  0.6198
  180MOL    H3039768   6.753   5.994   5.584  0.9206 -1.0439  0.2145
  180MOL    H3139769   6.674   5.829   5.427 -0.6356  0.2925  2.3208
  180MOL    H3239770   7.011   5.702   5.317 -0.1700 -0.6087 -0.8621
  180MOL    H3339771   6.999   5.801   5.164 -0.7966  5.6217  0.5815
  180MOL    H3439772   7.021   5.881   5.312 -0.8057  1.8594 -2.8959
  180MOL    C3539773   6.836   5.731   5.533 -0.7566  0.0055  0.7410
  180MOL    C3639774   6.760   5.734   5.671  0.8222  0.1752  0.1564
  180MOL    C3739775   6.614   5.686   5.650  0.0574  0.0621  0.7641
  180MOL    O3839776   6.592   5.575   5.599 -0.1958  0.1965  0.2494
  180MOL    C3939777   6.503   5.772   5.692  0.0430  0.6774  0.4455
  180MOL    H4039778   6.941   5.746   5.557 -0.8946 -0.8561  1.9544
  180MOL    H4139779   6.837   5.634   5.484 -1.4322 -0.4368  1.5839
  180MOL    H4239780   6.768   5.835   5.713  1.0862 -0.6637  2.1859
  180MOL    H4339781   6.517   5.764   5.800  2.8781 -0.3526  0.0303
  180MOL    H4439782   6.408   5.728   5.663  0.2422 -0.4892  1.5212
  180MOL    H4539783   6.523   5.877   5.667  1.5434  0.3081  0.0241
  180MOL    C4639784   6.822   5.637   5.784 -0.0824 -0.0445  0.4053
  180MOL    C4739785   6.784   5.659   5.933  0.3048  0.4616 -0.3815
  180MOL    C4839786   6.751   5.524   5.995 -0.0546 -0.7001 -0.4445
  180MOL    O4939787   6.814   5.426   5.972 -0.0151 -0.0609 -1.3082
  180MOL    C5039788   6.645   5.518   6.107 -0.2500  0.0230  0.5873
  180MOL    H5139789   6.930   5.646   5.769 -0.2274 -0.3714 -0.9465
  180MOL    H5239790   6.814   5.534   5.751 -0.4763  0.3909 -0.8897
  180MOL    H5339791   6.693   5.719   5.929  0.4461  0.6668 -0.5073
  180MOL    H5439792   6.550   5.550   6.063 -0.4082 -0.0610  0.8699
  180MOL    H5539793   6.646   5.424   6.160 -0.9910  0.3474  1.1849
  180MOL    H5639794   6.668   5.588   6.187 -1.1284 -1.0463  1.7860
  180MOL    C5739795   6.889   5.738   6.020 -0.1607  0.3628 -0.4225
  180MOL    C5839796   6.922   5.875   5.962 -0.4307 -0.1025 -0.4990
  180MOL    C5939797   6.818   5.986   5.975  0.2175  0.3197 -0.5094
  180MOL    O6039798   6.782   6.052   5.881 -0.6084  0.2479 -0.0669
  180MOL    C6139799   6.775   6.027   6.117  0.1009 -0.4758  0.0394
  180MOL    H6239800   6.982   5.680   6.023 -0.9229 -0.8130  1.7955
  180MOL    H6339801   6.853   5.744   6.123 -0.4969 -1.4669 -0.4150
  180MOL    H6439802   6.939   5.872   5.854  0.8832 -0.6659 -0.2782
  180MOL    H6539803   6.687   6.091   6.109  0.0072 -0.6272 -0.1459
  180MOL    H6639804   6.737   5.944   6.177 -0.8529  0.1845  0.3534
  180MOL    H6739805   6.848   6.082   6.177  0.0051  0.0536 -0.3287
  180MOL    C6839806   7.060   5.925   6.019  0.4351  0.1509 -0.1046
  180MOL    C6939807   7.132   6.053   5.958 -0.1183 -0.1488 -0.4951
  180MOL    C7039808   7.156   6.053   5.804 -0.2221  0.3808 -0.0018
  180MOL    O7139809   7.159   5.948   5.738 -0.7448 -0.1564  0.2621
  180MOL    C7239810   7.168   6.188   5.731 -0.2405  0.5535  0.5893
  180MOL    H7339811   7.047   5.938   6.127 -1.1908  1.4351 -0.4337
  180MOL    H7439812   7.124   5.837   6.011 -0.3019 -0.6273  2.1170
  180MOL    H7539813   7.048   6.122   5.967  1.4474  1.9065 -1.2592
  180MOL    H7639814   7.243   6.251   5.779  1.0289 -1.5050  1.3616
  180MOL    H7739815   7.196   6.181   5.625  1.7559  0.7674  1.0850
  180MOL    H7839816   7.070   6.234   5.734 -0.0319  1.1347 -0.8773
  180MOL    C7939817   7.262   6.092   6.038  0.2845  0.1553  0.4480
  180MOL    C8039818   7.387   6.007   6.011 -0.2820  0.1559  0.6318
  180MOL    C8139819   7.465   5.972   6.140 -0.2730 -0.3566 -0.0811
  180MOL    O8239820   7.522   6.046   6.212  0.1269 -0.3465 -0.3093
  180MOL    C8339821   7.452   5.833   6.199 -0.3052 -0.4935 -0.0937
  180MOL    H8439822   7.252   6.092   6.146 -1.5621  1.4084  0.2878
  180MOL    H8539823   7.285   6.196   6.016  1.1852 -0.1791 -0.2310
  180MOL    H8639824   7.357   5.906   5.981 -1.0818  0.0901  1.6350
  180MOL    H8739825   7.557   5.804   6.198 -1.2722 -4.2755 -0.1219
  180MOL    H8839826   7.402   5.764   6.131 -0.8552 -0.0248 -0.1637
  180MOL    H8939827   7.411   5.834   6.300 -0.5384  2.1406 -0.1976
  180MOL    C9039828   7.482   6.062   5.903 -0.4581  0.2662 -1.1271
  180MOL    C9139829   7.616   5.981   5.889 -0.5687  0.0176 -0.5608
  180MOL    C9239830   7.608   5.829   5.858 -0.4114  0.0559  0.3195
  180MOL    O9339831   7.686   5.755   5.924  0.9671  0.1763 -0.2708
  180MOL    C9439832   7.526   5.784   5.738 -0.5319  0.4651 -1.0423
  180MOL    H9539833   7.424   6.057   5.811 -0.8563 -0.2565 -0.8488
  180MOL    H9639834   7.511   6.163   5.933 -2.2471  0.3702  0.3912
  180MOL    H9739835   7.668   5.977   5.985 -0.3907 -1.1957 -0.6932
  180MOL    H9839836   7.445   5.853   5.717  0.9658  1.9338 -2.1823
  180MOL    H9939837   7.590   5.791   5.650 -1.5330  0.7007 -1.7528
  180MOL   H10039838   7.494   5.683   5.763 -0.2798  0.4482 -0.7859
  180MOL   C10139839   7.706   6.045   5.789 -0.5604  0.5352  0.4717
  180MOL   C10239840   7.847   6.076   5.841 -0.2673  0.3135  0.5932
  180MOL   C10339841   7.842   6.178   5.952  0.6910 -0.2496 -0.5152
  180MOL   O10439842   7.796   6.292   5.932 -0.2366  0.3672 -0.1896
  180MOL   C10539843   0.023   6.141   6.096 -0.4978 -0.0801  0.6693
  180MOL   H10639844   7.727   5.991   5.697 -4.9963 -2.4935  1.0931
  180MOL   H10739845   7.663   6.137   5.751  0.0407  0.4184 -0.4999
  180MOL   H10839846   0.032   5.980   5.869 -2.6179 -1.1140 -0.6146
  180MOL   H10939847   0.038   6.034   6.107 -0.6885 -0.2638 -0.7349
  180MOL   H11039848   0.115   6.188   6.132  1.1730 -2.1856 -0.7425
  180MOL   H11139849   7.804   6.185   6.159  1.4021  2.7131  1.1652
  180MOL   C11239850   0.076   6.135   5.721  0.0135 -0.0765 -0.5604
  180MOL   C11339851   0.227   6.146   5.745 -0.7955 -0.5844 -0.7545
  180MOL   C11439852   0.285   6.240   5.641  0.1275 -0.1689  0.7075
  180MOL   O11539853   0.325   6.200   5.531  0.0096 -0.4208  0.3051
  180MOL   C11639854   0.297   6.394   5.663 -0.7451 -0.0030 -0.0291
  180MOL   H11739855   0.040   6.233   5.689  0.7209 -0.2170 -1.8000
  180MOL   H11839856   0.067   6.074   5.631 -0.1434  1.2053 -1.4304
  180MOL   H11939857   0.252   6.181   5.845  1.7007  0.3427 -1.6457
  180MOL   H12039858   0.387   6.399   5.725 -1.3705  0.0651  0.8736
  180MOL   H12139859   0.311   6.457   5.575  1.1944  2.0436  1.6893
  180MOL   H12239860   0.212   6.430   5.721 -1.7109  0.0327 -1.4300
  180MOL   C12339861   0.291   6.002   5.734 -0.5919  0.2903  0.0692
  180MOL   C12439862   0.443   6.005   5.770  0.1629 -0.0379  0.6712
  180MOL   C12539863   0.519   5.891   5.697  0.6050 -0.2087  0.1048
  180MOL   O12639864   0.566   5.799   5.760  0.1774  0.2560 -0.0901
  180MOL   C12739865   0.531   5.899   5.546 -0.4205  0.0960 -0.1023
  180MOL   H12839866   0.275   5.960   5.635  0.1646  0.0926  0.0314
  180MOL   H12939867   0.252   5.921   5.795 -0.3127 -0.9913 -1.4325
  180MOL   H13039868   0.499   6.091   5.733 -0.9022  1.5337  2.6194
  180MOL   H13139869   0.633   5.875   5.516 -1.0372 -1.2435 -1.1877
  180MOL   H13239870   0.515   5.999   5.505  0.7260  0.8081  1.1711
  180MOL   H13339871   0.473   5.823   5.493  0.2048  1.6405 -3.1235
  180MOL   C13439872   0.468   6.007   5.925 -0.8880 -0.1079 -0.0460
  180MOL   C13539873   0.608   6.067   5.967 -0.6407  0.4979  0.2776
  180MOL   C13639874   0.631   6.211   5.925  0.0040  0.8281 -0.0952
  180MOL   O13739875   0.539   6.289   5.906  0.2584 -0.2446  0.7333
  180MOL   C13839876   0.773   6.248   5.896 -0.5620 -0.4414  0.2500
  180MOL   H13939877   0.454   5.911   5.974 -1.0410  0.6750  1.4773
  180MOL   H14039878   0.395   6.074   5.970 -1.5608 -2.1135  1.8992
  180MOL   H14139879   0.677   6.007   5.908 -0.2749 -0.3181  1.5170
  180MOL   H14239880   0.809   6.335   5.951  0.2925 -0.2253 -0.6353
  180MOL   H14339881   0.780   6.282   5.793  1.1893 -0.8168  0.2292
  180MOL   H14439882   0.840   6.162   5.905  0.2461  0.0060 -1.3362
  180MOL   C14539883   0.636   6.052   6.114 -0.2053  0.4321  0.3384
  180MOL   C14639884   0.523   6.109   6.204  0.0337  0.0417 -0.0590
  180MOL   C14739885   0.438   5.992   6.255  0.1343  0.1237  0.0121
  180MOL   O14839886   0.322   5.969   6.213  0.1849 -0.1035  0.0636
  180MOL   C14939887   0.504   5.905   6.368  0.2393 -0.7979  0.1940
  180MOL   H15039888   0.724   6.112   6.139  0.7968 -1.4263  1.2986
  180MOL   H15139889   0.670   5.951   6.135  0.7112  1.1845  2.5292
  180MOL   H15239890   0.452   6.167   6.144  0.4912  1.5859  0.8654
  180MOL   H15339891   0.444   5.816   6.386  1.2283 -1.4488  0.2584
  180MOL   H15439892   0.603   5.876   6.334  0.8302  0.7844  0.4882
  180MOL   H15539893   0.512   5.967   6.457 -0.6094  0.3925 -0.5359
  180MOL   C15639894   0.568   6.203   6.315  0.3995 -0.5602 -0.4967
  180MOL   C15739895   0.497   6.341   6.333  0.0689  0.1197  0.5478
  180MOL   C15839896   0.353   6.322   6.377 -0.4028  0.1450 -0.1415
  180MOL   O15939897   0.260   6.373   6.307 -0.3319 -0.0728 -0.0249
  180MOL   C16039898   0.326   6.253   6.507 -0.5750  0.4156  0.5830
  180MOL   H16139899   0.586   6.161   6.414 -0.7792  2.0826  0.8983
  180MOL   H16239900   0.666   6.235   6.280 -0.2242  0.5733 -1.2509
  180MOL   H16339901   0.547   6.394   6.414 -0.5313 -0.4771  1.3053
  180MOL   H16439902   0.217   6.255   6.516 -0.6569  1.8191 -0.5275
  180MOL   H16539903   0.373   6.294   6.596 -0.7450 -0.3780  1.0353
  180MOL   H16639904   0.344   6.147   6.496  0.6009  0.7772 -1.2302
  180MOL   C16739905   0.512   6.437   6.207 -0.3940 -0.3194 -0.4916
  180MOL   C16839906   0.457   6.581   6.230 -0.5427 -0.0908  0.2862
  180MOL   C16939907   0.395   6.650   6.101 -0.7933  0.4222  0.3393
  180MOL   O17039908   0.425   6.772   6.079  0.4859  0.1054 -0.2726
  180MOL   C17139909   0.312   6.567   6.006 -0.3004  0.0660  0.4955
  180MOL   H17239910   0.619   6.434   6.188 -0.1754 -0.6835  0.7295
  180MOL   H17339911   0.469   6.395   6.116  1.1022 -0.2793 -1.2229
  180MOL   H17439912   0.361   6.562   6.279 -1.4576  0.5738 -1.2095
  180MOL   H17539913   0.237   6.512   6.064 -0.9581  1.1093  0.6448
  180MOL   H17639914   0.376   6.513   5.937  0.3697  2.4573 -0.7915
  180MOL   H17739915   0.267   6.636   5.935  2.0106  1.2443  0.1564
  180MOL   C17839916   0.553   6.662   6.314 -0.4489  0.2451 -0.2426
  180MOL   C17939917   0.495   6.692   6.456  0.0305 -0.2596 -0.1586
  180MOL   C18039918   0.403   6.811   6.462  0.1263 -0.1455  0.1832
  180MOL   O18139919   0.296   6.802   6.518  0.3179  0.0533  0.1703
  180MOL   C18239920   0.454   6.942   6.416 -0.4172 -0.0494 -0.5361
  180MOL   H18339921   0.650   6.613   6.319 -0.3559  0.5704  1.4377
  180MOL   H18439922   0.579   6.758   6.269 -1.9139  1.5197  1.5092
  180MOL   H18539923   0.438   6.605   6.488 -1.8950  0.9936 -0.1023
  180MOL   H18639924   0.534   6.965   6.486 -0.3302 -0.6719 -0.4285
  180MOL   H18739925   0.383   7.025   6.412  1.2991  1.4679 -0.7090
  180MOL   H18839926   0.498   6.927   6.317 -2.0837  0.3643 -1.3606
  180MOL   C18939927   0.609   6.698   6.557 -0.1829 -0.7405  0.6371
  180MOL   C19039928   0.567   6.702   6.708 -0.4625 -0.0270  0.2260
  180MOL   C19139929   0.476   6.582   6.743  0.9843  0.6215 -0.1159
  180MOL   O19239930   0.520   6.470   6.743 -0.0545 -0.2410  0.2133
  180MOL   C19339931   0.338   6.611   6.787  0.0123 -0.6251 -0.0588
  180MOL   H19439932   0.677   6.618   6.529  1.4673  0.8673 -0.1107
  180MOL   H19539933   0.674   6.781   6.527 -0.0360 -1.4558 -1.0981
  180MOL   H19639934   0.512   6.794   6.727  0.2022  0.5836 -0.7731
  180MOL   H19739935   0.315   6.566   6.883  2.3720 -0.1076  0.7663
  180MOL   H19839936   0.304   6.714   6.790 -3.2154 -1.6258  0.3324
  180MOL   H19939937   0.265   6.564   6.721 -0.3465  1.2179 -1.0114
  180MOL   C20039938   0.695   6.713   6.805 -0.3118  0.1804  0.6919
  180MOL   C20139939   0.661   6.739   6.953  0.2729  0.0073 -1.2951
  180MOL   C20239940   0.574   6.866   6.977 -0.0776  0.6920 -0.3770
  180MOL   O20339941   0.564   6.966   6.904  0.0088  0.3682  0.2908
  180MOL   C20439942   0.518   6.873   7.116 -0.2204 -0.1180  0.0249
  180MOL   H20539943   0.751   6.619   6.805  0.3736  0.5652 -1.2152
  180MOL   H20639944   0.762   6.788   6.762  0.3901 -1.3743 -0.9852
  180MOL   H20739945   0.599   6.653   6.979  0.7827 -0.5726 -1.9823
  180MOL   H20839946   0.453   6.786   7.127 -0.7317 -0.0194 -2.0103
  180MOL   H20939947   0.599   6.859   7.188 -0.6161  1.0932  0.7057
  180MOL   H21039948   0.453   6.957   7.140 -0.0123 -0.4849  1.9661
  180MOL   C21139949   0.787   6.742   7.032  0.3410  0.9609  0.0372
  180MOL   C21239950   0.889   6.862   7.002 -1.0701  0.6809  0.3651
  180MOL   C21339951   1.010   6.860   7.087 -0.4316  0.2860 -0.1487
  180MOL   O21439952   1.069   6.757   7.105 -0.7025  0.2162 -0.3657
  180MOL   C21539953   1.059   6.986   7.159  0.6483  0.3859 -0.4930
  180MOL   H21639954   0.756   6.755   7.136 -2.5313  1.2197 -0.8196
  180MOL   H21739955   0.832   6.643   7.030 -2.1358 -0.2280  1.5652
  180MOL   H21839956   0.860   6.963   7.030  2.2893  1.9238 -0.3350
  180MOL   H21939957   1.168   6.984   7.169  0.8451  3.0555 -1.6060
  180MOL   H22039958   1.026   7.070   7.098  0.2380 -0.5632 -1.6070
  180MOL   H22139959   1.020   6.994   7.261  2.9773 -0.5694  0.5114
  180MOL   H22239960   0.911   6.861   6.895 -0.8662  1.7941  0.3918
  181MOL     C139961   3.809   6.002   3.265 -0.1497 -0.4884 -0.2662
  181MOL     C239962   3.784   6.100   3.145 -0.1609  0.2800 -0.6830
  181MOL     C339963   3.896   6.114   3.046 -0.1743  0.1683  0.2196
  181MOL     O439964   3.907   6.038   2.953  0.7233  0.1876  0.8621
  181MOL     C539965   4.001   6.216   3.069 -0.5711 -0.2837 -0.0055
  181MOL     H639966   3.730   5.990   3.338  0.8947  0.8622  1.1146
  181MOL     H739967   3.903   6.025   3.316  1.1340 -1.0468 -2.3217
  181MOL     H839968   3.773   6.200   3.187  0.6795  0.4920 -0.9642
  181MOL     H939969   4.006   6.232   3.177 -2.3089  0.7330 -0.0519
  181MOL    H1039970   4.096   6.175   3.034  0.2248  1.6985 -0.2878
  181MOL    H1139971   3.980   6.311   3.019  0.8400  0.0216 -0.0419
  181MOL    H1239972   3.830   5.902   3.225  1.8051 -0.0740 -0.3282
  181MOL    C1339973   3.653   6.041   3.079  0.3763 -0.0973  0.5040
  181MOL    C1439974   3.581   6.131   2.972  0.0289 -0.5149  0.1005
  181MOL    C1539975   3.549   6.266   3.035  0.3187 -0.0540  0.0975
  181MOL    O1639976   3.607   6.367   2.995  0.4079 -0.0763  0.0176
  181MOL    C1739977   3.444   6.277   3.155 -0.0323  0.1753 -0.0147
  181MOL    H1839978   3.684   5.952   3.025  2.1782  0.9547 -0.2665
  181MOL    H1939979   3.585   5.998   3.152  1.5201 -0.5790  1.3131
  181MOL    H2039980   3.656   6.144   2.893 -3.3523 -0.4518 -3.2521
  181MOL    H2139981   3.435   6.383   3.181 -3.5790  0.0404 -0.3933
  181MOL    H2239982   3.350   6.239   3.114 -0.2053 -2.1592  2.4124
  181MOL    H2339983   3.479   6.216   3.238  0.5412 -1.3147 -1.3314
  181MOL    C2439984   3.465   6.062   2.904 -0.5176 -0.0229 -0.3313
  181MOL    C2539985   3.390   6.129   2.786  0.3090 -0.0091  0.1876
  181MOL    C2639986   3.478   6.121   2.654 -0.0446  0.5896  0.3886
  181MOL    O2739987   3.556   6.030   2.636  0.3642  0.0671 -0.5359
  181MOL    C2839988   3.472   6.242   2.555  0.2815 -0.1995 -0.3203
  181MOL    H2939989   3.475   5.959   2.871  1.2177 -0.0194  0.1341
  181MOL    H3039990   3.399   6.051   2.990  1.6646 -0.7303  1.2903
  181MOL    H3139991   3.378   6.234   2.809  2.0038  0.0015  1.0897
  181MOL    H3239992   3.432   6.225   2.455  0.6575 -0.7981 -0.3735
  181MOL    H3339993   3.403   6.313   2.601 -0.4563 -2.4108  2.1011
  181MOL    H3439994   3.573   6.285   2.561 -0.2581  1.2568 -1.4542
  181MOL    C3539995   3.253   6.064   2.754  0.7827  0.3839  0.3816
  181MOL    C3639996   3.146   6.057   2.867  0.5986 -0.0443 -0.0536
  181MOL    C3739997   3.084   6.190   2.903  0.4149 -0.1809 -0.0176
  181MOL    O3839998   3.095   6.284   2.824 -0.1141  0.5904 -0.0401
  181MOL    C3939999   3.016   6.200   3.046 -0.9443 -0.4947  0.0338
  181MOL    H4040000   3.274   5.960   2.729  4.4222  1.1132  0.1306
  181MOL    H4140001   3.218   6.118   2.666  2.1416  2.0635  0.8458
  181MOL    H4240002   3.193   6.025   2.960  0.5331  1.1770  0.4087
  181MOL    H4340003   2.942   6.124   3.069 -1.5565  0.5481  1.5890
  181MOL    H4440004   2.968   6.298   3.050  1.5871  0.7789  0.8989
  181MOL    H4540005   3.091   6.188   3.124  0.3408 -0.5026 -1.1626
  181MOL    C4640006   3.031   5.952   2.846  0.6340  0.0458  0.7375
  181MOL    C4740007   2.917   5.978   2.752 -0.1328  0.5611 -0.4265
  181MOL    C4840008   2.961   5.929   2.612  0.2063 -0.2085  0.1515
  181MOL    O4940009   3.049   5.842   2.595  0.5338  0.0650 -0.1769
  181MOL    C5040010   2.905   5.981   2.485 -0.0641  0.1266  0.1126
  181MOL    H5140011   2.981   5.950   2.943  1.0121 -1.1037  0.9200
  181MOL    H5240012   3.067   5.850   2.851  0.3910  0.0239  2.2917
  181MOL    H5340013   2.882   6.081   2.742 -1.3858  0.0444 -1.4979
  181MOL    H5440014   2.981   6.053   2.456 -0.5375  0.7710  0.4394
  181MOL    H5540015   2.901   5.893   2.422 -0.9543  0.4722 -0.3248
  181MOL    H5640016   2.803   6.017   2.499 -0.8322 -1.7432 -0.5952
  181MOL    C5740017   2.784   5.904   2.787  0.3073  0.3747 -0.0916
  181MOL    C5840018   2.784   5.756   2.792 -0.3806  0.7597  0.3628
  181MOL    C5940019   2.867   5.696   2.904 -0.1744 -0.0554  0.8515
  181MOL    O6040020   2.861   5.737   3.018  0.2137  0.0459 -0.0868
  181MOL    C6140021   2.958   5.576   2.862 -0.6021 -0.7708 -0.2503
  181MOL    H6240022   2.713   5.948   2.716  0.3890 -1.5997 -1.4450
  181MOL    H6340023   2.753   5.946   2.882 -2.2205 -1.5160 -0.0273
  181MOL    H6440024   2.824   5.729   2.694 -0.5807  2.2433 -0.1476
  181MOL    H6540025   3.058   5.619   2.859 -0.7227 -0.5222 -0.7302
  181MOL    H6640026   2.962   5.492   2.931  2.6970  1.5070  2.5191
  181MOL    H6740027   2.931   5.548   2.760  1.7234 -0.2321 -1.0542
  181MOL    C6840028   2.639   5.709   2.803 -0.2347 -0.5088 -0.0983
  181MOL    C6940029   2.608   5.563   2.782 -0.6680  0.3983  0.4604
  181MOL    C7040030   2.586   5.531   2.628 -0.2729 -0.0465  0.2055
  181MOL    O7140031   2.477   5.523   2.569 -0.0706  0.2897 -0.6631
  181MOL    C7240032   2.707   5.485   2.542 -0.1914 -0.7347  0.0039
  181MOL    H7340033   2.597   5.736   2.899 -2.4934  0.7250 -1.3936
  181MOL    H7440034   2.578   5.773   2.738 -0.8882 -0.2384  0.7778
  181MOL    H7540035   2.698   5.509   2.811  0.0085  0.4340 -1.4672
  181MOL    H7640036   2.698   5.521   2.440  1.3832  0.0031  0.1111
  181MOL    H7740037   2.801   5.521   2.584  0.5029 -1.1581 -1.1707
  181MOL    H7840038   2.726   5.378   2.543 -0.7332 -0.8786 -2.3843
  181MOL    C7940039   2.503   5.511   2.878 -0.3901 -0.0651 -0.0970
  181MOL    C8040040   2.531   5.490   3.029  0.2701  0.5407  0.3185
  181MOL    C8140041   2.635   5.383   3.069  0.6781  0.7291 -0.0075
  181MOL    O8240042   2.700   5.320   2.990  0.1512  0.3707 -0.1444
  181MOL    C8340043   2.680   5.384   3.213 -0.1019 -0.5942 -0.2309
  181MOL    H8440044   2.459   5.418   2.841  0.1250 -0.1680 -0.4545
  181MOL    H8540045   2.415   5.575   2.872 -0.9494 -0.9155 -1.2805
  181MOL    H8640046   2.553   5.593   3.056 -0.5723  0.4342  1.4768
  181MOL    H8740047   2.789   5.396   3.211  0.0960 -2.3654 -1.7198
  181MOL    H8840048   2.668   5.289   3.266  0.7556 -0.1378  0.8073
  181MOL    H8940049   2.636   5.462   3.275 -1.9130 -2.4745  0.9226
  181MOL    C9040050   2.390   5.460   3.090 -0.0273  0.0956 -0.7894
  181MOL    C9140051   2.366   5.466   3.246  0.3114 -0.0301 -0.5801
  181MOL    C9240052   2.338   5.612   3.284  0.8495  0.4150 -0.0330
  181MOL    O9340053   2.225   5.659   3.262 -0.0670  0.2985 -0.2513
  181MOL    C9440054   2.437   5.705   3.349  0.2017 -0.4112  0.0142
  181MOL    H9540055   2.314   5.527   3.050 -0.3607  0.8187  0.9869
  181MOL    H9640056   2.350   5.370   3.044 -0.5733 -0.3082  0.4538
  181MOL    H9740057   2.460   5.439   3.294  1.4072  2.4625 -1.2174
  181MOL    H9840058   2.516   5.751   3.289  1.7053 -1.3124  1.2476
  181MOL    H9940059   2.379   5.790   3.384  0.6815  0.1053 -0.4216
  181MOL   H10040060   2.482   5.646   3.429  1.1362 -0.4491 -0.5278
  181MOL   C10140061   2.257   5.359   3.300 -0.6638 -0.3307  0.4073
  181MOL   C10240062   2.242   5.357   3.458  0.0979  0.4481 -0.2944
  181MOL   C10340063   2.376   5.323   3.533  0.4886  0.0663  0.0460
  181MOL   O10440064   2.470   5.268   3.477 -0.6904 -0.0995  0.0004
  181MOL   C10540065   2.389   5.347   3.681 -0.2779 -0.2967 -0.1750
  181MOL   H10640066   2.161   5.361   3.250  0.5913  2.3167 -2.0386
  181MOL   H10740067   2.292   5.258   3.278 -1.9134 -0.4322 -1.1802
  181MOL   H10840068   2.210   5.456   3.492 -0.0563  0.1865  0.3365
  181MOL   H10940069   2.387   5.250   3.729  1.5155  0.9314  2.4957
  181MOL   H11040070   2.485   5.398   3.695 -0.1641 -0.0622 -1.7543
  181MOL   H11140071   2.311   5.411   3.721 -0.3379  0.1545 -1.0090
  181MOL   C11240072   2.137   5.253   3.511 -0.2712 -0.1386  0.0235
  181MOL   C11340073   1.990   5.286   3.485  0.1201  1.0500 -0.2429
  181MOL   C11440074   1.954   5.425   3.536  0.6531 -0.0770  0.0003
  181MOL   O11540075   2.022   5.475   3.624 -0.3902  0.0274  0.4487
  181MOL   C11640076   1.845   5.501   3.463 -0.0221 -0.1400 -0.2904
  181MOL   H11740077   2.164   5.246   3.616  0.6949  2.5021 -0.0087
  181MOL   H11840078   2.161   5.155   3.470  0.7064  0.6087 -1.2233
  181MOL   H11940079   1.987   5.303   3.377  0.9198  1.3200 -0.2253
  181MOL   H12040080   1.757   5.486   3.524  0.3369  1.2900  0.6082
  181MOL   H12140081   1.867   5.603   3.432 -0.0028  0.1478  0.6555
  181MOL   H12240082   1.825   5.450   3.368 -0.7430 -0.3914 -0.0025
  181MOL   C12340083   1.884   5.186   3.529 -0.2434  0.0344 -0.1420
  181MOL   C12440084   1.827   5.193   3.679 -0.1721 -0.0933  0.5155
  181MOL   C12540085   1.933   5.211   3.785 -0.0766 -0.4939 -0.4261
  181MOL   O12640086   2.023   5.128   3.787  0.2873  0.1890  0.2312
  181MOL   C12740087   1.931   5.322   3.894 -0.9313 -0.0707 -0.1385
  181MOL   H12840088   1.927   5.086   3.523 -0.1655  0.1127 -0.8290
  181MOL   H12940089   1.803   5.194   3.457  0.6509 -0.5872 -1.2319
  181MOL   H13040090   1.759   5.277   3.665 -0.6960 -0.5345  0.3979
  181MOL   H13140091   2.022   5.382   3.891 -0.4743 -0.8142 -2.6029
  181MOL   H13240092   1.907   5.281   3.992 -2.5821 -1.6847 -1.1671
  181MOL   H13340093   1.846   5.388   3.873 -0.4879 -0.1157 -2.1373
  181MOL   C13440094   1.742   5.075   3.712  0.1257  0.2303  0.2118
  181MOL   C13540095   1.654   5.094   3.840 -0.2716 -0.5635  0.0252
  181MOL   C13640096   1.526   5.174   3.809  0.5575 -0.1152 -0.6833
  181MOL   O13740097   1.427   5.126   3.766 -0.3072  0.0839 -0.0524
  181MOL   C13840098   1.546   5.326   3.831  0.4706  0.2793  0.0117
  181MOL   H13940099   1.804   4.986   3.724 -1.1811 -0.7648 -0.2934
  181MOL   H14040100   1.673   5.051   3.632 -0.9687  1.1302  0.8655
  181MOL   H14140101   1.726   5.151   3.900 -0.3028  1.8067 -2.0954
  181MOL   H14240102   1.455   5.377   3.863  1.2185  2.3548 -1.0926
  181MOL   H14340103   1.572   5.372   3.736 -2.9452  0.0201 -1.1235
  181MOL   H14440104   1.619   5.344   3.909  1.5130 -1.7573 -0.4662
  181MOL   C14540105   1.626   4.969   3.924  0.0216  0.1073  0.0981
  181MOL   C14640106   1.582   5.006   4.063 -0.1963 -0.2426 -0.2068
  181MOL   C14740107   1.504   4.886   4.127  1.2657  0.6206  0.2399
  181MOL   O14840108   1.534   4.840   4.235  0.1072  0.6712 -0.0129
  181MOL   C14940109   1.372   4.845   4.065 -0.4748 -0.5364  0.2511
  181MOL   H15040110   1.705   4.893   3.930 -0.7839 -0.7544 -0.1740
  181MOL   H15140111   1.543   4.919   3.876 -0.8583  0.6033  1.0808
  181MOL   H15240112   1.515   5.091   4.054  0.7770  0.4392 -1.1382
  181MOL   H15340113   1.385   4.744   4.025  2.9360  0.2645 -0.8482
  181MOL   H15440114   1.290   4.846   4.137 -0.6667 -1.0463  0.0461
  181MOL   H15540115   1.349   4.904   3.976 -1.4200 -0.2339  0.6924
  181MOL   C15640116   1.712   5.045   4.152 -0.0949 -0.1833 -0.8586
  181MOL   C15740117   1.678   5.121   4.290  0.0955 -0.7436 -0.2829
  181MOL   C15840118   1.593   5.248   4.260 -0.1463  0.1729  0.9304
  181MOL   O15940119   1.471   5.250   4.263  0.2928  0.3932  0.2861
  181MOL   C16040120   1.674   5.368   4.205  0.7106  0.5468  0.5404
  181MOL   H16140121   1.754   4.948   4.179 -0.3104  0.1222  0.6526
  181MOL   H16240122   1.792   5.090   4.093 -0.9694  1.7957 -0.5487
  181MOL   H16340123   1.616   5.060   4.355 -0.0682 -1.3937 -1.0348
  181MOL   H16440124   1.606   5.444   4.167  2.7433  3.0134  1.6765
  181MOL   H16540125   1.735   5.346   4.118 -0.4829  0.5780 -0.3192
  181MOL   H16640126   1.737   5.413   4.281 -0.7461  0.9385  1.5477
  181MOL   C16740127   1.802   5.153   4.373 -0.4921  0.3930  0.7315
  181MOL   C16840128   1.873   5.028   4.434  0.3450  0.3207 -0.5221
  181MOL   C16940129   1.787   4.987   4.554  0.3702  0.0246 -0.3467
  181MOL   O17040130   1.783   5.059   4.650 -1.1564 -0.6139  0.3181
  181MOL   C17140131   1.713   4.863   4.557  0.6144 -0.3338 -0.4594
  181MOL   H17240132   1.861   5.206   4.298  1.0224 -0.0874  1.5425
  181MOL   H17340133   1.779   5.222   4.454 -1.9669  0.3149  0.3904
  181MOL   H17440134   1.868   4.951   4.358 -1.7946 -1.4026  1.3133
  181MOL   H17540135   1.611   4.885   4.589  0.2690  1.3173 -2.5810
  181MOL   H17640136   1.767   4.793   4.622 -0.9219  0.0715  1.2918
  181MOL   H17740137   1.703   4.814   4.460  0.5147  1.4323 -1.3690
  181MOL   C17840138   2.018   5.061   4.477 -0.9213  0.5693 -0.2975
  181MOL   C17940139   2.122   5.061   4.350  0.1632 -0.2087  0.4080
  181MOL   C18040140   2.115   4.923   4.289 -0.7343 -0.7158 -0.3988
  181MOL   O18140141   2.103   4.821   4.351 -0.0428  0.4760 -0.1193
  181MOL   C18240142   2.124   4.920   4.134 -0.2311  0.2270 -0.5160
  181MOL   H18340143   2.019   5.156   4.531  0.0248  0.0644  0.5888
  181MOL   H18440144   2.048   4.984   4.549 -1.2841  1.5234  0.8979
  181MOL   H18540145   2.090   5.141   4.283  0.5860 -1.5347 -1.4193
  181MOL   H18640146   2.044   4.981   4.093 -0.9502 -0.3229  0.0666
  181MOL   H18740147   2.106   4.821   4.092  0.1163 -0.2139  0.3451
  181MOL   H18840148   2.213   4.966   4.090  1.2580 -2.5887 -0.5852
  181MOL   C18940149   2.262   5.101   4.390 -0.0525  0.5748 -0.4695
  181MOL   C19040150   2.346   5.129   4.267 -0.4073 -0.1251  0.2117
  181MOL   C19140151   2.315   5.263   4.200  0.5642  0.7113  0.4288
  181MOL   O19240152   2.340   5.356   4.267 -0.2459  0.3304  0.0875
  181MOL   C19340153   2.257   5.268   4.061 -0.9305  0.1644 -0.3198
  181MOL   H19440154   2.260   5.184   4.460  0.4366 -0.3345  0.6486
  181MOL   H19540155   2.310   5.023   4.450  2.1760 -0.0868 -2.9744
  181MOL   H19640156   2.348   5.045   4.198  0.2704 -0.1239  0.2296
  181MOL   H19740157   2.175   5.201   4.034 -1.9725  0.8982  0.9922
  181MOL   H19840158   2.230   5.370   4.032 -0.4010  0.1895 -0.7429
  181MOL   H19940159   2.336   5.243   3.990 -0.6906  1.5523 -0.5532
  181MOL   C20040160   2.501   5.134   4.315 -0.3434  0.0288 -0.1747
  181MOL   C20140161   2.566   4.991   4.335  0.1567  0.2382  0.2422
  181MOL   C20240162   2.692   4.989   4.421  0.2393 -0.3560  0.3198
  181MOL   O20340163   2.806   4.974   4.380 -0.2843  0.0631  0.8161
  181MOL   C20440164   2.674   5.016   4.573 -0.2474 -0.1121  0.5615
  181MOL   H20540165   2.551   5.168   4.224 -1.6640 -1.3703 -1.4509
  181MOL   H20640166   2.526   5.201   4.397  1.5989 -0.7361 -0.1190
  181MOL   H20740167   2.492   4.928   4.385  2.0948 -0.0216  2.8922
  181MOL   H20840168   2.686   5.121   4.596 -3.1462 -0.0516  2.1360
  181MOL   H20940169   2.578   4.975   4.606 -0.8924 -1.4220 -2.6972
  181MOL   H21040170   2.748   4.949   4.618 -0.7396 -2.4444 -1.9498
  181MOL   C21140171   2.594   4.921   4.195 -0.0335 -0.5605  0.1297
  181MOL   C21240172   2.614   4.764   4.195  0.5347  0.8354 -0.1742
  181MOL   C21340173   2.480   4.685   4.190  0.1763  0.0569 -0.6693
  181MOL   O21440174   2.370   4.738   4.158  0.2642 -0.3050  0.2196
  181MOL   C21540175   2.486   4.546   4.247  0.0775 -0.4341  0.4927
  181MOL   H21640176   2.518   4.943   4.120  0.1878  0.1171  0.0971
  181MOL   H21740177   2.690   4.953   4.155  0.0639 -1.5613 -0.4487
  181MOL   H21840178   2.680   4.724   4.273  1.5160  2.4184 -0.1892
  181MOL   H21940179   2.579   4.502   4.212 -0.1843 -0.2825 -0.4033
  181MOL   H22040180   2.472   4.551   4.355 -2.5041 -1.3749  0.2287
  181MOL   H22140181   2.403   4.491   4.202 -1.3206  1.2477  0.9459
  181MOL   H22240182   2.666   4.744   4.102 -1.1232  1.2655 -1.1985
  182MOL     C140183   1.719   0.028   4.684  0.6827  0.5206  0.0543
  182MOL     C240184   1.616   0.041   4.800  0.1708  0.3750  0.1149
  182MOL     C340185   1.487   7.816   4.779  0.4388  0.0147  1.0034
  182MOL     O440186   1.441   7.737   4.864 -0.1964 -0.4129  0.2625
  182MOL     C540187   1.408   7.822   4.644  0.3824  0.3626  0.1907
  182MOL     H640188   1.671   0.062   4.593 -1.1335 -0.4805  0.5989
  182MOL     H740189   1.737   7.779   4.671  1.2645  0.4519  1.2936
  182MOL     H840190   1.575   0.142   4.803 -1.6757 -0.3180 -0.5241
  182MOL     H940191   1.370   0.061   4.613 -1.0897 -1.0232 -2.4484
  182MOL    H1040192   1.467   7.769   4.569 -0.2696 -1.1086  0.6845
  182MOL    H1140193   1.321   7.756   4.649  1.2125 -0.8990 -1.5249
  182MOL    H1240194   1.815   0.074   4.708  1.9125 -2.4621  1.1340
  182MOL    C1340195   1.680   0.019   4.941 -0.1688 -0.2277 -0.4372
  182MOL    C1440196   1.583   0.054   5.065 -0.0071 -0.0737 -0.6310
  182MOL    C1540197   1.540   0.196   5.062  0.2505  0.7760  0.1683
  182MOL    O1640198   1.611   0.291   5.083  0.0265  0.0911 -0.0034
  182MOL    C1740199   1.393   0.210   5.034 -0.6346 -0.1708  0.0489
  182MOL    H1840200   1.715   7.774   4.933  0.4324 -0.0685  0.0492
  182MOL    H1940201   1.767   0.082   4.964 -1.7163  1.8649 -0.1745
  182MOL    H2040202   1.496   7.846   5.068 -0.6986  0.7816 -1.6075
  182MOL    H2140203   1.369   0.241   4.933 -2.7112 -0.5115  0.4129
  182MOL    H2240204   1.333   0.122   5.056  0.8316 -0.9986  0.8202
  182MOL    H2340205   1.362   0.293   5.098  0.9387  0.6930 -0.2867
  182MOL    C2440206   1.651   0.019   5.200 -0.5151 -0.3668 -0.1311
  182MOL    C2540207   1.573   0.028   5.333 -0.0064  0.1432 -0.2045
  182MOL    C2640208   1.521   7.759   5.384  0.4043 -0.0901 -0.3304
  182MOL    O2740209   1.550   7.707   5.490  0.0423 -0.6427 -0.5088
  182MOL    C2840210   1.420   7.693   5.291 -0.0649 -0.1115 -0.1410
  182MOL    H2940211   1.698   7.778   5.194 -2.8179 -1.4392 -1.0436
  182MOL    H3040212   1.742   0.079   5.201 -1.3445  0.8787  1.5381
  182MOL    H3140213   1.480   0.080   5.315  0.4800  0.9468 -0.4156
  182MOL    H3240214   1.364   7.771   5.240  1.0291  0.9815  0.2989
  182MOL    H3340215   1.471   7.642   5.209  2.7821 -0.1939  1.6080
  182MOL    H3440216   1.350   7.629   5.345  1.5122  1.0431  3.4671
  182MOL    C3540217   1.652   0.113   5.444  0.3381 -0.7412 -0.8793
  182MOL    C3640218   1.570   0.233   5.508  0.6163 -0.3597  0.5061
  182MOL    C3740219   1.629   0.286   5.639  0.6229 -0.0199 -0.4603
  182MOL    O3840220   1.675   0.400   5.645 -0.0495 -0.0392  0.6524
  182MOL    C3940221   1.638   0.197   5.756  0.4694 -0.9579  0.3174
  182MOL    H4040222   1.743   0.153   5.398  2.1565 -1.0891  2.2615
  182MOL    H4140223   1.680   0.047   5.525  0.3578 -0.5738 -0.7502
  182MOL    H4240224   1.474   0.184   5.529  0.3607 -0.9242 -1.8841
  182MOL    H4340225   1.614   0.093   5.734  0.2488 -1.3335  2.2815
  182MOL    H4440226   1.555   0.230   5.818  1.7094  1.0316  0.9479
  182MOL    H4540227   1.729   0.213   5.814  1.1664 -3.0011 -0.1552
  182MOL    C4640228   1.540   0.344   5.398 -0.1473  0.0910 -0.4392
  182MOL    C4740229   1.465   0.473   5.441 -0.3248 -0.1400 -0.3575
  182MOL    C4840230   1.451   0.565   5.311  0.4732  0.4465  0.0035
  182MOL    O4940231   1.346   0.571   5.245  0.0134 -0.1318 -0.2856
  182MOL    C5040232   1.569   0.655   5.271  0.1467  0.4869  0.1768
  182MOL    H5140233   1.475   0.304   5.321 -1.4344  0.2432  0.5454
  182MOL    H5240234   1.631   0.358   5.339  1.7535 -0.5247  2.1872
  182MOL    H5340235   1.533   0.532   5.503  0.4764 -1.0773 -0.3178
  182MOL    H5440236   1.530   0.746   5.224 -1.3269  0.5935  1.5641
  182MOL    H5540237   1.623   0.696   5.356 -0.2605 -1.3928  1.3634
  182MOL    H5640238   1.635   0.603   5.201 -1.5959  0.3183 -1.3711
  182MOL    C5740239   1.330   0.453   5.522 -0.2640  0.1243 -0.1467
  182MOL    C5840240   1.308   0.568   5.618  0.2937 -0.2847 -0.3768
  182MOL    C5940241   1.162   0.621   5.611 -0.7511  0.5785  0.3484
  182MOL    O6040242   1.070   0.544   5.625 -0.2883 -0.1733 -0.2007
  182MOL    C6140243   1.122   0.764   5.626 -0.0661  0.4223  0.7126
  182MOL    H6240244   1.322   0.358   5.574 -2.0002 -1.6953 -3.5165
  182MOL    H6340245   1.247   0.464   5.452 -1.6194 -0.5619  1.3387
  182MOL    H6440246   1.370   0.651   5.584 -0.4213  0.8140  0.9267
  182MOL    H6540247   1.042   0.764   5.699 -0.1110 -1.1747  0.6994
  182MOL    H6640248   1.212   0.818   5.653  1.8482 -1.3511 -1.8452
  182MOL    H6740249   1.100   0.804   5.527  1.9646  3.2691  1.3754
  182MOL    C6840250   1.355   0.530   5.756 -0.1398  0.4098  0.3871
  182MOL    C6940251   1.384   0.643   5.856  0.3291 -0.0755  0.0141
  182MOL    C7040252   1.494   0.731   5.807  0.8540  0.1738  0.0909
  182MOL    O7140253   1.468   0.852   5.782 -0.2212  0.2562  0.0103
  182MOL    C7240254   1.636   0.672   5.806 -0.0608  0.7274  0.2029
  182MOL    H7340255   1.281   0.462   5.799  1.0209 -1.2256 -0.1400
  182MOL    H7440256   1.438   0.460   5.743 -0.3021  0.5636 -1.6253
  182MOL    H7540257   1.298   0.709   5.849  0.3098 -0.1031 -0.0072
  182MOL    H7640258   1.635   0.564   5.823  0.3562  0.4760 -1.2600
  182MOL    H7740259   1.688   0.690   5.712 -1.4838  2.9438 -0.1999
  182MOL    H7840260   1.684   0.718   5.892 -2.5317  1.2825  1.3355
  182MOL    C7940261   1.403   0.598   6.002 -0.8164  0.4771  0.7562
  182MOL    C8040262   1.287   0.542   6.082 -0.7184  0.0104 -0.0005
  182MOL    C8140263   1.160   0.624   6.063 -0.1720  0.8969 -0.2530
  182MOL    O8240264   1.156   0.746   6.087  0.6131  0.5064 -0.7994
  182MOL    C8340265   1.045   0.556   6.004 -0.0114 -0.5126  0.1700
  182MOL    H8440266   1.441   0.685   6.057 -2.0002  1.3541  0.2177
  182MOL    H8540267   1.485   0.526   6.011 -0.2108  0.8183 -1.5856
  182MOL    H8640268   1.264   0.444   6.042 -1.2294  0.7130 -1.4615
  182MOL    H8740269   1.072   0.477   5.933  0.3085 -0.2505  0.0033
  182MOL    H8840270   0.983   0.628   5.950  1.2042  0.7802  0.4939
  182MOL    H8940271   0.982   0.529   6.089  0.0940 -2.6526 -0.4002
  182MOL    C9040272   1.328   0.521   6.230 -0.4556 -0.1355 -0.7274
  182MOL    C9140273   1.227   0.443   6.314  0.4789 -0.0242  0.2570
  182MOL    C9240274   1.293   0.324   6.380  0.2805  0.2240  0.5200
  182MOL    O9340275   1.275   0.215   6.331  0.4294  0.4315 -0.1210
  182MOL    C9440276   1.376   0.346   6.504  0.4186 -0.4056  0.0104
  182MOL    H9540277   1.425   0.471   6.234 -0.4505 -0.0561  0.1384
  182MOL    H9640278   1.350   0.619   6.273 -1.7172  0.0360 -0.4463
  182MOL    H9740279   1.163   0.398   6.238  1.7498  0.6648 -1.2679
  182MOL    H9840280   1.443   0.261   6.518  0.7797 -0.7503 -3.4943
  182MOL    H9940281   1.424   0.443   6.495  0.7129 -0.7389 -2.2065
  182MOL   H10040282   1.307   0.343   6.588  0.2527 -0.7213 -0.1357
  182MOL   C10140283   1.152   0.539   6.411  0.6215 -0.3173  0.5039
  182MOL   C10240284   1.047   0.469   6.506  0.2591 -0.3418  0.4847
  182MOL   C10340285   0.936   0.411   6.421  0.5592 -0.4349 -0.1184
  182MOL   O10440286   0.887   0.462   6.319  0.2817  1.3286  0.2536
  182MOL   C10540287   0.883   0.278   6.475  0.8317  0.0409  0.4367
  182MOL   H10640288   1.224   0.589   6.476  0.9262 -0.8029  0.5391
  182MOL   H10740289   1.105   0.616   6.350  0.9731 -0.2665  0.2995
  182MOL   H10840290   1.094   0.384   6.556  0.2868  0.3572  1.6731
  182MOL   H10940291   0.797   0.293   6.539  0.4994  1.0671 -0.2456
  182MOL   H11040292   0.852   0.208   6.397  2.4685  1.4538 -1.5585
  182MOL   H11140293   0.963   0.233   6.535 -0.3038 -3.0781 -0.3072
  182MOL   C11240294   0.982   0.569   6.610 -0.5414 -0.1311  0.7583
  182MOL   C11340295   1.082   0.662   6.689  0.7645  0.3657 -0.0915
  182MOL   C11440296   1.184   0.569   6.760 -0.5602 -0.1771 -0.1862
  182MOL   O11540297   1.165   0.451   6.800  1.3546  0.1332  0.4128
  182MOL   C11640298   1.330   0.625   6.770 -0.0075  0.4813  0.3338
  182MOL   H11740299   0.927   0.506   6.679  0.0837 -1.2409  0.2562
  182MOL   H11840300   0.913   0.632   6.554 -0.2814 -1.1950 -0.7982
  182MOL   H11940301   1.131   0.734   6.624  2.7445  0.3869  1.3764
  182MOL   H12040302   1.337   0.682   6.863  0.1257 -0.6102  1.0038
  182MOL   H12140303   1.400   0.542   6.778  1.0514  1.1789 -1.5124
  182MOL   H12240304   1.356   0.699   6.694  2.4334 -0.3677  0.2968
  182MOL   C12340305   0.996   0.739   6.795 -0.1941  0.7013 -0.3963
  182MOL   C12440306   0.965   0.883   6.759 -0.6686 -0.3646  0.2382
  182MOL   C12540307   1.091   0.969   6.772  0.1239  0.0008  0.2927
  182MOL   O12640308   1.182   0.936   6.839  0.4443 -0.3317  0.4387
  182MOL   C12740309   1.088   1.109   6.703  0.0066 -0.0548 -0.6549
  182MOL   H12840310   1.062   0.740   6.882 -1.1263 -0.3534  0.3207
  182MOL   H12940311   0.905   0.685   6.821  0.1857  0.5547  0.6572
  182MOL   H13040312   0.938   0.893   6.654  0.4785 -0.4038 -0.0664
  182MOL   H13140313   1.026   1.108   6.613 -2.0739  0.7760  0.7428
  182MOL   H13240314   1.186   1.148   6.675  0.0517  0.4173  0.1379
  182MOL   H13340315   1.046   1.181   6.772  0.7038  0.3298 -0.6261
  182MOL   C13440316   0.839   0.950   6.825  0.0826  0.2354  0.2481
  182MOL   C13540317   0.833   0.943   6.976 -0.2126  0.7911 -1.0142
  182MOL   C13640318   0.921   1.047   7.037 -0.0323 -0.7833 -0.2950
  182MOL   O13740319   0.893   1.167   7.034  0.7561  0.1876  0.0896
  182MOL   C13840320   1.032   0.997   7.124 -0.2923  0.1068 -0.2995
  182MOL   H13940321   0.758   0.897   6.774  2.4169 -1.6041 -1.6583
  182MOL   H14040322   0.821   1.055   6.802  2.1243 -0.0626 -2.9579
  182MOL   H14140323   0.869   0.845   7.011 -1.9821  0.3200 -0.4678
  182MOL   H14240324   1.107   0.957   7.057  1.8462  1.8525  0.9608
  182MOL   H14340325   0.993   0.918   7.189 -0.9734  1.7036  1.2946
  182MOL   H14440326   1.062   1.081   7.187 -0.0330 -1.5827  1.9134
  182MOL   C14540327   0.689   0.944   7.019  0.2937 -0.2560  0.7105
  182MOL   C14640328   0.662   0.923   7.171  0.2389 -0.1954  0.0814
  182MOL   C14740329   0.589   1.036   7.235  0.7096 -0.5152  0.4589
  182MOL   O14840330   0.490   1.085   7.182  0.5358  0.2735 -0.9358
  182MOL   C14940331   0.648   1.088   7.363 -0.3610 -0.4213 -0.0719
  182MOL   H15040332   0.637   0.861   6.970  0.4895  0.9993 -1.6899
  182MOL   H15140333   0.634   1.033   6.989 -1.1722 -0.7393  1.9068
  182MOL   H15240334   0.758   0.923   7.223  0.7662  0.8973 -0.8772
  182MOL   H15340335   0.603   1.184   7.389 -0.0592  0.2980 -2.1325
  182MOL   H15440336   0.633   1.010   7.439 -0.4183 -0.3771 -0.0369
  182MOL   H15540337   0.756   1.087   7.349 -0.4760 -1.4167 -0.9429
  182MOL   C15640338   0.588   0.786   7.199  0.8388  0.2079  0.0277
  182MOL   C15740339   0.663   0.651   7.199 -0.3663  0.2719 -0.0867
  182MOL   C15840340   0.814   0.656   7.246 -0.5489 -0.3034 -0.2935
  182MOL   O15940341   0.914   0.655   7.172  0.5167  0.0069 -0.3447
  182MOL   C16040342   0.839   0.680   7.394  0.4781  0.3720 -0.3771
  182MOL   H16140343   0.540   0.804   7.295 -1.3240 -1.1492 -0.7527
  182MOL   H16240344   0.497   0.774   7.138 -0.3274  1.5779  1.4542
  182MOL   H16340345   0.612   0.591   7.274  3.2971 -1.6546  0.9640
  182MOL   H16440346   0.806   0.776   7.435  1.6125  2.0083 -3.1780
  182MOL   H16540347   0.947   0.681   7.412  0.3918 -0.0463  0.1732
  182MOL   H16640348   0.813   0.594   7.456  0.2895 -0.6595 -1.8603
  182MOL   C16740349   0.650   0.582   7.061  0.3840  0.5432 -0.2449
  182MOL   C16840350   0.694   0.431   7.051 -0.6972 -1.1498  0.1028
  182MOL   C16940351   0.739   0.395   6.909  0.2548 -0.5513 -0.3889
  182MOL   O17040352   0.697   0.454   6.804  0.2261  0.3955  0.2281
  182MOL   C17140353   0.861   0.302   6.895 -0.3344 -0.4330  0.3636
  182MOL   H17240354   0.548   0.581   7.024 -0.2609 -1.4930  1.4943
  182MOL   H17340355   0.715   0.638   6.993  0.8231  2.4021  1.6392
  182MOL   H17440356   0.789   0.424   7.102 -0.7645 -0.0842  0.3876
  182MOL   H17540357   0.936   0.323   6.972  1.1182  0.5437 -1.2953
  182MOL   H17640358   0.898   0.308   6.793 -0.4165 -0.3298  0.3392
  182MOL   H17740359   0.824   0.201   6.909  0.0850 -0.4745  1.2325
  182MOL   C17840360   0.604   0.328   7.104  0.4023  0.0571  0.1844
  182MOL   C17940361   0.465   0.311   7.030 -0.6315  0.5429  0.0920
  182MOL   C18040362   0.356   0.402   7.085 -0.1457  0.0594 -0.0999
  182MOL   O18140363   0.372   0.445   7.199  0.2588 -0.3591 -0.2149
  182MOL   C18240364   0.243   0.441   6.995 -0.0477 -0.4091 -0.6180
  182MOL   H18340365   0.657   0.233   7.104 -0.7090 -0.5730  0.9424
  182MOL   H18440366   0.580   0.335   7.211 -0.3491  0.3198 -0.0000
  182MOL   H18540367   0.483   0.343   6.928 -0.8114  0.3098 -0.0139
  182MOL   H18640368   0.277   0.471   6.896 -0.5380  0.9139 -0.3977
  182MOL   H18740369   0.172   0.512   7.039 -0.0238  0.1707 -1.4984
  182MOL   H18840370   0.182   0.352   6.980 -0.9013 -0.4719  2.7587
  182MOL   C18940371   0.420   0.158   7.025 -0.0362 -0.6603  0.4247
  182MOL   C19040372   0.387   0.109   7.170 -0.1168 -0.1269 -0.2674
  182MOL   C19140373   0.232   0.131   7.205  0.4172 -0.2101 -0.1166
  182MOL   O19240374   0.144   0.146   7.123  0.1753  0.4893 -0.2260
  182MOL   C19340375   0.198   0.150   7.347 -0.5141 -0.0117 -0.1539
  182MOL   H19440376   0.331   0.150   6.962 -1.4440  0.5575  2.2038
  182MOL   H19540377   0.498   0.095   6.982 -0.0634  0.1801 -0.8934
  182MOL   H19640378   0.439   0.176   7.238 -1.4226 -0.5437  1.1901
  182MOL   H19740379   0.290   0.151   7.406 -0.3471  3.0396 -0.3741
  182MOL   H19840380   0.142   0.240   7.373  0.6632  0.5948  0.3324
  182MOL   H19940381   0.135   0.071   7.388  0.9797 -0.8336  0.5924
  182MOL   C20040382   0.425   7.816   7.193  0.0889  0.1011 -0.1567
  182MOL   C20140383   0.449   7.783   7.343 -0.2028  0.3104 -0.0841
  182MOL   C20240384   0.570   0.003   7.393  0.0802 -0.5793  0.2005
  182MOL   O20340385   0.668   0.018   7.317  0.2504  0.5046  0.3488
  182MOL   C20440386   0.583   0.053   7.539 -0.2187  0.3727  1.0518
  182MOL   H20540387   0.340   7.760   7.156 -0.9707  0.1528  2.1444
  182MOL   H20640388   0.512   7.781   7.137 -0.4012  0.8700 -1.4291
  182MOL   H20740389   0.367   7.821   7.404 -0.1367 -1.1191  0.9031
  182MOL   H20840390   0.488   0.080   7.585  0.1969 -0.7258  2.5948
  182MOL   H20940391   0.624   7.829   7.599  0.1319  0.0921  0.4433
  182MOL   H21040392   0.642   0.143   7.559  1.8754 -0.7760  0.2162
  182MOL   C21140393   0.458   7.633   7.360 -0.2356  0.0010 -1.2267
  182MOL   C21240394   0.473   7.591   7.504 -0.2551  0.2886 -0.3084
  182MOL   C21340395   0.509   7.444   7.522  0.5617 -0.3483  0.0253
  182MOL   O21440396   0.540   7.368   7.431 -0.5188 -0.6760 -0.0049
  182MOL   C21540397   0.511   7.404   7.670 -0.2615  0.0165 -1.2395
  182MOL   H21640398   0.369   7.587   7.316 -0.7083  1.1343 -1.4863
  182MOL   H21740399   0.544   7.599   7.303 -0.7773 -0.3602 -1.8406
  182MOL   H21840400   0.374   7.608   7.545 -0.9879 -2.0453 -1.0751
  182MOL   H21940401   0.418   7.364   7.711  0.4974 -1.6689 -1.0847
  182MOL   H22040402   0.595   7.335   7.680 -1.7671 -1.5977  0.7888
  182MOL   H22140403   0.526   7.495   7.727 -0.8771 -1.6785  1.7839
  182MOL   H22240404   0.552   7.641   7.561  0.6984 -0.3991 -1.0099
  183MOL     C140405   1.304   7.099   0.282 -0.2241 -0.5727  0.3021
  183MOL     C240406   1.321   7.249   0.323 -0.4192  0.2102  0.1671
  183MOL     C340407   1.278   7.334   0.202 -0.2916 -0.0082  0.0074
  183MOL     O440408   1.193   7.426   0.213  0.3539  0.9058 -0.1579
  183MOL     C540409   1.331   7.306   0.061 -0.1315  0.5497 -0.2034
  183MOL     H640410   1.205   7.067   0.249 -1.1380  2.3820  0.0598
  183MOL     H740411   1.330   7.044   0.373  0.9114 -1.6623 -0.6519
  183MOL     H840412   1.427   7.269   0.340 -0.2000 -1.0665  0.3846
  183MOL     H940413   1.267   7.225   0.027  1.8207 -1.5917  1.1000
  183MOL    H1040414   1.307   7.398   0.007  0.1023  0.7372  0.0116
  183MOL    H1140415   1.438   7.284   0.062 -0.6157 -1.9224  0.4063
  183MOL    H1240416   1.379   7.071   0.208 -0.7598 -2.3643  0.3982
  183MOL    C1340417   1.242   7.287   0.454 -0.4928 -0.0389  0.1745
  183MOL    C1440418   1.269   7.200   0.578 -0.3800  0.0240 -0.4664
  183MOL    C1540419   1.190   7.238   0.699 -0.1072  0.1515  0.2270
  183MOL    O1640420   1.160   7.354   0.727 -0.0381  0.9185  0.1285
  183MOL    C1740421   1.136   7.126   0.780  0.1993  0.3618  0.0448
  183MOL    H1840422   1.263   7.392   0.472 -1.0191  0.4873 -2.0602
  183MOL    H1940423   1.136   7.281   0.433 -0.1583 -1.1704 -1.3002
  183MOL    H2040424   1.242   7.096   0.564 -2.6872  0.4414  0.6382
  183MOL    H2140425   1.111   7.037   0.722  1.9031  0.4099 -0.7887
  183MOL    H2240426   1.206   7.102   0.860  1.6687  1.5784 -0.8474
  183MOL    H2340427   1.038   7.155   0.820 -0.3868 -2.1305  0.5041
  183MOL    C2440428   1.419   7.203   0.615  0.5308 -0.0280 -0.5120
  183MOL    C2540429   1.465   7.096   0.713 -0.9815  0.4256 -0.4446
  183MOL    C2640430   1.453   6.953   0.660  0.0993  0.1436 -0.2501
  183MOL    O2740431   1.367   6.880   0.694  0.9098 -0.3658 -0.1999
  183MOL    C2840432   1.570   6.912   0.572 -0.4735  0.7001 -0.3133
  183MOL    H2940433   1.491   7.188   0.535 -1.5819 -0.9609 -2.2928
  183MOL    H3040434   1.447   7.302   0.650  2.7420 -0.7117 -0.2778
  183MOL    H3140435   1.401   7.095   0.802 -1.1684  3.5757 -0.4948
  183MOL    H3240436   1.576   6.803   0.570 -1.2170  0.6441  0.1595
  183MOL    H3340437   1.566   6.948   0.470 -3.4090 -2.1426 -1.2739
  183MOL    H3440438   1.662   6.953   0.613 -1.0675 -0.5030  2.3664
  183MOL    C3540439   1.602   7.136   0.783  0.1584 -0.6902 -0.3007
  183MOL    C3640440   1.653   7.036   0.899  0.2276  0.1418 -0.3022
  183MOL    C3740441   1.795   7.067   0.934  0.4649  0.2078 -0.2926
  183MOL    O3840442   1.849   7.183   0.928  0.5170 -0.4114  0.4731
  183MOL    C3940443   1.882   6.947   0.977 -0.5772 -0.3316 -0.4117
  183MOL    H4040444   1.594   7.238   0.819 -2.5893 -0.8515 -0.3585
  183MOL    H4140445   1.682   7.145   0.710  2.4088  1.1997  2.2714
  183MOL    H4240446   1.674   6.935   0.861  0.4645  0.0462  0.0840
  183MOL    H4340447   1.878   6.943   1.086  1.4823  1.2693 -0.2433
  183MOL    H4440448   1.986   6.956   0.945 -0.3583 -0.6137  0.2128
  183MOL    H4540449   1.832   6.864   0.926 -1.3436  0.2560 -0.6174
  183MOL    C4640450   1.562   7.021   1.019  0.6652  0.1518 -0.4254
  183MOL    C4740451   1.471   6.899   1.015  0.0066 -0.1696  0.2694
  183MOL    C4840452   1.538   6.763   1.020 -0.4560 -0.3093  0.3107
  183MOL    O4940453   1.641   6.752   1.081 -0.0981 -0.4737  0.2425
  183MOL    C5040454   1.483   6.652   0.928  0.1576  0.1280 -0.0986
  183MOL    H5140455   1.502   7.112   1.032 -0.4835 -0.5100 -1.0107
  183MOL    H5240456   1.627   7.010   1.105 -0.5666 -0.4128  0.4536
  183MOL    H5340457   1.391   6.902   0.940 -0.1454 -0.2789  0.4267
  183MOL    H5440458   1.551   6.568   0.913 -1.9455 -1.6053 -0.1888
  183MOL    H5540459   1.394   6.601   0.964 -1.9912  2.1021 -2.3777
  183MOL    H5640460   1.480   6.693   0.827  0.5103 -2.1007 -1.0255
  183MOL    C5740461   1.374   6.911   1.140 -0.1483 -0.2729 -0.1439
  183MOL    C5840462   1.247   6.824   1.144  0.4410 -0.0968 -0.7968
  183MOL    C5940463   1.197   6.809   1.294  0.6101  0.3317  0.4435
  183MOL    O6040464   1.099   6.863   1.343 -0.4855  0.4223  0.0499
  183MOL    C6140465   1.288   6.728   1.380  0.4668  0.4277 -0.7040
  183MOL    H6240466   1.350   7.017   1.143  3.7954  0.7029 -0.1493
  183MOL    H6340467   1.422   6.903   1.238  0.5687  2.0428 -0.2816
  183MOL    H6440468   1.277   6.725   1.111  0.9201 -0.0900 -0.3964
  183MOL    H6540469   1.279   6.621   1.359 -1.2215  0.0284  1.7580
  183MOL    H6640470   1.392   6.759   1.384  0.8528 -0.9180  0.1200
  183MOL    H6740471   1.249   6.740   1.481 -2.0924  0.0826 -1.6136
  183MOL    C6840472   1.141   6.873   1.047  0.1947 -0.5008 -0.1375
  183MOL    C6940473   1.006   6.796   1.032 -0.3513  0.1916 -0.3948
  183MOL    C7040474   1.038   6.654   0.976 -0.0535  1.4887  0.0093
  183MOL    O7140475   1.069   6.645   0.858 -0.7743  0.1611  0.3201
  183MOL    C7240476   1.023   6.531   1.067 -0.0638  0.2216  0.5299
  183MOL    H7340477   1.119   6.979   1.061  0.4112 -0.3860 -0.6554
  183MOL    H7440478   1.173   6.879   0.943  1.1449  0.6555  0.2100
  183MOL    H7540479   0.956   6.790   1.128 -2.1500 -1.1539 -1.3945
  183MOL    H7640480   1.124   6.492   1.071 -0.5076 -0.8903  1.2028
  183MOL    H7740481   1.004   6.567   1.168  0.7114  2.6262 -0.1626
  183MOL    H7840482   0.954   6.460   1.019  1.7046  0.2108 -2.0991
  183MOL    C7940483   0.897   6.862   0.940  0.4371  0.0692 -0.0970
  183MOL    C8040484   0.751   6.850   0.991  0.3685 -0.4751  0.4009
  183MOL    C8140485   0.698   6.705   0.995  0.3984 -0.1250  0.1111
  183MOL    O8240486   0.682   6.650   1.099 -0.4105  0.8714 -0.5743
  183MOL    C8340487   0.667   6.633   0.861  0.0602 -0.8157 -0.1833
  183MOL    H8440488   0.903   6.822   0.839 -0.1096 -0.4345  0.0645
  183MOL    H8540489   0.909   6.970   0.931 -1.8707  0.2763 -1.2357
  183MOL    H8640490   0.749   6.880   1.096 -1.4318  1.7433 -0.2385
  183MOL    H8740491   0.727   6.665   0.777 -1.2926 -0.6562 -1.1106
  183MOL    H8840492   0.561   6.639   0.834 -0.0821  1.6725  0.7373
  183MOL    H8940493   0.683   6.526   0.873 -0.3132 -0.9327 -0.7342
  183MOL    C9040494   0.657   6.941   0.907  0.8180  0.8093  0.0068
  183MOL    C9140495   0.683   7.090   0.920  0.0102 -0.6728 -0.5643
  183MOL    C9240496   0.605   7.164   0.817 -0.2403 -0.1911  0.7617
  183MOL    O9340497   0.481   7.166   0.821 -0.8514  0.1122  0.3263
  183MOL    C9440498   0.676   7.234   0.708  0.1030  0.2628 -0.4870
  183MOL    H9540499   0.661   6.911   0.802  2.1603  0.1124  0.2558
  183MOL    H9640500   0.557   6.914   0.942  1.5472 -1.1561  0.6414
  183MOL    H9740501   0.787   7.105   0.891 -0.4093  0.4106 -1.5500
  183MOL    H9840502   0.596   7.279   0.649  1.3519  3.5277  0.2071
  183MOL    H9940503   0.736   7.314   0.752 -0.1414 -0.3814  1.0382
  183MOL   H10040504   0.729   7.170   0.637 -0.1152  2.0703 -2.3148
  183MOL   C10140505   0.643   7.145   1.059 -0.2112 -0.3610 -0.7612
  183MOL   C10240506   0.736   7.265   1.113 -0.3186  0.3149 -0.6410
  183MOL   C10340507   0.752   7.384   1.027 -0.0909  0.0661 -0.5292
  183MOL   O10440508   0.853   7.406   0.952  0.2473 -0.4858  0.2826
  183MOL   C10540509   0.636   7.482   1.030  0.4514 -0.0776 -0.2858
  183MOL   H10640510   0.536   7.164   1.058 -0.3529 -1.0252  0.5619
  183MOL   H10740511   0.652   7.069   1.137  0.1722 -1.0721 -1.4864
  183MOL   H10840512   0.693   7.300   1.207  0.1921 -1.7223  0.3689
  183MOL   H10940513   0.547   7.446   1.083  1.1740 -0.1324  0.9003
  183MOL   H11040514   0.674   7.570   1.081 -0.2516  0.2228 -0.2647
  183MOL   H11140515   0.603   7.522   0.934  1.2989  0.9149 -0.1721
  183MOL   C11240516   0.876   7.205   1.148  0.7097  0.7321 -0.1004
  183MOL   C11340517   0.969   7.295   1.234 -0.1360 -0.3902 -0.5991
  183MOL   C11440518   1.112   7.264   1.189  1.4017  0.1438  0.2360
  183MOL   O11540519   1.180   7.170   1.232  0.0178 -0.0342  0.7715
  183MOL   C11640520   1.175   7.351   1.082  0.3399  0.5972  1.0505
  183MOL   H11740521   0.922   7.188   1.050 -1.1990 -0.5710 -0.7911
  183MOL   H11840522   0.861   7.111   1.201  0.5065 -0.1946 -1.7390
  183MOL   H11940523   0.951   7.396   1.198  0.2638 -0.2678 -0.4539
  183MOL   H12040524   1.216   7.285   1.005 -0.4549  2.6997 -1.2608
  183MOL   H12140525   1.093   7.409   1.038 -0.3829 -1.7543 -0.8019
  183MOL   H12240526   1.253   7.421   1.111  0.7006 -0.2803  2.2030
  183MOL   C12340527   0.962   7.292   1.391 -0.1436  0.2473  0.1351
  183MOL   C12440528   0.835   7.342   1.466 -0.1195  0.3014  0.9109
  183MOL   C12540529   0.720   7.236   1.460 -0.3474 -0.1101 -0.0882
  183MOL   O12640530   0.612   7.265   1.417  0.1277  0.1983  0.1426
  183MOL   C12740531   0.752   7.104   1.532  0.9964 -0.5432 -0.2609
  183MOL   H12840532   1.051   7.338   1.434  0.4925 -0.5830 -0.2571
  183MOL   H12940533   0.977   7.189   1.424 -0.7608 -0.1272 -0.7526
  183MOL   H13040534   0.878   7.347   1.565  0.6701  0.1229  0.5763
  183MOL   H13140535   0.828   7.109   1.610  2.0176 -1.5296 -1.1715
  183MOL   H13240536   0.791   7.038   1.454  0.9780 -0.7628 -0.0862
  183MOL   H13340537   0.665   7.048   1.566 -0.7856  3.2018  1.6564
  183MOL   C13440538   0.788   7.480   1.419  0.0111 -0.3296 -0.1416
  183MOL   C13540539   0.721   7.569   1.526 -0.2144 -0.3611  0.0610
  183MOL   C13640540   0.819   7.663   1.587  0.5489 -0.0226 -0.8023
  183MOL   O13740541   0.810   7.785   1.557  0.3492  0.5781 -0.0838
  183MOL   C13840542   0.930   7.600   1.669  0.6701 -0.8562 -0.0316
  183MOL   H13940543   0.722   7.459   1.334 -0.2033  1.9000 -0.5577
  183MOL   H14040544   0.873   7.523   1.366  0.5634 -2.1766 -0.8209
  183MOL   H14140545   0.695   7.504   1.610 -1.0169 -0.7060 -0.4532
  183MOL   H14240546   0.974   7.684   1.722  0.9465 -0.3706 -1.0191
  183MOL   H14340547   0.994   7.556   1.592 -1.6265 -0.0502 -2.4930
  183MOL   H14440548   0.884   7.546   1.751  1.8874  0.6196  1.6417
  183MOL   C14540549   0.597   7.631   1.463 -0.0721 -0.4375  0.0446
  183MOL   C14640550   0.514   7.695   1.574  0.7186  0.1244  0.4122
  183MOL   C14740551   0.431   7.818   1.524  0.0996 -0.4948  0.2231
  183MOL   O14840552   0.313   7.837   1.542 -0.7632  0.3033 -0.3259
  183MOL   C14940553   0.512   0.073   1.457 -0.0322  0.1007  0.2657
  183MOL   H15040554   0.536   7.554   1.415  1.4713 -0.1305 -2.5076
  183MOL   H15140555   0.626   7.702   1.386 -1.4718  1.2385  1.0079
  183MOL   H15240556   0.588   7.729   1.646  1.9127 -0.2323 -0.6394
  183MOL   H15340557   0.481   0.169   1.498  0.6458 -0.0997  1.2562
  183MOL   H15440558   0.617   0.073   1.487 -0.3170 -1.1961  1.3396
  183MOL   H15540559   0.490   0.083   1.351  0.1673 -1.8176  0.0118
  183MOL   C15640560   0.415   7.592   1.644  0.0872 -0.3735 -0.3586
  183MOL   C15740561   0.392   7.628   1.790  0.4590  0.1294  0.1528
  183MOL   C15840562   0.517   7.596   1.881 -0.2345  0.2958 -0.5962
  183MOL   O15940563   0.626   7.557   1.840 -0.3997 -0.2360  0.0807
  183MOL   C16040564   0.507   7.620   2.029  0.1385  0.1209 -0.1812
  183MOL   H16140565   0.327   7.584   1.579  1.5414  0.2739 -2.4748
  183MOL   H16240566   0.455   7.492   1.630  1.2664  0.1468 -0.7869
  183MOL   H16340567   0.373   7.734   1.805  0.1202  0.2231 -0.8838
  183MOL   H16440568   0.433   7.699   2.038  0.3837  0.3298 -0.0063
  183MOL   H16540569   0.603   7.653   2.070  0.2365 -0.3700 -0.0039
  183MOL   H16640570   0.475   7.535   2.090 -1.1920 -1.0438 -2.4485
  183MOL   C16740571   0.257   7.567   1.849  0.7034  0.0687 -0.9147
  183MOL   C16840572   0.127   7.613   1.783 -0.1512  0.4732  0.5721
  183MOL   C16940573   0.024   7.651   1.892  0.1321 -0.6160 -0.2553
  183MOL   O17040574   7.837   7.570   1.973 -0.2624  0.1518 -0.6936
  183MOL   C17140575   7.834   7.800   1.895 -0.3629 -0.0301 -0.3169
  183MOL   H17240576   0.259   7.458   1.851 -0.2672  0.0569 -0.4059
  183MOL   H17340577   0.247   7.599   1.953  1.6505 -0.0673 -0.7713
  183MOL   H17440578   0.149   7.701   1.722  2.2573 -0.9819 -0.7747
  183MOL   H17540579   7.760   7.809   1.974  0.0331 -0.3177  0.0887
  183MOL   H17640580   7.792   7.831   1.799 -0.2594 -0.1097 -0.3890
  183MOL   H17740581   0.061   0.007   1.919 -0.2535 -0.9843  1.9795
  183MOL   C17840582   0.073   7.497   1.696 -0.3427  0.1623  0.0498
  183MOL   C17940583   7.820   7.543   1.596 -0.3606 -0.2323 -0.1252
  183MOL   C18040584   7.746   7.419   1.552 -0.1219  0.1743 -0.2060
  183MOL   O18140585   7.766   7.371   1.443  0.1267 -0.0505 -0.1148
  183MOL   C18240586   7.647   7.352   1.649 -0.0889  0.4193 -0.4145
  183MOL   H18340587   0.155   7.449   1.642 -0.4968  1.2549 -1.2114
  183MOL   H18440588   0.034   7.421   1.763  1.1203 -0.9661 -0.3541
  183MOL   H18540589   7.746   7.589   1.661  2.9574 -2.2355  5.3162
  183MOL   H18640590   7.720   7.299   1.711  0.0168  0.4298 -0.5307
  183MOL   H18740591   7.585   7.277   1.600 -0.6559  0.0728  0.8139
  183MOL   H18840592   7.579   7.416   1.706  0.2773  0.5133 -0.0819
  183MOL   C18940593   0.007   7.631   1.470  0.4047 -0.0709  0.3244
  183MOL   C19040594   7.761   7.683   1.363  0.3542 -0.1110 -0.4010
  183MOL   C19140595   7.630   7.734   1.426  0.0727  0.0569 -0.4582
  183MOL   O19240596   7.626   7.763   1.550 -0.5562 -0.2296  0.2917
  183MOL   C19340597   7.517   7.778   1.341 -0.3347 -0.1764 -0.4729
  183MOL   H19440598   0.067   7.717   1.499  2.7544 -2.0064  1.3243
  183MOL   H19540599   0.088   7.579   1.419  0.6857  0.6774 -0.0070
  183MOL   H19640600   7.741   7.598   1.298  0.0947  1.0061 -1.8296
  183MOL   H19740601   7.531   0.023   1.308 -2.2027  0.8963  1.8735
  183MOL   H19840602   7.500   7.704   1.262  0.1008  0.2072 -0.9234
  183MOL   H19940603   7.423   7.788   1.396 -0.2758  0.7496 -0.5397
  183MOL   C20040604   7.821   7.789   1.272  0.2126  0.7768 -0.2444
  183MOL   C20140605   0.054   0.053   1.322  0.2119  0.5681  0.2081
  183MOL   C20240606   7.833   0.152   1.419 -0.0211 -0.1233 -0.1479
  183MOL   O20340607   7.734   0.217   1.383 -0.1827 -0.3208  0.1843
  183MOL   C20440608   0.039   0.175   1.557 -0.2804  0.3160  0.0282
  183MOL   H20540609   0.033   7.738   1.205  1.4183  1.1208  0.7227
  183MOL   H20640610   7.752   7.835   1.200 -0.3925 -0.0493 -0.1895
  183MOL   H20740611   0.151   0.023   1.361  1.0050 -0.8823 -2.7640
  183MOL   H20840612   0.132   0.227   1.534  0.9014 -2.1380 -1.0399
  183MOL   H20940613   7.824   0.213   1.628 -0.2033 -1.2459  0.9739
  183MOL   H21040614   0.074   0.082   1.602  1.1697  1.4147  1.2117
  183MOL   C21140615   0.109   0.124   1.193  0.1940  0.0727  0.7224
  183MOL   C21240616   0.257   0.166   1.190 -1.1374  0.0289 -0.2523
  183MOL   C21340617   0.322   0.217   1.062  0.8160 -0.6304 -0.3469
  183MOL   O21440618   0.257   0.247   0.963 -0.1524  0.0924 -0.1068
  183MOL   C21540619   0.472   0.239   1.059  0.2775 -0.0400  0.5813
  183MOL   H21640620   0.093   0.059   1.106 -1.1546  0.7071  0.4837
  183MOL   H21740621   0.047   0.206   1.158 -0.0798 -0.5153 -0.1891
  183MOL   H21840622   0.320   0.085   1.227  1.2740  0.9462 -2.1878
  183MOL   H21940623   0.528   0.158   1.013  1.6579  0.4491  1.3469
  183MOL   H22040624   0.500   0.321   0.993 -1.6890  0.5190  0.4149
  183MOL   H22140625   0.518   0.262   1.155 -0.5339  1.0432  0.7215
  183MOL   H22240626   0.268   0.250   1.259 -0.5974 -2.1720  2.3858
  184MOL     C140627   4.444   3.717   3.003  0.1020  0.0611  0.5387
  184MOL     C240628   4.518   3.851   3.023  0.2467  0.1083  0.0512
  184MOL     C340629   4.563   3.912   2.887  0.4588 -0.0787 -0.9718
  184MOL     O440630   4.484   3.911   2.795  0.2789  0.5727 -0.3823
  184MOL     C540631   4.705   3.963   2.871 -0.2141  0.5940  0.0142
  184MOL     H640632   4.453   3.647   3.087 -1.1280  1.0510  1.5108
  184MOL     H740633   4.480   3.662   2.916  1.1532  0.2161  0.8668
  184MOL     H840634   4.608   3.834   3.081 -1.3378 -1.7586  2.0589
  184MOL     H940635   4.723   4.058   2.923  2.5571  1.5403 -2.5056
  184MOL    H1040636   4.775   3.889   2.910  1.9581  2.9033  0.6974
  184MOL    H1140637   4.735   3.969   2.766  1.6189  1.5244  0.5581
  184MOL    H1240638   4.339   3.742   2.986  0.4770  1.0398 -0.3454
  184MOL    C1340639   4.420   3.947   3.101 -0.3600 -0.0521 -0.1746
  184MOL    C1440640   4.463   4.046   3.212  0.3134 -1.0541  0.0098
  184MOL    C1540641   4.569   4.150   3.161  0.0510 -0.0050  0.3028
  184MOL    O1640642   4.661   4.187   3.242  0.2008 -0.4298 -0.2542
  184MOL    C1740643   4.539   4.217   3.022 -0.2667  0.3164 -0.2965
  184MOL    H1840644   4.363   4.009   3.031  1.9544  3.1190  0.5952
  184MOL    H1940645   4.341   3.882   3.136 -0.1120 -0.1946  0.1252
  184MOL    H2040646   4.384   4.116   3.240  1.5144  1.0639 -1.7663
  184MOL    H2140647   4.468   4.297   3.047  0.0020 -0.1149  2.0206
  184MOL    H2240648   4.631   4.250   2.974  1.4031 -0.0074  2.5470
  184MOL    H2340649   4.490   4.153   2.949 -0.9232  1.3792 -0.7919
  184MOL    C2440650   4.515   3.967   3.334 -0.5192  0.3550 -0.9917
  184MOL    C2540651   4.515   4.051   3.463  0.1213 -0.2807  0.0330
  184MOL    C2640652   4.401   3.997   3.559  0.0186 -0.9589  0.5574
  184MOL    O2740653   4.316   4.076   3.607  0.2372  0.2846 -0.1650
  184MOL    C2840654   4.412   3.852   3.603 -0.2512 -0.6363 -0.2388
  184MOL    H2940655   4.465   3.870   3.342 -0.5436  0.1768 -2.9215
  184MOL    H3040656   4.615   3.929   3.309 -1.4443 -1.5810 -1.9120
  184MOL    H3140657   4.478   4.152   3.446 -0.0143 -0.3195  0.0949
  184MOL    H3240658   4.506   3.801   3.580  0.1045 -0.5537  0.9883
  184MOL    H3340659   4.391   3.855   3.710  1.3678 -0.4736  0.0898
  184MOL    H3440660   4.334   3.790   3.559  0.0396  0.7928 -2.8598
  184MOL    C3540661   4.659   4.055   3.527  0.5667 -0.0337  0.0627
  184MOL    C3640662   4.676   4.153   3.655  0.4010 -0.6065 -0.3759
  184MOL    C3740663   4.726   4.080   3.781  0.2458  0.3615  0.0997
  184MOL    O3840664   4.837   4.028   3.788 -0.4160  0.2083  0.0577
  184MOL    C3940665   4.628   4.054   3.891  0.3062 -0.5761 -0.1911
  184MOL    H4040666   4.731   4.095   3.456  2.0267 -0.0013  1.5182
  184MOL    H4140667   4.684   3.951   3.548 -1.7883 -0.5799  0.2581
  184MOL    H4240668   4.577   4.184   3.691 -0.1393  0.1219 -2.3978
  184MOL    H4340669   4.617   4.137   3.960 -1.6761 -0.3404 -0.7516
  184MOL    H4440670   4.647   3.955   3.932 -0.8061 -0.8178 -0.2528
  184MOL    H4540671   4.530   4.025   3.853 -0.9828 -0.3767  2.9053
  184MOL    C4640672   4.761   4.275   3.634  0.3824  0.3702 -0.3992
  184MOL    C4740673   4.699   4.394   3.565 -0.1096 -0.1030 -0.6299
  184MOL    C4840674   4.592   4.466   3.648 -0.3601  0.0192  0.2367
  184MOL    O4940675   4.575   4.453   3.765  0.0439  0.4268  0.6750
  184MOL    C5040676   4.508   4.552   3.565  0.4927  0.1253  0.0127
  184MOL    H5140677   4.856   4.254   3.584  0.7765 -0.5082  0.7110
  184MOL    H5240678   4.792   4.318   3.729  2.5185 -2.2671  0.1546
  184MOL    H5340679   4.652   4.351   3.477  1.3128 -0.7361 -1.1009
  184MOL    H5440680   4.558   4.642   3.529 -1.3196  1.1043 -0.1745
  184MOL    H5540681   4.467   4.503   3.477 -1.2472  1.3955  0.0837
  184MOL    H5640682   4.424   4.582   3.629  1.0662  1.5316  0.1262
  184MOL    C5740683   4.810   4.494   3.515  0.9720  0.7471 -0.6828
  184MOL    C5840684   4.872   4.447   3.384  0.0522  0.2858 -0.0459
  184MOL    C5940685   4.784   4.474   3.261 -0.7388  0.1759  0.3160
  184MOL    O6040686   4.675   4.530   3.271 -0.7216 -0.5366  0.2988
  184MOL    C6140687   4.833   4.428   3.124 -0.3974  0.6312 -0.4978
  184MOL    H6240688   4.885   4.512   3.592 -0.4165 -1.1438  1.1726
  184MOL    H6340689   4.773   4.592   3.488 -1.7341 -0.2000 -0.5442
  184MOL    H6440690   4.880   4.339   3.394 -1.4791  0.1043 -0.7018
  184MOL    H6540691   4.886   4.507   3.070  1.5310 -0.5599 -0.4351
  184MOL    H6640692   4.891   4.337   3.143  1.8113  1.8917 -0.9557
  184MOL    H6740693   4.743   4.401   3.069  0.2305 -0.8930 -0.8149
  184MOL    C6840694   5.021   4.492   3.366 -0.3272 -0.4173 -0.6980
  184MOL    C6940695   5.125   4.469   3.479  0.0722 -0.3071  0.1298
  184MOL    C7040696   5.210   4.592   3.498 -0.0549  0.4557  0.7225
  184MOL    O7140697   5.325   4.594   3.461 -0.6286 -0.1101  0.2844
  184MOL    C7240698   5.137   4.718   3.539 -0.0532 -0.3931  0.1408
  184MOL    H7340699   5.058   4.444   3.276  1.5217 -0.1194 -0.1267
  184MOL    H7440700   5.021   4.598   3.338 -1.8729 -0.4972 -1.0457
  184MOL    H7540701   5.073   4.466   3.575  2.2510  0.2412  1.3560
  184MOL    H7640702   5.174   4.768   3.628 -0.1618 -1.4486  0.7841
  184MOL    H7740703   5.138   4.785   3.453  0.6411 -0.6077 -0.0203
  184MOL    H7840704   5.032   4.701   3.564  0.0356 -0.2567  0.6110
  184MOL    C7940705   5.184   4.327   3.478  0.8067  0.8123 -0.6209
  184MOL    C8040706   5.253   4.282   3.609 -0.3551  0.0660 -0.3910
  184MOL    C8140707   5.382   4.208   3.578  1.0832 -0.1124  0.4446
  184MOL    O8240708   5.384   4.087   3.561 -0.6137  0.7033  0.0498
  184MOL    C8340709   5.514   4.283   3.582  0.7003  0.2151 -0.2612
  184MOL    H8440710   5.260   4.332   3.400 -0.6499  3.7174 -1.9686
  184MOL    H8540711   5.117   4.250   3.440  0.5054  1.0134 -0.4937
  184MOL    H8640712   5.280   4.373   3.663  0.7489 -1.1302  1.1294
  184MOL    H8740713   5.594   4.233   3.528 -0.3857 -1.3617 -0.4547
  184MOL    H8840714   5.550   4.303   3.683 -0.9569  1.4329  0.0974
  184MOL    H8940715   5.503   4.379   3.532 -0.0138  0.4040  0.2605
  184MOL    C9040716   5.156   4.198   3.702 -0.2445  0.1621  0.4350
  184MOL    C9140717   5.208   4.193   3.850 -0.1314 -0.8186  0.2653
  184MOL    C9240718   5.228   4.335   3.909  0.2237  0.3309 -0.0346
  184MOL    O9340719   5.142   4.422   3.892 -0.1050 -0.3170  0.0756
  184MOL    C9440720   5.348   4.362   4.001  0.2304  0.1466  0.5225
  184MOL    H9540721   5.058   4.245   3.709 -0.1870  0.3641 -0.0929
  184MOL    H9640722   5.144   4.100   3.655 -0.9681 -0.0269  0.9949
  184MOL    H9740723   5.304   4.142   3.860  0.4308  0.1224 -0.3314
  184MOL    H9840724   5.400   4.269   4.024 -0.6787 -0.9481 -1.7808
  184MOL    H9940725   5.416   4.433   3.955  0.5044 -0.2152  0.3708
  184MOL   H10040726   5.317   4.405   4.097  0.5652  0.9194  0.2842
  184MOL   C10140727   5.106   4.118   3.935  0.6575 -0.0232 -0.6486
  184MOL   C10240728   5.136   4.088   4.077 -0.2499  0.1855 -0.2632
  184MOL   C10340729   5.238   3.983   4.088 -0.3644  0.3628  0.0232
  184MOL   O10440730   5.360   4.012   4.087 -0.7670  0.5455  0.2517
  184MOL   C10540731   5.197   3.836   4.071  0.1435 -0.7189 -1.2609
  184MOL   H10640732   5.009   4.168   3.937  0.3384 -0.7017  2.5770
  184MOL   H10740733   5.065   4.030   3.886  0.5672 -0.2893 -0.0933
  184MOL   H10840734   5.169   4.179   4.129  1.5830 -1.3368  1.3120
  184MOL   H10940735   5.158   3.807   4.168 -0.4720  1.0792 -0.9417
  184MOL   H11040736   5.119   3.838   3.996 -0.2889  0.4420 -0.8010
  184MOL   H11140737   5.284   3.777   4.044  0.5186 -1.9084  2.2828
  184MOL   C11240738   4.999   4.044   4.149 -0.5259 -0.1897  0.1575
  184MOL   C11340739   5.001   4.006   4.300  0.0722 -0.1225 -0.3028
  184MOL   C11440740   4.870   3.949   4.353 -0.5497  0.1250  0.2349
  184MOL   O11540741   4.873   3.842   4.412 -0.2368 -0.1816  0.0064
  184MOL   C11640742   4.741   4.038   4.330 -0.0300  0.1943 -0.3784
  184MOL   H11740743   4.961   3.957   4.095 -2.4779  1.6658 -1.5789
  184MOL   H11840744   4.929   4.127   4.135 -1.3480 -1.0080 -0.6222
  184MOL   H11940745   5.076   3.930   4.321  1.4081  0.9098 -1.2692
  184MOL   H12040746   4.772   4.141   4.346  3.6319 -0.6775 -1.4192
  184MOL   H12140747   4.713   4.034   4.225  0.5747  2.1292 -0.6363
  184MOL   H12240748   4.664   4.006   4.400  0.0368  0.1123 -0.3428
  184MOL   C12340749   5.051   4.126   4.382  0.5459 -0.3175 -0.2473
  184MOL   C12440750   5.161   4.106   4.489 -0.2224 -0.3145 -0.3870
  184MOL   C12540751   5.294   4.101   4.425 -0.4040  0.4548 -0.3905
  184MOL   O12640752   5.346   3.996   4.412  0.1928  0.1572 -0.3769
  184MOL   C12740753   5.362   4.226   4.375 -0.1327  0.1794 -0.1135
  184MOL   H12840754   4.965   4.180   4.423  1.4031  1.3107 -0.5663
  184MOL   H12940755   5.079   4.200   4.307  0.6119  1.3435  1.3907
  184MOL   H13040756   5.164   4.200   4.544  1.7352  0.0675 -1.0753
  184MOL   H13140757   5.329   4.260   4.277 -1.7254  1.7958  0.9481
  184MOL   H13240758   5.468   4.202   4.370 -0.0544  0.9668 -3.0218
  184MOL   H13340759   5.346   4.309   4.445 -1.6662 -1.3453  1.4038
  184MOL   C13440760   5.131   4.001   4.599  0.6598 -0.2789 -0.3422
  184MOL   C13540761   5.213   4.028   4.721  0.5438  0.8279  0.6869
  184MOL   C13640762   5.169   4.158   4.793 -0.2064  0.0717 -0.3209
  184MOL   O13740763   5.052   4.198   4.797  0.8073 -0.0123  0.4261
  184MOL   C13840764   5.282   4.227   4.868  0.3932 -0.2698 -0.2356
  184MOL   H13940765   5.148   3.902   4.558  1.5157 -0.9027  1.5066
  184MOL   H14040766   5.026   3.998   4.628  0.3494 -1.2815 -1.5269
  184MOL   H14140767   5.316   4.035   4.689  0.2285 -1.0242 -0.7933
  184MOL   H14240768   5.264   4.334   4.852  1.4170  0.0039  0.3506
  184MOL   H14340769   5.375   4.212   4.813  0.9412 -1.3604  0.9772
  184MOL   H14440770   5.288   4.210   4.976  3.5308 -0.5965 -0.4161
  184MOL   C14540771   5.209   3.907   4.829 -0.1126 -0.4880  0.2718
  184MOL   C14640772   5.305   3.783   4.801 -0.5884  0.3387  0.7355
  184MOL   C14740773   5.453   3.821   4.777  0.2968 -0.4112  0.3570
  184MOL   O14840774   5.507   3.901   4.854  0.1899 -0.0790  0.1320
  184MOL   C14940775   5.527   3.746   4.675  0.1717 -0.1352 -0.0142
  184MOL   H15040776   5.108   3.869   4.837 -0.6031  0.5733 -0.6418
  184MOL   H15140777   5.231   3.943   4.930  1.8888 -3.2973  0.9067
  184MOL   H15240778   5.283   3.743   4.702  0.7195  0.1074  0.5386
  184MOL   H15340779   5.480   3.744   4.577  1.3947 -0.7491 -0.6140
  184MOL   H15440780   5.623   3.795   4.656  1.4631 -1.5068  2.7194
  184MOL   H15540781   5.550   3.643   4.705 -0.3417 -0.3353 -0.2951
  184MOL   C15640782   5.293   3.666   4.905 -0.5140 -0.0821  0.6327
  184MOL   C15740783   5.171   3.575   4.881 -0.6552  0.3271  0.4984
  184MOL   C15840784   5.147   3.517   5.016  0.5706  0.0603  0.5588
  184MOL   O15940785   5.212   3.424   5.057  0.6765 -0.1215 -0.2909
  184MOL   C16040786   5.040   3.578   5.102  0.3359  0.0010 -0.8376
  184MOL   H16140787   5.391   3.619   4.894  0.0380  1.1221  0.1967
  184MOL   H16240788   5.291   3.712   5.004 -2.2029  0.7559  0.2257
  184MOL   H16340789   5.087   3.632   4.842 -0.8059  0.5345  1.1155
  184MOL   H16440790   4.946   3.526   5.090  0.3227 -0.5960  1.4497
  184MOL   H16540791   5.034   3.684   5.079  2.2723  0.3909  0.3045
  184MOL   H16640792   5.051   3.551   5.208  0.1916 -0.3079 -0.9002
  184MOL   C16740793   5.210   3.475   4.771  0.0649 -0.0841 -0.2834
  184MOL   C16840794   5.097   3.456   4.670  0.0971 -0.3559  0.5484
  184MOL   C16940795   4.980   3.376   4.735 -0.4632  0.2926 -0.3524
  184MOL   O17040796   4.882   3.439   4.785 -0.0288  0.5596  0.2715
  184MOL   C17140797   4.989   3.226   4.734 -0.0614 -0.6963  0.3795
  184MOL   H17240798   5.298   3.519   4.726  0.1008  2.0474  1.7370
  184MOL   H17340799   5.245   3.383   4.818  0.6515  0.9410  1.3304
  184MOL   H17440800   5.057   3.557   4.666  1.3821  0.1141 -0.8340
  184MOL   H17540801   4.910   3.186   4.798  0.4680 -0.5110  1.1532
  184MOL   H17640802   5.086   3.207   4.780 -0.0513  2.6261  1.9060
  184MOL   H17740803   4.974   3.190   4.632  1.3277 -0.6396  0.1495
  184MOL   C17840804   5.138   3.394   4.533  0.0259  0.5824  0.5449
  184MOL   C17940805   5.217   3.485   4.440  0.8058 -0.1115  0.1696
  184MOL   C18040806   5.123   3.596   4.377  0.4371  0.5105 -0.0647
  184MOL   O18140807   5.161   3.715   4.383  0.4668 -0.6105  0.1418
  184MOL   C18240808   5.005   3.552   4.299  0.0089 -0.0524 -0.3522
  184MOL   H18340809   5.199   3.307   4.560  0.4214  0.8921  0.6631
  184MOL   H18440810   5.053   3.354   4.477  0.7053 -1.2728  0.7929
  184MOL   H18540811   5.286   3.550   4.493 -0.7737  1.0883  0.8074
  184MOL   H18640812   4.949   3.643   4.277 -0.8871  0.0657  2.1728
  184MOL   H18740813   4.930   3.498   4.357 -0.8329  2.8160  1.3306
  184MOL   H18840814   5.026   3.504   4.204  2.5167  1.2432 -0.4969
  184MOL   C18940815   5.295   3.396   4.340  0.1932  0.0632  0.2637
  184MOL   C19040816   5.392   3.473   4.250  0.1622 -0.1843 -0.9234
  184MOL   C19140817   5.492   3.556   4.326  0.2421  0.5347 -0.4114
  184MOL   O19240818   5.582   3.509   4.401  0.4423  0.0320  0.1484
  184MOL   C19340819   5.499   3.705   4.288 -0.6012  0.9305  0.5831
  184MOL   H19440820   5.361   3.327   4.392  1.3136  2.0173  1.4993
  184MOL   H19540821   5.232   3.347   4.266 -2.9454  2.8464  0.9786
  184MOL   H19640822   5.325   3.549   4.210  2.5725  2.6188  0.0973
  184MOL   H19740823   5.605   3.730   4.297 -0.3996  0.4030 -0.2205
  184MOL   H19840824   5.452   3.725   4.192 -1.3838  1.6746  1.1190
  184MOL   H19940825   5.462   3.766   4.370  1.0828 -0.1058  2.1413
  184MOL   C20040826   5.454   3.400   4.125 -0.9173  0.5595  0.0023
  184MOL   C20140827   5.519   3.498   4.023 -0.2799  0.0938  0.7505
  184MOL   C20240828   5.422   3.593   3.948  0.0749  0.3624  0.3148
  184MOL   O20340829   5.302   3.565   3.936 -0.2600  0.6109  0.1110
  184MOL   C20440830   5.474   3.714   3.881  0.5624  0.1791 -0.8983
  184MOL   H20540831   5.532   3.327   4.148  1.6104  2.7592 -1.2636
  184MOL   H20640832   5.387   3.334   4.071  0.0209 -1.0589  0.7613
  184MOL   H20740833   5.579   3.572   4.074 -1.1477  1.5502 -0.3208
  184MOL   H20840834   5.551   3.683   3.811  0.5651 -0.7459 -0.4906
  184MOL   H20940835   5.404   3.792   3.850 -0.6184 -0.1487  0.8036
  184MOL   H21040836   5.529   3.769   3.958  1.8314  0.2724 -1.8671
  184MOL   C21140837   5.600   3.419   3.916 -0.5554  0.2356  0.1693
  184MOL   C21240838   5.726   3.352   3.974  1.3832 -0.2474  0.8573
  184MOL   C21340839   5.818   3.449   4.045 -0.3424  0.3793  0.4396
  184MOL   O21440840   5.832   3.559   3.996  0.0664 -0.7103 -0.4565
  184MOL   C21540841   5.874   3.404   4.181 -0.5497  0.1197 -0.6947
  184MOL   H21640842   5.546   3.353   3.847  1.0373 -1.3116  0.3544
  184MOL   H21740843   5.648   3.486   3.845  0.7273 -1.0489 -0.1933
  184MOL   H21840844   5.795   3.306   3.903  1.7368 -1.1375  1.7526
  184MOL   H21940845   5.947   3.474   4.223  1.3817 -2.8176  1.0474
  184MOL   H22040846   5.794   3.383   4.253 -1.3345  0.5910 -1.4199
  184MOL   H22140847   5.925   3.311   4.157  1.1365  0.4592  1.3606
  184MOL   H22240848   5.689   3.274   4.041 -1.1500 -0.7504 -1.0651
  185MOL     C140849   3.286   5.185   4.869 -0.0494 -0.2716 -0.6291
  185MOL     C240850   3.362   5.098   4.766 -0.1671  0.7840 -0.1768
  185MOL     C340851   3.413   4.968   4.827  0.8815 -0.6889 -0.1973
  185MOL     O440852   3.353   4.924   4.924 -0.1374 -0.6802 -0.0207
  185MOL     C540853   3.541   4.913   4.789  0.4357 -0.1376  0.1682
  185MOL     H640854   3.237   5.270   4.821  0.2439 -2.0768 -4.3408
  185MOL     H740855   3.360   5.230   4.935  0.0002 -1.1319 -0.0789
  185MOL     H840856   3.453   5.148   4.732  1.4269 -1.6222  0.4649
  185MOL     H940857   3.594   4.992   4.735  2.2412 -1.0565  0.5503
  185MOL    H1040858   3.605   4.890   4.874  0.5511  1.5100  0.5416
  185MOL    H1140859   3.523   4.824   4.729  2.2360 -0.6448  0.3342
  185MOL    H1240860   3.208   5.126   4.918  0.5938  0.2218  1.0148
  185MOL    C1340861   3.277   5.060   4.647 -0.1714  0.1906  0.6897
  185MOL    C1440862   3.250   5.159   4.536 -0.0752 -0.1636  0.2001
  185MOL    C1540863   3.150   5.267   4.579  0.1763 -0.2440  0.5226
  185MOL    O1640864   3.191   5.375   4.598  0.4711  0.3560 -0.1055
  185MOL    C1740865   3.006   5.235   4.602 -0.0567  0.5863  0.8910
  185MOL    H1840866   3.332   4.977   4.603  0.7808  1.8413 -1.3520
  185MOL    H1940867   3.181   5.018   4.677  0.5765 -2.3145 -0.2629
  185MOL    H2040868   3.344   5.210   4.515 -0.2551 -0.1756 -0.6202
  185MOL    H2140869   2.980   5.155   4.670  0.1341  0.6259  1.0087
  185MOL    H2240870   2.956   5.327   4.634  0.8781  0.9723  1.2789
  185MOL    H2340871   2.948   5.195   4.519 -3.0635  0.5743  2.9200
  185MOL    C2440872   3.205   5.089   4.408  0.1674  0.3654 -0.3113
  185MOL    C2540873   3.169   5.182   4.289  0.0114  0.4718 -0.3397
  185MOL    C2640874   3.288   5.269   4.239  0.7938 -0.2251 -0.0199
  185MOL    O2740875   3.374   5.218   4.164  0.0985 -0.5777 -0.6887
  185MOL    C2840876   3.289   5.417   4.274 -0.5761  0.5137  0.0286
  185MOL    H2940877   3.282   5.016   4.381  0.3886  0.3031  0.4883
  185MOL    H3040878   3.116   5.030   4.428  1.0141 -0.6135  0.6155
  185MOL    H3140879   3.090   5.251   4.320 -2.5312 -1.7680 -1.6430
  185MOL    H3240880   3.294   5.477   4.183  0.9115 -0.2526 -0.4228
  185MOL    H3340881   3.209   5.452   4.338 -1.0182  1.6820 -1.1495
  185MOL    H3440882   3.375   5.441   4.336 -1.1405  4.6153 -0.6626
  185MOL    C3540883   3.098   5.107   4.177 -0.4424  0.2075  0.3822
  185MOL    C3640884   3.032   5.204   4.071 -0.6717 -0.1498  0.5701
  185MOL    C3740885   3.098   5.176   3.933 -0.1895 -0.0664  0.0895
  185MOL    O3840886   3.071   5.074   3.876  0.3657  0.2073 -0.2434
  185MOL    C3940887   3.189   5.282   3.883 -0.8028 -1.0823 -0.4586
  185MOL    H4040888   3.023   5.039   4.218  1.2027 -1.0473  1.3773
  185MOL    H4140889   3.168   5.041   4.124  0.5953  1.5334  0.0727
  185MOL    H4240890   3.048   5.307   4.103  0.8024 -0.1058 -0.2932
  185MOL    H4340891   3.158   5.386   3.895 -2.3052 -1.4229 -1.3934
  185MOL    H4440892   3.212   5.254   3.781 -1.6399 -2.2312 -0.3367
  185MOL    H4540893   3.280   5.271   3.943  0.5310  3.5003 -1.4123
  185MOL    C4640894   2.878   5.169   4.067 -0.4920 -0.4810  0.2512
  185MOL    C4740895   2.782   5.262   3.999  0.1247  0.2815 -0.0709
  185MOL    C4840896   2.799   5.402   4.055 -0.1968  0.0163  0.6016
  185MOL    O4940897   2.846   5.494   3.988 -0.3769 -0.4457 -0.4619
  185MOL    C5040898   2.757   5.437   4.193 -0.2333  0.2247 -0.0256
  185MOL    H5140899   2.835   5.168   4.167  0.3043 -2.5997  0.6034
  185MOL    H5240900   2.873   5.069   4.023 -0.3212 -0.8072  0.9643
  185MOL    H5340901   2.679   5.235   4.025  0.4550 -0.6795  0.2734
  185MOL    H5440902   2.688   5.357   4.222 -1.8350  1.0488 -1.4511
  185MOL    H5540903   2.847   5.444   4.253 -0.4904 -1.4020  0.5655
  185MOL    H5640904   2.694   5.526   4.196 -0.3725  0.1159  0.2652
  185MOL    C5740905   2.784   5.255   3.842  0.2092  0.0011 -0.4203
  185MOL    C5840906   2.771   5.125   3.766 -0.1379  0.3916  0.6877
  185MOL    C5940907   2.661   5.044   3.832 -0.4604  0.6997  0.0430
  185MOL    O6040908   2.555   5.094   3.871  0.3440 -0.2904 -0.1896
  185MOL    C6140909   2.690   4.893   3.848  0.0776 -0.3534 -0.3680
  185MOL    H6240910   2.865   5.317   3.805  0.5085  1.5635  2.6392
  185MOL    H6340911   2.696   5.303   3.798 -1.1481 -0.8518  1.3089
  185MOL    H6440912   2.855   5.059   3.785  0.7211  1.1630 -0.3754
  185MOL    H6540913   2.738   4.862   3.941  1.9983 -0.4909 -1.3940
  185MOL    H6640914   2.596   4.838   3.840  0.4602 -1.0814  0.0639
  185MOL    H6740915   2.750   4.850   3.768  1.6391 -0.4019  0.8228
  185MOL    C6840916   2.753   5.147   3.614 -0.6339  0.4154 -0.6445
  185MOL    C6940917   2.859   5.069   3.530  0.3401 -0.1417  0.3034
  185MOL    C7040918   3.000   5.122   3.539  0.1216 -0.6851 -0.0571
  185MOL    O7140919   3.028   5.237   3.565 -0.4580 -0.1447  0.3043
  185MOL    C7240920   3.113   5.028   3.502  0.7599 -0.7806  0.5932
  185MOL    H7340921   2.656   5.106   3.587 -0.3290 -0.8126  0.0887
  185MOL    H7440922   2.751   5.254   3.592  0.8316  0.8267  1.0158
  185MOL    H7540923   2.870   4.968   3.569  2.1473 -0.4062 -0.8076
  185MOL    H7640924   3.093   4.923   3.526 -0.9305 -0.9419 -1.3981
  185MOL    H7740925   3.122   5.026   3.394  1.1963  0.9598  0.5870
  185MOL    H7840926   3.215   5.055   3.529  0.5116  0.4575  0.3260
  185MOL    C7940927   2.819   5.048   3.380 -0.6056  0.2690  0.1426
  185MOL    C8040928   2.693   4.977   3.359  0.3840  0.3923  0.6608
  185MOL    C8140929   2.709   4.834   3.424  0.3446 -0.2393  0.8037
  185MOL    O8240930   2.809   4.768   3.420  0.3398  0.0309 -0.7957
  185MOL    C8340931   2.587   4.786   3.495 -0.3243 -0.0551  0.5795
  185MOL    H8440932   2.896   4.992   3.328 -0.2375  0.6290  0.2964
  185MOL    H8540933   2.820   5.150   3.342 -2.1963  0.0539 -0.5307
  185MOL    H8640934   2.605   5.028   3.399 -0.0671 -0.3703  0.6340
  185MOL    H8740935   2.555   4.702   3.434  1.1569 -0.5982  0.5267
  185MOL    H8840936   2.512   4.864   3.509 -2.2024 -1.9097  1.0417
  185MOL    H8940937   2.607   4.737   3.591  0.0905 -0.4658  0.2857
  185MOL    C9040938   2.673   4.956   3.208  0.6452  0.2141 -0.0378
  185MOL    C9140939   2.545   4.882   3.181  0.7789 -0.4295  0.4971
  185MOL    C9240940   2.433   4.988   3.189  0.0375 -0.1240  0.5360
  185MOL    O9340941   2.423   5.076   3.107  0.4778  0.1728  0.7100
  185MOL    C9440942   2.332   4.963   3.297  0.5136  0.7147 -0.2086
  185MOL    H9540943   2.678   5.051   3.154 -0.8745  1.3682  1.7868
  185MOL    H9640944   2.753   4.895   3.165 -0.4458 -0.7820 -0.6906
  185MOL    H9740945   2.520   4.795   3.242 -2.0302  0.4934  0.7656
  185MOL    H9840946   2.230   4.982   3.263 -0.6057 -0.2168  2.4049
  185MOL    H9940947   2.338   4.859   3.330 -0.2722  1.5231  2.6569
  185MOL   H10040948   2.358   5.021   3.385  1.6295 -0.3943  0.2113
  185MOL   C10140949   2.545   4.823   3.034 -0.2937 -0.5285 -1.0796
  185MOL   C10240950   2.420   4.745   2.995 -0.6176 -0.6804  0.1761
  185MOL   C10340951   2.393   4.606   3.065  0.0065 -0.7063 -0.5533
  185MOL   O10440952   2.298   4.588   3.141 -0.0763 -0.2635  0.5137
  185MOL   C10540953   2.494   4.497   3.032 -0.0989 -0.2917  0.2814
  185MOL   H10640954   2.562   4.904   2.963  0.6404 -0.0863 -0.3622
  185MOL   H10740955   2.620   4.744   3.024 -1.3758 -1.8659  1.0637
  185MOL   H10840956   2.336   4.811   3.019 -1.3348 -0.9147 -1.6022
  185MOL   H10940957   2.535   4.452   3.123  0.2668 -1.5946 -0.5120
  185MOL   H11040958   2.448   4.416   2.975 -1.2687 -0.1902  1.0583
  185MOL   H11140959   2.587   4.533   2.988 -0.6269  0.8410  0.0865
  185MOL   C11240960   2.408   4.720   2.839  0.8383 -0.0991 -0.0356
  185MOL   C11340961   2.359   4.839   2.753 -0.3245  0.5966 -0.0585
  185MOL   C11440962   2.225   4.894   2.806  0.2555 -0.3276 -0.1069
  185MOL   O11540963   2.136   4.830   2.861  0.5158  0.0508 -0.1707
  185MOL   C11640964   2.198   5.043   2.779 -0.3967 -0.3358 -0.2585
  185MOL   H11740965   2.331   4.644   2.822 -0.7163  1.2434  0.7469
  185MOL   H11840966   2.501   4.683   2.798  0.6898 -1.4809  0.8459
  185MOL   H11940967   2.434   4.916   2.769  0.8624  0.0726 -2.7540
  185MOL   H12040968   2.160   5.067   2.679 -1.0098  2.6949  0.6434
  185MOL   H12140969   2.130   5.076   2.857  0.4587  1.2686 -0.1827
  185MOL   H12240970   2.295   5.091   2.788  0.2951 -2.1558  2.3614
  185MOL   C12340971   2.364   4.826   2.599  0.6796  0.7267 -0.6689
  185MOL   C12440972   2.277   4.709   2.536 -0.1528  0.2296  0.3329
  185MOL   C12540973   2.353   4.577   2.512  0.2775 -0.2403  0.3024
  185MOL   O12640974   2.451   4.573   2.437 -0.5186 -0.1813 -0.1999
  185MOL   C12740975   2.290   4.455   2.575  0.5638 -0.6021  0.5201
  185MOL   H12840976   2.469   4.806   2.580  1.1104  0.0730  2.1896
  185MOL   H12940977   2.337   4.923   2.558 -1.1101  0.0730 -1.1096
  185MOL   H13040978   2.201   4.683   2.609 -1.1296  1.6865 -0.1664
  185MOL   H13140979   2.358   4.418   2.651 -0.2340  1.2325  2.1749
  185MOL   H13240980   2.269   4.377   2.502 -0.9458  1.4272 -1.2866
  185MOL   H13340981   2.198   4.488   2.623 -0.2165 -0.8289 -0.7911
  185MOL   C13440982   2.209   4.753   2.401 -0.2700 -0.1474  0.0041
  185MOL   C13540983   2.066   4.790   2.407  0.2111 -0.2014  0.6378
  185MOL   C13640984   1.977   4.668   2.442  0.3697  0.1826 -0.1698
  185MOL   O13740985   1.940   4.642   2.558 -0.1856 -0.1799 -0.6317
  185MOL   C13840986   1.934   4.575   2.329 -0.0996 -0.0239 -0.1077
  185MOL   H13940987   2.222   4.679   2.322  1.7937  1.7745 -1.5093
  185MOL   H14040988   2.269   4.834   2.360 -0.9291  0.8540  0.9925
  185MOL   H14140989   2.032   4.813   2.306 -0.9042 -1.0729  0.8069
  185MOL   H14240990   1.866   4.629   2.263 -0.4467 -0.3138  0.0114
  185MOL   H14340991   1.884   4.490   2.375  0.2287 -0.8625 -1.2752
  185MOL   H14440992   2.019   4.539   2.271 -0.6428 -2.2655  0.4646
  185MOL   C14540993   2.043   4.915   2.493  0.4840 -0.2908 -0.7837
  185MOL   C14640994   1.897   4.977   2.494  0.0051  0.5839 -0.2525
  185MOL   C14740995   1.883   5.082   2.606 -0.2999 -0.4924  0.1362
  185MOL   O14840996   1.906   5.204   2.588 -0.4554  0.5538 -0.6633
  185MOL   C14940997   1.843   5.026   2.737  0.0649  1.2444  0.1152
  185MOL   H15040998   2.108   4.993   2.454  0.3815 -0.4921 -1.3667
  185MOL   H15140999   2.072   4.888   2.594  0.1277  0.0116 -0.6017
  185MOL   H15241000   1.827   4.893   2.500 -0.6929  0.8860 -3.4589
  185MOL   H15341001   1.899   4.934   2.753 -1.4613 -0.0442 -1.7505
  185MOL   H15441002   1.869   5.099   2.814 -0.0487  1.9267 -0.4890
  185MOL   H15541003   1.738   4.998   2.739  0.6013 -0.9097 -0.3110
  185MOL   C15641004   1.879   5.043   2.359 -0.2648 -0.2848  0.0701
  185MOL   C15741005   1.737   5.076   2.323  0.3827 -0.5379  0.2701
  185MOL   C15841006   1.657   4.951   2.284  0.2249 -0.3896  0.0633
  185MOL   O15941007   1.707   4.846   2.239 -0.4542 -0.2860 -0.7566
  185MOL   C16041008   1.508   4.958   2.320  0.0013  0.7682  0.0533
  185MOL   H16141009   1.944   5.130   2.353  0.6389 -0.8436  1.4887
  185MOL   H16241010   1.919   4.981   2.279 -0.2361 -1.0627  0.6825
  185MOL   H16341011   1.683   5.104   2.414  0.4781  0.6104 -0.0121
  185MOL   H16441012   1.455   5.045   2.282  0.5396  0.6950 -0.9080
  185MOL   H16541013   1.498   4.967   2.428  0.7208  0.8484  0.1207
  185MOL   H16641014   1.454   4.866   2.296 -0.2150  0.3309  2.1683
  185MOL   C16741015   1.727   5.180   2.207  0.3118  0.7570 -0.2125
  185MOL   C16841016   1.733   5.321   2.257 -0.3653  0.0502 -0.1254
  185MOL   C16941017   1.607   5.365   2.343 -0.1698 -0.2465 -0.5124
  185MOL   O17041018   1.512   5.294   2.357 -0.2988 -0.7342  0.7342
  185MOL   C17141019   1.608   5.509   2.400 -0.2405 -0.2264 -0.0703
  185MOL   H17241020   1.811   5.163   2.139  1.5771  0.9489  1.2556
  185MOL   H17341021   1.633   5.166   2.154 -0.2460  1.3029  0.6085
  185MOL   H17441022   1.820   5.325   2.323 -0.5654  0.5202  0.1122
  185MOL   H17541023   1.638   5.575   2.318 -1.3142  0.4960  0.1066
  185MOL   H17641024   1.681   5.511   2.481  2.4556 -0.9368 -2.3754
  185MOL   H17741025   1.505   5.536   2.420 -0.0494  0.3381  0.1630
  185MOL   C17841026   1.748   5.411   2.126 -0.4129 -0.9933 -0.2978
  185MOL   C17941027   1.630   5.439   2.034  0.7014  0.4902  0.4280
  185MOL   C18041028   1.593   5.325   1.941 -0.1889 -0.5044 -0.1351
  185MOL   O18141029   1.682   5.258   1.890 -0.4847  0.1672 -0.0634
  185MOL   C18241030   1.446   5.296   1.915 -0.5874 -0.7896  0.1066
  185MOL   H18341031   1.782   5.499   2.181 -0.5591 -1.5949  0.7723
  185MOL   H18441032   1.837   5.384   2.070 -0.3500  0.0877 -0.7291
  185MOL   H18541033   1.539   5.457   2.092 -1.5470  0.6400 -2.9961
  185MOL   H18641034   1.395   5.279   2.010  0.2041  0.8081  0.8421
  185MOL   H18741035   1.447   5.195   1.876  1.6490 -0.7403 -0.0106
  185MOL   H18841036   1.380   5.369   1.867 -2.0486 -0.5462  2.3834
  185MOL   C18941037   1.659   5.569   1.956  0.0183 -0.1289 -0.0978
  185MOL   C19041038   1.548   5.634   1.877  0.3275  0.0245 -0.3205
  185MOL   C19141039   1.411   5.631   1.947  0.2742  0.0885  0.1982
  185MOL   O19241040   1.394   5.657   2.069 -0.3034 -0.0006  0.6009
  185MOL   C19341041   1.293   5.590   1.860 -0.5764 -0.7462  0.0865
  185MOL   H19441042   1.694   5.639   2.032 -2.3219  0.9460  0.0128
  185MOL   H19541043   1.750   5.553   1.898  0.7052  1.1628  0.6020
  185MOL   H19641044   1.530   5.574   1.789  3.3918  0.6120 -1.4163
  185MOL   H19741045   1.228   5.678   1.855 -0.0818 -0.3074  1.1906
  185MOL   H19841046   1.326   5.552   1.763 -2.9046  0.9409 -1.4379
  185MOL   H19941047   1.247   5.502   1.904  0.0800 -0.5227  1.2482
  185MOL   C20041048   1.587   5.777   1.831 -0.0495 -0.1007 -0.6674
  185MOL   C20141049   1.610   5.884   1.937  0.2422 -0.6019 -0.0904
  185MOL   C20241050   1.539   6.011   1.899 -0.1217  0.1117 -0.2172
  185MOL   O20341051   1.596   6.105   1.840  0.3198 -0.3303  0.0080
  185MOL   C20441052   1.392   6.016   1.928 -0.3292 -0.5329  0.4056
  185MOL   H20541053   1.674   5.765   1.766  0.1119  1.8173 -0.8110
  185MOL   H20641054   1.503   5.807   1.769  0.4608  0.6764 -0.9860
  185MOL   H20741055   1.553   5.868   2.029  0.2686  0.8539  0.1929
  185MOL   H20841056   1.345   6.094   1.868  1.7937  0.6069  0.1595
  185MOL   H20941057   1.336   5.923   1.916 -1.2533  0.0174  0.3742
  185MOL   H21041058   1.378   6.055   2.029 -1.0070 -0.2356  0.2027
  185MOL   C21141059   1.753   5.916   1.975  0.3902 -0.0873  0.4316
  185MOL   C21241060   1.763   6.014   2.097 -0.0535 -0.5521  0.8909
  185MOL   C21341061   1.715   5.957   2.229 -0.2239  0.2504  0.6530
  185MOL   O21441062   1.603   5.980   2.271  0.3423 -0.0288  0.2895
  185MOL   C21541063   1.808   5.855   2.305  0.4383 -0.2445 -0.0203
  185MOL   H21641064   1.811   5.826   1.995  0.2938 -0.0432  0.9083
  185MOL   H21741065   1.804   5.969   1.894 -1.2753  2.5940  1.0688
  185MOL   H21841066   1.712   6.108   2.077  0.6134 -0.1680  0.9786
  185MOL   H21941067   1.789   5.846   2.412  1.4813 -1.7052  0.0556
  185MOL   H22041068   1.787   5.757   2.263  2.0388 -0.3599 -0.5889
  185MOL   H22141069   1.917   5.862   2.293  0.3829  0.4497 -0.1755
  185MOL   H22241070   1.869   6.036   2.103 -0.4102  1.4153  0.1698
  186MOL     C141071   5.011   4.761   1.843  0.5236  0.5414  0.2297
  186MOL     C241072   5.070   4.620   1.848  0.2147 -0.5368 -0.2994
  186MOL     C341073   5.080   4.573   1.989  0.2661  0.3987 -0.0589
  186MOL     O441074   5.016   4.488   2.043  0.0533  0.0290  0.4378
  186MOL     C541075   5.183   4.652   2.068 -0.9381 -0.2804 -0.3327
  186MOL     H641076   5.051   4.800   1.749 -0.1552  0.1906 -0.2165
  186MOL     H741077   5.039   4.821   1.929 -0.4269 -1.1920  1.7955
  186MOL     H841078   5.176   4.633   1.827 -0.1941 -0.7308 -2.6593
  186MOL     H941079   5.272   4.589   2.063 -0.8230  0.0785 -3.2417
  186MOL    H1041080   5.212   4.750   2.030  0.3797 -0.5976 -0.1721
  186MOL    H1141081   5.160   4.669   2.174  1.0327  1.2251 -0.1298
  186MOL    H1241082   4.902   4.763   1.838  0.4989  3.9154  1.3337
  186MOL    C1341083   5.008   4.521   1.751  0.9658 -0.2641 -0.1301
  186MOL    C1441084   5.083   4.384   1.738  0.6923  0.6674  0.0874
  186MOL    C1541085   5.209   4.419   1.660  0.6122  0.4583  0.0627
  186MOL    O1641086   5.199   4.453   1.544 -0.0467 -0.0097  0.2878
  186MOL    C1741087   5.340   4.396   1.725  0.5401 -0.2777 -0.3792
  186MOL    H1841088   4.909   4.489   1.784 -0.4247  3.6674 -0.2159
  186MOL    H1941089   4.983   4.569   1.657 -1.7505 -0.8519  0.2574
  186MOL    H2041090   5.102   4.355   1.841 -0.3882  0.3713  0.2159
  186MOL    H2141091   5.419   4.455   1.677  0.9962 -0.1690  0.4944
  186MOL    H2241092   5.325   4.429   1.827 -0.6411 -0.7750 -0.3829
  186MOL    H2341093   5.382   4.296   1.712  1.9210  0.0572  1.3971
  186MOL    C2441094   4.989   4.267   1.677 -0.0970  0.3952 -0.6187
  186MOL    C2541095   5.037   4.115   1.690  0.2875 -0.3000 -0.2327
  186MOL    C2641096   5.055   4.093   1.839  0.4365  0.5210  0.3208
  186MOL    O2741097   4.963   4.082   1.916 -0.4834 -0.0384 -0.3713
  186MOL    C2841098   5.195   4.085   1.900  0.6424  0.2291  0.8087
  186MOL    H2941099   4.893   4.265   1.728 -0.7308  0.0959 -1.7977
  186MOL    H3041100   4.962   4.286   1.573  0.0376  0.1701 -0.6949
  186MOL    H3141101   5.137   4.117   1.646  0.1179 -1.3432 -0.6699
  186MOL    H3241102   5.276   4.075   1.829 -1.4143 -0.2157 -1.5361
  186MOL    H3341103   5.215   4.175   1.959 -1.3354 -0.1864  2.1550
  186MOL    H3441104   5.191   3.994   1.960  0.1754 -0.0394  0.3680
  186MOL    C3541105   4.932   4.025   1.614  0.0704 -0.3290  0.0611
  186MOL    C3641106   4.995   3.927   1.509 -0.1710 -0.0398 -0.4335
  186MOL    C3741107   5.072   3.817   1.595 -0.3494 -0.8189  0.0815
  186MOL    O3841108   5.169   3.849   1.657 -0.3791 -0.8331 -0.0536
  186MOL    C3941109   5.018   3.676   1.618 -1.0616 -0.4360 -0.0176
  186MOL    H4041110   4.856   4.081   1.559  0.2604 -0.6672 -0.5485
  186MOL    H4141111   4.882   3.963   1.689  0.2794 -1.8903 -1.0732
  186MOL    H4241112   5.067   3.979   1.445  0.7328 -1.6071 -0.7378
  186MOL    H4341113   4.946   3.639   1.546 -2.2687  2.1772 -0.2191
  186MOL    H4441114   4.967   3.680   1.715 -2.5326  0.4371 -0.8053
  186MOL    H4541115   5.101   3.606   1.627 -0.1853  0.6942  0.9160
  186MOL    C4641116   4.897   3.867   1.398  0.6586 -0.7555  0.0722
  186MOL    C4741117   4.827   3.960   1.300 -0.2891 -0.3132  0.3014
  186MOL    C4841118   4.931   4.046   1.220 -0.2125  0.0932 -0.7812
  186MOL    O4941119   4.981   4.008   1.117 -0.0130  0.2639  0.0955
  186MOL    C5041120   4.984   4.174   1.279  0.2431 -0.1714 -0.0643
  186MOL    H5141121   4.817   3.824   1.457  0.3732  0.0348  0.2700
  186MOL    H5241122   4.939   3.779   1.350  1.5841  0.4040 -1.3009
  186MOL    H5341123   4.772   4.032   1.361 -0.5804  0.9534 -1.3884
  186MOL    H5441124   5.033   4.241   1.208  0.4489 -0.5930 -0.3210
  186MOL    H5541125   4.899   4.231   1.315  2.3308  2.7892  0.3935
  186MOL    H5641126   5.054   4.160   1.362  0.6790  1.0644 -0.2102
  186MOL    C5741127   4.732   3.886   1.203 -0.1505  0.3441  0.0682
  186MOL    C5841128   4.599   3.834   1.264  0.4340  0.2291 -0.2187
  186MOL    C5941129   4.524   3.949   1.331 -0.6781 -0.1336  0.2405
  186MOL    O6041130   4.453   4.029   1.260 -0.1887  0.0683 -0.1190
  186MOL    C6141131   4.511   3.950   1.486  0.3143 -0.3034  0.4633
  186MOL    H6241132   4.784   3.803   1.155 -1.8802 -1.1825  0.7434
  186MOL    H6341133   4.699   3.957   1.127 -0.1243  1.7298  1.3296
  186MOL    H6441134   4.619   3.758   1.339 -1.1309 -0.8039 -0.8079
  186MOL    H6541135   4.574   4.030   1.524 -1.3258  0.7184  1.0780
  186MOL    H6641136   4.414   3.976   1.529  0.6478  0.0515  0.9995
  186MOL    H6741137   4.546   3.855   1.525  1.0540  0.2717  1.2109
  186MOL    C6841138   4.512   3.765   1.159 -0.1666 -0.1284  0.1827
  186MOL    C6941139   4.379   3.698   1.215 -0.6905 -0.0464  0.7859
  186MOL    C7041140   4.403   3.564   1.280 -0.4171 -0.7870 -0.9234
  186MOL    O7141141   4.412   3.465   1.206  0.8055  0.4178 -0.4181
  186MOL    C7241142   4.430   3.555   1.432 -0.4935  0.4646  0.6182
  186MOL    H7341143   4.482   3.835   1.081 -1.2271  0.7805  1.3920
  186MOL    H7441144   4.569   3.693   1.099 -1.3315 -0.6163 -0.3689
  186MOL    H7541145   4.340   3.769   1.288 -0.5773 -0.4929  1.2862
  186MOL    H7641146   4.488   3.633   1.481 -0.2013 -1.0958  2.8791
  186MOL    H7741147   4.341   3.539   1.494  0.4059  4.3662  3.0966
  186MOL    H7841148   4.476   3.463   1.469 -0.1776 -0.2795 -1.5515
  186MOL    C7941149   4.275   3.681   1.094 -0.1561 -0.5754 -0.1240
  186MOL    C8041150   4.192   3.812   1.070 -0.5362  0.5290  0.1867
  186MOL    C8141151   4.096   3.837   1.186  0.4529  0.6592  0.3671
  186MOL    O8241152   4.046   3.745   1.247 -0.2450 -0.6238 -0.3895
  186MOL    C8341153   4.076   3.980   1.230  0.1271 -0.1324  0.2667
  186MOL    H8441154   4.208   3.598   1.119 -0.0722 -0.1038  1.7464
  186MOL    H8541155   4.315   3.655   0.996 -0.6610  0.0758 -0.5012
  186MOL    H8641156   4.266   3.892   1.069  1.3408 -1.1885  0.0681
  186MOL    H8741157   4.013   4.027   1.155  2.6325  1.3973 -0.9732
  186MOL    H8841158   4.175   4.026   1.227  0.6394 -1.2380 -0.0711
  186MOL    H8941159   4.038   3.987   1.331  2.9336  2.4525  1.2397
  186MOL    C9041160   4.131   3.836   0.928  0.6412 -0.0186  0.4218
  186MOL    C9141161   4.019   3.743   0.879  0.3677  0.2522  0.3258
  186MOL    C9241162   3.880   3.777   0.935  0.3562 -0.8249  0.2770
  186MOL    O9341163   3.849   3.896   0.949  0.4128 -0.2952  0.0466
  186MOL    C9441164   3.783   3.663   0.968  1.0070  0.1334 -0.5379
  186MOL    H9541165   4.100   3.940   0.931  2.6335  0.5873  1.0083
  186MOL    H9641166   4.216   3.832   0.860  0.1047 -0.3172 -0.2365
  186MOL    H9741167   4.035   3.651   0.935  2.9008 -0.9863 -2.2928
  186MOL    H9841168   3.758   3.615   0.873  0.7652 -0.3661 -0.2224
  186MOL    H9941169   3.829   3.586   1.030 -1.1356 -0.8383 -0.0983
  186MOL   H10041170   3.695   3.708   1.013  1.0554  0.7998 -1.0985
  186MOL   C10141171   4.028   3.707   0.725 -0.4780  0.4446  0.0849
  186MOL   C10241172   3.973   3.812   0.628  0.3263 -0.4626  0.8181
  186MOL   C10341173   3.914   3.745   0.499 -0.6995  0.0590 -0.3185
  186MOL   O10441174   3.980   3.670   0.423  0.4176  0.3130 -0.2072
  186MOL   C10541175   3.770   3.774   0.465 -0.0500 -0.0195  0.5502
  186MOL   H10641176   4.132   3.689   0.699 -1.1912 -3.2045 -0.5102
  186MOL   H10741177   3.965   3.621   0.700  0.4339  0.4042 -2.1558
  186MOL   H10841178   3.889   3.851   0.687  0.3594  0.1056  0.4886
  186MOL   H10941179   3.737   3.706   0.386  0.6726  1.8877 -1.4483
  186MOL   H11041180   3.709   3.759   0.553 -0.6912 -0.4412  0.0421
  186MOL   H11141181   3.758   3.874   0.424 -0.8982 -1.1899 -2.1843
  186MOL   C11241182   4.077   3.921   0.590  0.5954  0.8672  0.0576
  186MOL   C11341183   4.037   4.046   0.509  0.5109 -0.3724  0.2389
  186MOL   C11441184   4.156   4.120   0.446 -0.0342  0.1530 -0.5057
  186MOL   O11541185   4.195   4.225   0.493 -0.0270  0.4208  0.0769
  186MOL   C11641186   4.212   4.066   0.312 -0.1556 -0.4482 -0.8263
  186MOL   H11741187   4.148   3.862   0.532 -2.3769 -0.2151 -2.5883
  186MOL   H11841188   4.129   3.960   0.678  0.0833 -1.4368  1.4246
  186MOL   H11941189   3.976   4.015   0.424  1.6773 -0.3748 -0.6191
  186MOL   H12041190   4.213   4.140   0.232 -3.6524 -0.2677 -0.7817
  186MOL   H12141191   4.309   4.026   0.339 -0.9482 -0.5901  1.9585
  186MOL   H12241192   4.161   3.979   0.270 -2.6054  0.7575 -0.4274
  186MOL   C12341193   3.943   4.142   0.598  0.1609  0.0603  0.3451
  186MOL   C12441194   3.898   4.274   0.535 -0.6932  0.3594 -0.0182
  186MOL   C12541195   3.908   4.393   0.628 -1.1282  0.1851 -0.0406
  186MOL   O12641196   3.854   4.391   0.739 -0.0397 -0.5664 -0.1670
  186MOL   C12741197   4.000   4.505   0.587 -0.5516 -0.2144 -0.0820
  186MOL   H12841198   4.003   4.159   0.688 -1.1863  1.2350  1.0365
  186MOL   H12941199   3.855   4.083   0.625 -0.3457  1.6302  2.2768
  186MOL   H13041200   3.975   4.300   0.461 -1.9124  0.1658 -1.3690
  186MOL   H13141201   4.106   4.501   0.613  0.2309  1.6016 -2.8093
  186MOL   H13241202   3.967   4.582   0.657  0.0263  1.8456 -2.0330
  186MOL   H13341203   3.990   4.536   0.483  2.7060  1.7848  0.1261
  186MOL   C13441204   3.760   4.269   0.468  0.3048 -0.2675  0.1635
  186MOL   C13541205   3.760   4.299   0.316 -0.1517 -0.1150 -0.5076
  186MOL   C13641206   3.848   4.200   0.236  0.0399 -0.2170 -0.4075
  186MOL   O13741207   3.840   4.080   0.259  0.0677  0.5647 -0.5072
  186MOL   C13841208   3.936   4.249   0.117 -0.3103 -0.0568  0.0161
  186MOL   H13941209   3.696   4.339   0.521 -1.8078 -1.9562 -0.1038
  186MOL   H14041210   3.700   4.179   0.482  0.1864 -0.1077  0.6762
  186MOL   H14141211   3.808   4.396   0.307  1.8464 -0.7510  2.3942
  186MOL   H14241212   4.039   4.224   0.144 -1.2345 -1.2924  2.5296
  186MOL   H14341213   3.926   4.355   0.090 -0.6967  0.0211  0.4560
  186MOL   H14441214   3.929   4.186   0.029  0.6614 -2.4364  1.5939
  186MOL   C14541215   3.619   4.291   0.258  1.0411  0.2528  0.0285
  186MOL   C14641216   3.543   4.425   0.294  0.0407 -0.7022 -0.6367
  186MOL   C14741217   3.591   4.538   0.204 -0.6613  0.3657 -0.1578
  186MOL   O14841218   3.558   4.551   0.085 -0.8337 -0.4996  0.3304
  186MOL   C14941219   3.699   4.628   0.253 -0.0996  0.0017 -0.2017
  186MOL   H15041220   3.575   4.195   0.285 -0.6505  1.0168  0.0268
  186MOL   H15141221   3.623   4.286   0.149 -0.8490 -0.5930 -0.0153
  186MOL   H15241222   3.566   4.455   0.396  1.9184 -0.0918 -1.2293
  186MOL   H15341223   3.754   4.576   0.332  2.2837  0.7573 -1.3181
  186MOL   H15441224   3.762   4.657   0.170  0.2745  2.3211  0.8513
  186MOL   H15541225   3.655   4.714   0.302 -1.1596  0.3878 -1.8099
  186MOL   C15641226   3.394   4.386   0.286 -0.3216 -0.9567 -0.2362
  186MOL   C15741227   3.291   4.497   0.329 -0.7587  0.4720 -0.3793
  186MOL   C15841228   3.306   4.542   0.468 -0.5498  1.1139  0.5600
  186MOL   O15941229   3.373   4.486   0.552 -0.1773  0.3489 -0.3781
  186MOL   C16041230   3.236   4.668   0.516  0.5008  0.0609  0.0468
  186MOL   H16141231   3.370   4.364   0.182  1.3204  1.7529 -1.2360
  186MOL   H16241232   3.369   4.301   0.349 -2.2058 -0.7136 -0.6249
  186MOL   H16341233   3.300   4.582   0.261  0.1006  0.5841 -0.1314
  186MOL   H16441234   3.136   4.640   0.548  1.0631  1.7488  3.4437
  186MOL   H16541235   3.214   4.745   0.442 -1.7900  0.9101  1.5584
  186MOL   H16641236   3.285   4.707   0.605  0.5582  0.8264 -0.3152
  186MOL   C16741237   3.149   4.437   0.323  0.5199  0.3004  0.0050
  186MOL   C16841238   3.087   4.428   0.180 -0.0185 -0.3856  0.4664
  186MOL   C16941239   3.092   4.565   0.104  0.1706  0.0779 -0.1549
  186MOL   O17041240   3.110   4.670   0.163 -0.2876  0.5635 -0.0827
  186MOL   C17141241   3.070   4.555   7.813  0.7203 -0.3071  0.1121
  186MOL   H17241242   3.158   4.336   0.363  0.4185  0.6106  0.8110
  186MOL   H17341243   3.082   4.485   0.394 -1.4531  1.3366 -2.4762
  186MOL   H17441244   3.152   4.366   0.119 -0.8741 -1.0283  0.1926
  186MOL   H17541245   3.121   4.463   7.785 -1.3060 -1.4941  0.2605
  186MOL   H17641246   3.113   4.641   7.760 -0.0466  0.0627  0.0746
  186MOL   H17741247   2.967   4.553   7.779  1.2870 -2.8607 -1.5830
  186MOL   C17841248   2.944   4.366   0.192  0.1256 -0.8239  0.3434
  186MOL   C17941249   2.939   4.213   0.203  0.1956  0.3016 -0.0499
  186MOL   C18041250   3.002   4.143   0.086 -0.1360  0.4287  0.6975
  186MOL   O18141251   3.087   4.053   0.100  0.3130  0.6418 -0.3589
  186MOL   C18241252   2.949   4.177   7.807  0.2967  0.3717 -0.5145
  186MOL   H18341253   2.896   4.410   0.280 -2.3916  1.8892 -2.2283
  186MOL   H18441254   2.875   4.394   0.112  0.6758  1.6324  0.6968
  186MOL   H18541255   3.012   4.193   0.281 -1.1418 -1.6695  0.7622
  186MOL   H18641256   2.982   4.103   7.735  0.6411 -0.0713  0.1051
  186MOL   H18741257   2.993   4.272   7.774  0.9980  0.5263  0.8111
  186MOL   H18841258   2.840   4.173   7.807  0.2922  0.4262  0.3837
  186MOL   C18941259   2.801   4.170   0.232  0.7331 -0.3060 -0.3460
  186MOL   C19041260   2.802   4.058   0.341 -0.2419  0.2880  0.4261
  186MOL   C19141261   2.869   4.111   0.470 -0.0926 -0.0324  0.1937
  186MOL   O19241262   2.979   4.082   0.504 -0.2757  0.5833  0.2603
  186MOL   C19341263   2.784   4.204   0.564 -0.8974  0.1619 -0.3843
  186MOL   H19441264   2.729   4.246   0.260 -0.4018 -1.5017  0.0341
  186MOL   H19541265   2.750   4.124   0.147  0.2203  1.3935 -0.9688
  186MOL   H19641266   2.860   3.980   0.290 -2.6619 -0.0632 -1.8748
  186MOL   H19741267   2.691   4.157   0.597  0.3735 -1.0463  1.5029
  186MOL   H19841268   2.831   4.242   0.654 -0.9309  1.3898 -0.8747
  186MOL   H19941269   2.753   4.292   0.507  1.1135  0.9027 -0.3595
  186MOL   C20041270   2.657   4.015   0.359 -0.6302  0.6350 -0.2252
  186MOL   C20141271   2.634   3.895   0.455  0.6683 -0.4198 -0.8708
  186MOL   C20241272   2.719   3.770   0.424  0.0549 -0.3448 -0.4904
  186MOL   O20341273   2.749   3.735   0.310  0.0483  0.0410 -0.5436
  186MOL   C20441274   2.759   3.693   0.545 -0.1115 -0.4034  0.0986
  186MOL   H20541275   2.609   4.101   0.407  0.8445  2.0121 -1.1774
  186MOL   H20641276   2.616   3.993   0.261 -0.3539  2.5216 -0.7782
  186MOL   H20741277   2.671   3.920   0.555 -1.8480 -3.8442  0.9958
  186MOL   H20841278   2.688   3.707   0.626  0.7980 -0.6095  0.9367
  186MOL   H20941279   2.756   3.586   0.525 -0.3133 -0.9159  2.7034
  186MOL   H21041280   2.855   3.727   0.584 -0.2223 -0.6855  0.6224
  186MOL   C21141281   2.483   3.859   0.472  0.0749 -0.0285  1.1134
  186MOL   C21241282   2.423   3.793   0.344 -0.2680  0.1600 -0.4674
  186MOL   C21341283   2.270   3.810   0.341  0.0073  0.6114 -0.0615
  186MOL   O21441284   2.214   3.908   0.299 -0.5223 -0.5490  0.4373
  186MOL   C21541285   2.182   3.693   0.386  0.7159  1.0838 -0.0856
  186MOL   H21641286   2.455   3.799   0.559  1.4082 -2.3627 -0.0088
  186MOL   H21741287   2.435   3.957   0.479 -0.5408 -0.0953 -1.7602
  186MOL   H21841288   2.445   3.687   0.328 -1.2764 -0.1872  0.4053
  186MOL   H21941289   2.226   3.653   0.478 -2.3515 -0.3151  0.8529
  186MOL   H22041290   2.087   3.736   0.419 -0.0691 -0.0350 -0.8486
  186MOL   H22141291   2.169   3.619   0.307  0.1842  0.3303  0.6995
  186MOL   H22241292   2.450   3.857   0.259  1.2353  0.8205  0.4799
  187MOL     C141293   5.727   2.318   2.436 -0.4779  0.2638  0.1989
  187MOL     C241294   5.794   2.295   2.301 -0.0760  0.3608  0.4801
  187MOL     C341295   5.698   2.317   2.183 -0.0406  1.0593 -0.7435
  187MOL     O441296   5.678   2.222   2.114 -0.0056 -0.3078 -0.1659
  187MOL     C541297   5.648   2.450   2.149 -0.0758  0.4292 -0.0277
  187MOL     H641298   5.746   2.408   2.493  0.1108  0.1842  0.1243
  187MOL     H741299   5.783   2.254   2.505  1.4666  0.1673 -1.4346
  187MOL     H841300   5.815   2.189   2.315  1.7789  0.4659 -1.2797
  187MOL     H941301   5.704   2.476   2.059 -1.9226  0.8554 -1.0771
  187MOL    H1041302   5.543   2.435   2.124  0.2708 -2.6855  0.1982
  187MOL    H1141303   5.665   2.536   2.213 -0.5606  0.1572  0.4710
  187MOL    H1241304   5.623   2.283   2.438 -0.1523 -0.6957  1.1953
  187MOL    C1341305   5.928   2.362   2.293 -0.0666 -0.6710  0.2562
  187MOL    C1441306   6.018   2.298   2.183 -0.5631 -0.0616 -0.4173
  187MOL    C1541307   6.057   2.147   2.207 -0.5724 -0.1264  0.3229
  187MOL    O1641308   6.068   2.098   2.320 -0.6772  0.0715 -0.1622
  187MOL    C1741309   6.097   2.070   2.087  0.3480  0.0348  0.9467
  187MOL    H1841310   5.912   2.467   2.268  3.6614 -0.2935 -0.9352
  187MOL    H1941311   5.984   2.369   2.386  2.3570  1.0367 -1.2712
  187MOL    H2041312   5.976   2.308   2.083  0.5214  1.9135 -0.7127
  187MOL    H2141313   6.032   2.083   2.001 -0.2050 -0.6078  1.2616
  187MOL    H2241314   6.204   2.069   2.068  0.0285  1.0201 -0.9461
  187MOL    H2341315   6.072   1.968   2.118 -1.2866 -0.1527 -0.9415
  187MOL    C2441316   6.156   2.382   2.201 -0.1900  0.1152  0.2421
  187MOL    C2541317   6.211   2.420   2.063 -0.2524  0.0666 -0.0155
  187MOL    C2641318   6.118   2.510   1.986  0.2294  0.0260  1.0125
  187MOL    O2741319   6.024   2.575   2.032  0.0486 -0.4834 -0.1255
  187MOL    C2841320   6.151   2.519   1.839 -1.0518  0.7749  0.7196
  187MOL    H2941321   6.137   2.470   2.263  0.5069  1.3997 -1.3281
  187MOL    H3041322   6.235   2.327   2.252 -0.3477 -0.2177  0.1354
  187MOL    H3141323   6.212   2.329   2.004  0.7663 -0.5058  0.8789
  187MOL    H3241324   6.181   2.623   1.827  0.7088  0.2343  0.3232
  187MOL    H3341325   6.237   2.457   1.814 -0.7794  1.1723  0.6506
  187MOL    H3441326   6.067   2.488   1.777  0.5881 -0.4676 -0.9156
  187MOL    C3541327   6.355   2.470   2.089  0.1168 -0.4370  0.1482
  187MOL    C3641328   6.474   2.387   2.132  0.5917  0.1956 -0.2116
  187MOL    C3741329   6.495   2.277   2.030  0.6524 -0.2295 -0.4891
  187MOL    O3841330   6.541   2.303   1.925 -0.2426  0.4504  0.0010
  187MOL    C3941331   6.447   2.136   2.061 -0.0826 -0.2822  0.4229
  187MOL    H4041332   6.353   2.550   2.163  1.7230 -2.9665  3.0344
  187MOL    H4141333   6.405   2.514   2.003  0.6266 -0.4271  0.4534
  187MOL    H4241334   6.450   2.350   2.231 -0.7363  1.0336 -0.2059
  187MOL    H4341335   6.389   2.094   1.978  1.3739 -1.2108 -0.1463
  187MOL    H4441336   6.402   2.133   2.160  0.8501  2.3320  0.9681
  187MOL    H4541337   6.535   2.073   2.077 -0.1918 -0.4756  0.2684
  187MOL    C4641338   6.604   2.476   2.146 -1.0765 -0.2367  0.6946
  187MOL    C4741339   6.618   2.578   2.266 -0.1328 -0.0914  0.6097
  187MOL    C4841340   6.584   2.513   2.402  0.0309 -0.0531  0.2871
  187MOL    O4941341   6.672   2.448   2.467 -0.7049  0.3058  0.3278
  187MOL    C5041342   6.444   2.521   2.455 -0.1964 -0.1430  0.2873
  187MOL    H5141343   6.630   2.522   2.051 -1.0230 -1.4967  0.0873
  187MOL    H5241344   6.692   2.413   2.160 -0.3348 -0.0916 -2.8870
  187MOL    H5341345   6.535   2.647   2.254 -0.5224 -0.3830  1.5760
  187MOL    H5441346   6.387   2.429   2.471  2.1826 -1.6462  0.4832
  187MOL    H5541347   6.450   2.586   2.543  0.5382 -1.3392  1.1412
  187MOL    H5641348   6.387   2.581   2.385  1.8882  0.3371 -1.0338
  187MOL    C5741349   6.758   2.641   2.281 -0.3031  0.2991 -0.3520
  187MOL    C5841350   6.839   2.689   2.153  0.2322 -0.1530  0.6021
  187MOL    C5941351   6.746   2.766   2.062 -0.1472  0.4779 -0.3867
  187MOL    O6041352   6.655   2.839   2.109  0.2893  0.0366  0.0358
  187MOL    C6141353   6.760   2.744   1.912  0.0682  0.6593 -0.1981
  187MOL    H6241354   6.823   2.567   2.328  0.2022  1.2966  0.5335
  187MOL    H6341355   6.764   2.725   2.350 -0.0239  0.4072 -0.5028
  187MOL    H6441356   6.879   2.599   2.106 -0.0669 -0.3586  0.7431
  187MOL    H6541357   6.813   2.650   1.895 -1.5379 -0.4368  0.6958
  187MOL    H6641358   6.666   2.736   1.856 -0.2388 -1.5136  0.5451
  187MOL    H6741359   6.824   2.818   1.866  0.4673 -0.6787 -1.8512
  187MOL    C6841360   6.959   2.781   2.184  0.0496 -0.1221 -0.3936
  187MOL    C6941361   7.072   2.708   2.259 -0.6814 -0.4516 -0.5763
  187MOL    C7041362   7.066   2.735   2.416 -0.6303  0.5286 -0.1703
  187MOL    O7141363   7.014   2.839   2.466 -0.0538  0.2128  0.5381
  187MOL    C7241364   7.135   2.640   2.506 -0.1210 -0.3520 -0.0473
  187MOL    H7341365   7.003   2.815   2.090  0.3557  1.5969  0.3554
  187MOL    H7441366   6.926   2.871   2.236 -2.1874 -0.3277 -1.4116
  187MOL    H7541367   7.084   2.601   2.241  1.1035 -0.6737  1.6459
  187MOL    H7641368   7.242   2.658   2.505  0.1190 -1.4656  1.7435
  187MOL    H7741369   7.098   2.656   2.608 -1.1870  1.8947 -0.7777
  187MOL    H7841370   7.126   2.538   2.469 -3.2015  0.2160 -1.0207
  187MOL    C7941371   7.216   2.769   2.207 -0.7023  0.4576  0.6589
  187MOL    C8041372   7.277   2.692   2.084  0.8883 -0.6671 -0.8870
  187MOL    C8141373   7.399   2.610   2.126  0.0661  0.3111 -0.5509
  187MOL    O8241374   7.507   2.628   2.076  0.3297  0.3684  0.0426
  187MOL    C8341375   7.389   2.502   2.238 -0.2381  0.1273  0.1466
  187MOL    H8441376   7.286   2.771   2.290 -0.0216  0.0920  0.0947
  187MOL    H8541377   7.200   2.875   2.189 -2.0154 -0.0692 -1.4548
  187MOL    H8641378   7.203   2.618   2.052  0.3183  0.2375 -1.7088
  187MOL    H8741379   7.287   2.461   2.240 -0.0601 -0.5761 -2.8784
  187MOL    H8841380   7.387   2.538   2.341 -0.3208 -0.0838  0.2189
  187MOL    H8941381   7.451   2.414   2.223 -1.1498  0.1519 -4.5053
  187MOL    C9041382   7.293   2.778   1.957 -0.2228  0.0595 -0.1065
  187MOL    C9141383   7.290   2.721   1.814 -0.1051 -0.0497  0.9437
  187MOL    C9241384   7.141   2.698   1.789  0.0495 -0.0684 -0.1037
  187MOL    O9341385   7.069   2.781   1.733  0.5271 -0.1339  0.1468
  187MOL    C9441386   7.082   2.564   1.831  0.5109 -0.2589 -0.1481
  187MOL    H9541387   7.218   2.857   1.959  0.3704  0.6446 -0.9620
  187MOL    H9641388   7.389   2.830   1.959  0.2876 -0.8891  0.6237
  187MOL    H9741389   7.342   2.625   1.823  2.7679  1.2986 -0.6977
  187MOL    H9841390   6.998   2.577   1.899 -0.4523  0.0563 -1.3711
  187MOL    H9941391   7.042   2.511   1.744 -0.6566  2.2927 -1.2049
  187MOL   H10041392   7.162   2.513   1.884 -0.3202 -0.5346  0.8436
  187MOL   C10141393   7.351   2.805   1.705  0.2708  0.0147  0.2068
  187MOL   C10241394   7.349   2.738   1.560 -0.2700  0.4343 -0.0152
  187MOL   C10341395   7.418   2.602   1.563  0.1061 -0.7470  0.3234
  187MOL   O10441396   7.369   2.496   1.523 -0.1522 -0.4108  0.5230
  187MOL   C10541397   7.569   2.595   1.605 -0.4767  0.5374 -0.3584
  187MOL   H10641398   7.312   2.906   1.703  0.2576  0.0989  3.1831
  187MOL   H10741399   7.451   2.835   1.736  0.0472  1.7217 -0.7008
  187MOL   H10841400   7.247   2.706   1.535 -0.2670  0.9094 -0.6539
  187MOL   H10941401   7.577   2.533   1.694 -0.4426  1.3617  0.2218
  187MOL   H11041402   7.637   2.550   1.533  1.6232  3.2376 -0.1451
  187MOL   H11141403   7.613   2.692   1.629  2.4358 -0.7683 -0.3004
  187MOL   C11241404   7.390   2.830   1.446 -0.4812  0.0917 -0.4709
  187MOL   C11341405   7.272   2.935   1.407 -0.1361 -0.6737  0.1475
  187MOL   C11441406   7.151   2.865   1.349  0.6075  0.0900  0.3171
  187MOL   O11541407   7.149   2.822   1.238  0.2117 -0.5435 -0.5459
  187MOL   C11641408   7.027   2.868   1.430  0.1856 -0.3451 -0.0093
  187MOL   H11741409   7.432   2.771   1.365  2.9806  1.2503  0.3707
  187MOL   H11841410   7.482   2.882   1.473 -0.5678 -0.4367  0.8401
  187MOL   H11941411   7.237   2.981   1.499 -0.6307  0.8227 -0.7620
  187MOL   H12041412   7.036   2.786   1.500  0.5190 -1.2919 -1.1378
  187MOL   H12141413   7.019   2.967   1.475 -0.9424 -0.2176 -0.4749
  187MOL   H12241414   6.942   2.844   1.365 -1.4401  1.8865  1.2297
  187MOL   C12341415   7.346   3.030   1.292 -0.2549 -0.3256  0.0768
  187MOL   C12441416   7.293   3.168   1.276  0.0855 -0.7347 -0.4680
  187MOL   C12541417   7.310   3.245   1.406 -0.6601 -0.3671 -1.3851
  187MOL   O12641418   7.219   3.259   1.489  0.4619  0.3132  0.5975
  187MOL   C12741419   7.446   3.303   1.439 -0.0675 -0.1338  0.6393
  187MOL   H12841420   7.349   2.989   1.191  2.1487  1.1037 -0.4612
  187MOL   H12941421   7.451   3.041   1.320  0.0974  0.3375 -1.4275
  187MOL   H13041422   7.372   3.207   1.212 -0.9566 -1.1331 -2.0217
  187MOL   H13141423   7.492   3.341   1.347 -0.7106  0.2344  0.4694
  187MOL   H13241424   7.532   3.239   1.462  0.9062  0.6071 -0.8373
  187MOL   H13341425   7.436   3.388   1.507  3.3935  1.5713 -0.8470
  187MOL   C13441426   7.151   3.195   1.218  0.1838  0.4107  0.1625
  187MOL   C13541427   7.107   3.342   1.177  0.3525  0.7700 -0.8971
  187MOL   C13641428   7.221   3.393   1.086 -0.3380 -0.2426  0.2334
  187MOL   O13741429   7.322   3.439   1.136 -0.2637 -0.1555 -0.5423
  187MOL   C13841430   7.207   3.374   0.938 -0.0852 -0.2921  0.3060
  187MOL   H13941431   7.079   3.155   1.290  0.9562  2.6055  2.2334
  187MOL   H14041432   7.146   3.121   1.139 -0.3378 -0.7583  1.2717
  187MOL   H14141433   7.117   3.399   1.269 -2.0960 -0.6087  0.2750
  187MOL   H14241434   7.137   3.297   0.904  0.6064 -0.4970 -0.6710
  187MOL   H14341435   7.292   3.339   0.880  1.0625  2.3824  0.3206
  187MOL   H14441436   7.181   3.473   0.901 -1.0049  0.0004  1.6927
  187MOL   C14541437   6.963   3.360   1.124  0.7156  0.0754  0.1626
  187MOL   C14641438   6.846   3.287   1.200 -0.1758 -0.1438  0.6528
  187MOL   C14741439   6.815   3.370   1.323  0.1027  0.5565  0.1274
  187MOL   O14841440   6.736   3.461   1.323 -0.1783 -0.6080 -0.5231
  187MOL   C14941441   6.880   3.319   1.456  0.6352 -0.2180  0.0016
  187MOL   H15041442   6.946   3.324   1.023  1.7863 -1.6250  0.5788
  187MOL   H15141443   6.944   3.465   1.101  0.8216  0.2683  0.9485
  187MOL   H15241444   6.897   3.192   1.219  0.7476  0.5474  1.7336
  187MOL   H15341445   6.819   3.350   1.541  0.5854  1.0481 -0.4934
  187MOL   H15441446   6.916   3.216   1.452  0.5508 -0.1910 -2.3506
  187MOL   H15541447   6.962   3.387   1.478 -0.6635  0.3714  3.2404
  187MOL   C15641448   6.720   3.252   1.119 -0.0291 -0.9324 -1.2058
  187MOL   C15741449   6.609   3.176   1.190 -0.1652 -0.6271 -0.4353
  187MOL   C15841450   6.657   3.041   1.240  0.7474  0.0628  0.3172
  187MOL   O15941451   6.722   2.967   1.166 -0.1637  0.1449  0.7084
  187MOL   C16041452   6.608   2.998   1.379 -0.0385  0.0678 -0.4495
  187MOL   H16141453   6.688   3.348   1.077 -0.5082 -0.8840 -0.7332
  187MOL   H16241454   6.763   3.197   1.035  1.7119  0.6603 -1.3871
  187MOL   H16341455   6.591   3.228   1.284 -0.7932  2.9696 -2.4654
  187MOL   H16441456   6.682   2.985   1.458 -0.1005 -0.7074 -0.5142
  187MOL   H16541457   6.543   2.911   1.369  1.3082 -0.8817 -0.9229
  187MOL   H16641458   6.556   3.087   1.417 -0.6450 -0.3939 -0.1784
  187MOL   C16741459   6.487   3.166   1.108 -0.3687 -0.7069  0.1891
  187MOL   C16841460   6.371   3.260   1.152 -0.8415 -0.6175  0.0202
  187MOL   C16941461   6.320   3.219   1.291  0.5568 -0.0263 -0.4393
  187MOL   O17041462   6.308   3.102   1.328 -0.1891  0.7509 -0.3212
  187MOL   C17141463   6.264   3.331   1.388 -0.0083 -0.3879  0.8073
  187MOL   H17241464   6.514   3.183   1.004  1.0609  0.7621  0.7899
  187MOL   H17341465   6.447   3.065   1.099 -0.2721 -0.6788 -0.6178
  187MOL   H17441466   6.395   3.366   1.151  0.8286 -0.9648  1.1205
  187MOL   H17541467   6.296   3.429   1.352  0.2045 -0.2442  1.3876
  187MOL   H17641468   6.286   3.325   1.495 -0.2935  1.6029  0.9922
  187MOL   H17741469   6.155   3.331   1.389 -0.0584  0.3363 -2.0986
  187MOL   C17841470   6.250   3.263   1.057 -0.1773  0.3647 -0.6138
  187MOL   C17941471   6.148   3.387   1.075  0.2873 -0.0915 -0.1973
  187MOL   C18041472   6.009   3.341   1.037 -0.0315 -0.3304 -0.0270
  187MOL   O18141473   5.921   3.341   1.121 -0.2818 -0.1679  0.7076
  187MOL   C18241474   5.978   3.299   0.895  0.3195  0.7097 -0.0843
  187MOL   H18341475   6.285   3.247   0.955  2.0294 -0.7405  0.2788
  187MOL   H18441476   6.192   3.171   1.068 -0.4138  0.8843  3.0863
  187MOL   H18541477   6.153   3.406   1.182  0.2003 -1.8693  0.1360
  187MOL   H18641478   5.977   3.391   0.837 -0.8793  0.5732 -0.2911
  187MOL   H18741479   5.884   3.245   0.886  1.3420 -1.4257  1.3319
  187MOL   H18841480   6.050   3.225   0.860 -0.9776 -0.2916 -0.6761
  187MOL   C18941481   6.193   3.509   0.999 -0.0889  0.2397  0.0348
  187MOL   C19041482   6.103   3.631   1.020 -0.3979 -0.4592  0.1844
  187MOL   C19141483   6.125   3.689   1.157 -0.4584  0.9880  1.1020
  187MOL   O19241484   6.220   3.765   1.180 -0.2807 -0.0617 -0.0796
  187MOL   C19341485   6.018   3.656   1.267  0.2368  0.2263 -0.3930
  187MOL   H19441486   6.292   3.553   1.010 -0.7571  1.1312  3.1104
  187MOL   H19541487   6.183   3.485   0.893 -0.1497 -0.5130  0.2085
  187MOL   H19641488   5.998   3.602   1.016 -0.9554  1.5521 -0.2670
  187MOL   H19741489   6.027   3.728   1.348 -0.6730 -1.2618  1.0570
  187MOL   H19841490   5.914   3.670   1.238  0.5085  0.7128 -1.1466
  187MOL   H19941491   6.015   3.557   1.313  2.6600  0.3308  0.0953
  187MOL   C20041492   6.120   3.738   0.907  0.0699 -0.0336  0.1033
  187MOL   C20141493   6.016   3.851   0.898  0.7108  0.3525  0.0668
  187MOL   C20241494   5.875   3.796   0.888  0.3156  0.7804  0.1935
  187MOL   O20341495   5.852   3.700   0.818  0.4821 -0.0621 -0.2325
  187MOL   C20441496   5.773   3.871   0.972  0.1177  1.1295 -0.1309
  187MOL   H20541497   6.220   3.780   0.902  1.0901 -2.6034 -2.1444
  187MOL   H20641498   6.111   3.676   0.818 -0.6033  0.0095  0.1359
  187MOL   H20741499   6.036   3.910   0.987 -0.2745 -0.4888  0.8641
  187MOL   H20841500   5.812   3.970   0.994 -1.0225  1.6510 -0.4182
  187MOL   H20941501   5.676   3.889   0.927  0.9192  3.1242 -1.1044
  187MOL   H21041502   5.765   3.829   1.073  0.1760 -1.0757 -1.0057
  187MOL   C21141503   6.048   3.932   0.770  0.0871 -0.3182 -0.2351
  187MOL   C21241504   5.989   4.073   0.766  0.1013 -0.1211 -0.3094
  187MOL   C21341505   6.046   4.136   0.640 -0.2855 -0.0832 -0.0727
  187MOL   O21441506   6.168   4.155   0.626 -0.3450 -0.0104  0.0124
  187MOL   C21541507   5.951   4.191   0.536  1.3959  0.2291 -0.8163
  187MOL   H21641508   6.156   3.948   0.773  0.0526 -0.3007  1.1584
  187MOL   H21741509   6.025   3.871   0.682 -0.9639 -1.8236  1.0678
  187MOL   H21841510   6.013   4.126   0.858  2.9567 -2.0899  0.1513
  187MOL   H21941511   5.883   4.264   0.581  2.5418  1.5498 -1.1842
  187MOL   H22041512   5.995   4.241   0.450  2.2589 -1.0524 -1.1252
  187MOL   H22141513   5.892   4.104   0.507  0.3571 -0.0529  1.9845
  187MOL   H22241514   5.881   4.060   0.755  0.1153 -0.7234  0.1860
  188MOL     C141515   3.049   6.530   1.548  0.3119 -0.0722  0.0217
  188MOL     C241516   2.950   6.420   1.503 -0.3743  0.1172  0.5209
  188MOL     C341517   2.805   6.482   1.506 -0.8767  0.2547  0.2291
  188MOL     O441518   2.759   6.553   1.415 -0.4110  0.4195  0.3137
  188MOL     C541519   2.723   6.462   1.632  0.3284  0.2045  0.1127
  188MOL     H641520   3.134   6.489   1.603  1.8349  4.1333  0.9407
  188MOL     H741521   3.003   6.590   1.626  1.6835  0.7804  0.1875
  188MOL     H841522   2.960   6.337   1.573 -0.2809  0.0516  0.4290
  188MOL     H941523   2.767   6.538   1.696 -0.2985  0.2890  0.4514
  188MOL    H1041524   2.617   6.465   1.607  0.4411  0.0299 -0.4010
  188MOL    H1141525   2.745   6.366   1.677 -1.4718 -0.9399 -1.3504
  188MOL    H1241526   3.087   6.597   1.471 -0.7544  1.3291  0.6990
  188MOL    C1341527   2.984   6.367   1.370 -0.4488  0.1875  0.4487
  188MOL    C1441528   3.125   6.307   1.361 -0.1569  0.2940 -0.1792
  188MOL    C1541529   3.154   6.310   1.213  0.1538 -0.5461 -0.6731
  188MOL    O1641530   3.229   6.402   1.170  0.2264 -0.8579  0.0769
  188MOL    C1741531   3.091   6.214   1.115 -0.3704 -0.1048  0.0351
  188MOL    H1841532   2.903   6.303   1.333 -0.8901 -0.1767  2.0323
  188MOL    H1941533   2.985   6.452   1.302 -1.1035  0.2420  0.5016
  188MOL    H2041534   3.199   6.373   1.406 -1.1827 -0.1889  2.2810
  188MOL    H2141535   3.137   6.116   1.128  3.3854  1.4217 -1.0147
  188MOL    H2241536   2.983   6.213   1.126 -0.4897  1.5228 -0.8735
  188MOL    H2341537   3.122   6.245   1.015  1.3015 -2.0985 -0.1097
  188MOL    C2441538   3.142   6.174   1.432 -0.2520  0.1246 -0.4804
  188MOL    C2541539   3.270   6.094   1.400 -0.4844  0.1389 -0.4921
  188MOL    C2641540   3.405   6.168   1.433 -0.0085  0.2470 -0.9069
  188MOL    O2741541   3.413   6.237   1.539  0.1182 -0.2477 -0.0406
  188MOL    C2841542   3.516   6.179   1.329  0.6512  0.4739  0.6363
  188MOL    H2941543   3.136   6.185   1.540  0.7158 -2.1614 -0.1510
  188MOL    H3041544   3.065   6.101   1.407 -0.1812 -1.8744  4.5597
  188MOL    H3141545   3.276   6.090   1.291 -2.9022  2.0955 -0.7428
  188MOL    H3241546   3.573   6.271   1.344 -0.9767  1.6674 -0.3576
  188MOL    H3341547   3.593   6.107   1.356  1.8229  1.2061 -0.6451
  188MOL    H3441548   3.481   6.158   1.228 -0.5962  0.7504  1.0010
  188MOL    C3541549   3.267   5.953   1.474  0.2527  0.1110 -0.0666
  188MOL    C3641550   3.338   5.825   1.430 -0.0903  0.3513 -0.3862
  188MOL    C3741551   3.315   5.782   1.285 -0.3692 -0.1249  0.4294
  188MOL    O3841552   3.401   5.801   1.201 -0.0491 -0.8196 -0.3048
  188MOL    C3941553   3.180   5.712   1.264  0.2077 -0.0496 -0.2992
  188MOL    H4041554   3.162   5.926   1.480 -0.4416  2.1327 -2.2020
  188MOL    H4141555   3.283   5.966   1.581  1.1057 -0.4676 -0.1193
  188MOL    H4241556   3.302   5.742   1.490 -1.6568  1.2289 -0.0959
  188MOL    H4341557   3.107   5.745   1.338 -0.2425 -2.4986  0.4239
  188MOL    H4441558   3.200   5.606   1.281  1.7598 -0.1926 -2.7069
  188MOL    H4541559   3.136   5.711   1.164 -0.3042 -1.9536 -0.0751
  188MOL    C4641560   3.495   5.824   1.470 -0.4549  0.1652 -0.6360
  188MOL    C4741561   3.525   5.833   1.623  0.1087 -0.2101 -0.0355
  188MOL    C4841562   3.461   5.730   1.721 -0.1525 -0.0294 -0.1265
  188MOL    O4941563   3.476   5.609   1.708  0.1469 -0.9036  0.0402
  188MOL    C5041564   3.386   5.783   1.844 -0.5722 -0.3057 -0.3350
  188MOL    H5141565   3.541   5.904   1.413 -1.3937 -1.3027 -3.5456
  188MOL    H5241566   3.549   5.734   1.442 -1.2420  0.0656 -1.8845
  188MOL    H5341567   3.478   5.926   1.655 -2.0123 -1.1379 -0.4083
  188MOL    H5441568   3.299   5.721   1.866 -0.7480  0.0228 -0.1111
  188MOL    H5541569   3.453   5.795   1.929 -0.0705  0.7411 -0.8668
  188MOL    H5641570   3.349   5.885   1.831 -0.4867 -0.1847  0.3502
  188MOL    C5741571   3.678   5.858   1.645 -0.5175 -0.5719  0.4563
  188MOL    C5841572   3.712   5.935   1.772  0.5628  0.3809 -0.6270
  188MOL    C5941573   3.868   5.920   1.806  0.3251 -0.4688  0.2606
  188MOL    O6041574   3.951   5.994   1.759  0.3911  0.6827 -0.3082
  188MOL    C6141575   3.915   5.797   1.888 -0.3205  0.3504  0.0897
  188MOL    H6241576   3.724   5.911   1.561 -0.0907 -1.1253  0.3413
  188MOL    H6341577   3.732   5.764   1.651 -1.6352 -1.3557 -1.4030
  188MOL    H6441578   3.653   5.909   1.859 -0.3692  1.9386 -0.7755
  188MOL    H6541579   4.022   5.782   1.901 -0.5145 -0.2528  1.0030
  188MOL    H6641580   3.878   5.815   1.989 -2.3755 -0.0890 -0.5507
  188MOL    H6741581   3.872   5.713   1.834 -0.2044  0.0611  0.4493
  188MOL    C6841582   3.667   6.076   1.750 -0.0022 -0.6736 -0.5714
  188MOL    C6941583   3.681   6.176   1.869  0.3998  0.5016 -0.1679
  188MOL    C7041584   3.581   6.137   1.977  0.2502  0.2399  0.3838
  188MOL    O7141585   3.466   6.104   1.954 -0.1444  0.0770 -0.3730
  188MOL    C7241586   3.625   6.137   2.120  0.2390  0.0506 -0.0278
  188MOL    H7341587   3.718   6.131   1.671 -0.3412  0.4470 -0.0180
  188MOL    H7441588   3.568   6.088   1.706 -0.2369  0.2935  0.1988
  188MOL    H7541589   3.782   6.167   1.909  0.8558 -0.1762 -1.4326
  188MOL    H7641590   3.573   6.058   2.175  0.1360 -0.7972 -1.3191
  188MOL    H7741591   3.734   6.136   2.113  0.3989 -1.2392  2.0994
  188MOL    H7841592   3.599   6.229   2.171 -2.3016  0.6720 -2.3243
  188MOL    C7941593   3.655   6.328   1.839  0.4327 -0.2790  0.2025
  188MOL    C8041594   3.765   6.390   1.760 -0.2654  0.9133  0.3505
  188MOL    C8141595   3.877   6.444   1.847  0.2435  0.0650  0.4965
  188MOL    O8241596   3.849   6.529   1.929  0.3051  0.6136 -0.1112
  188MOL    C8341597   4.016   6.403   1.810 -0.5043  1.0737 -0.0096
  188MOL    H8441598   3.656   6.374   1.937  1.8031 -1.1002  0.5772
  188MOL    H8541599   3.558   6.338   1.790 -0.0190  1.7633  1.4701
  188MOL    H8641600   3.814   6.322   1.691 -2.4012 -0.5556  0.2401
  188MOL    H8741601   4.018   6.300   1.772  1.2159  0.9128  0.4731
  188MOL    H8841602   4.087   6.432   1.887 -0.5073  2.3778 -0.4910
  188MOL    H8941603   4.055   6.471   1.734 -1.9075 -0.7911 -2.4822
  188MOL    C9041604   3.715   6.514   1.681 -0.1534  0.0311  0.5573
  188MOL    C9141605   3.816   6.578   1.579  0.4540 -0.1226  0.1085
  188MOL    C9241606   3.856   6.485   1.462 -0.0524 -0.3628  0.0301
  188MOL    O9341607   3.786   6.392   1.431  0.7038 -0.3683  0.1071
  188MOL    C9441608   3.990   6.502   1.390  0.0913 -0.5857 -0.0720
  188MOL    H9541609   3.622   6.495   1.628  0.9673  1.8264 -2.1072
  188MOL    H9641610   3.692   6.599   1.745  2.7538  3.3405 -2.5937
  188MOL    H9741611   3.912   6.603   1.625  0.6783 -2.6845  1.1334
  188MOL    H9841612   3.978   6.514   1.283 -2.6731  4.3010  0.6586
  188MOL    H9941613   4.041   6.588   1.434  1.3494 -1.0340 -0.6374
  188MOL   H10041614   4.047   6.411   1.413  1.7616  0.8990  1.8990
  188MOL   C10141615   3.764   6.715   1.534  0.1692  0.2616 -0.1613
  188MOL   C10241616   3.628   6.709   1.461  0.3439 -0.3032  0.1075
  188MOL   C10341617   3.616   6.659   1.316 -0.1582  0.1194  0.0319
  188MOL   O10441618   3.705   6.684   1.236  0.2075 -0.4802  0.0738
  188MOL   C10541619   3.488   6.599   1.264 -0.8799  0.7700  0.2961
  188MOL   H10641620   3.763   6.779   1.622  2.5193  0.2284 -0.0905
  188MOL   H10741621   3.836   6.771   1.475 -0.2049 -0.1232 -0.9973
  188MOL   H10841622   3.554   6.638   1.498  1.4593 -0.4754  2.0585
  188MOL   H10941623   3.463   6.672   1.187  1.9154  0.9403 -0.5251
  188MOL   H11041624   3.494   6.495   1.233 -0.1528  1.1207 -0.7480
  188MOL   H11141625   3.407   6.605   1.337 -0.7640 -1.9088  0.7038
  188MOL   C11241626   3.550   6.838   1.491  0.3708  0.1898 -0.1382
  188MOL   C11341627   3.487   6.864   1.628 -0.4749 -0.5794 -0.1207
  188MOL   C11441628   3.368   6.775   1.664  0.5891 -0.0515  0.2117
  188MOL   O11541629   3.259   6.800   1.613  0.4986  0.4329  0.5842
  188MOL   C11641630   3.383   6.656   1.755  0.4517  0.8253 -0.4301
  188MOL   H11741631   3.461   6.834   1.427 -0.2411  1.9052  0.5719
  188MOL   H11841632   3.607   6.923   1.455  0.1542  0.2027 -0.4557
  188MOL   H11941633   3.572   6.842   1.693 -0.9211 -0.2576  0.5892
  188MOL   H12041634   3.297   6.590   1.764  1.1651  0.1128  1.4801
  188MOL   H12141635   3.475   6.598   1.750 -0.6842 -0.8229 -3.6047
  188MOL   H12241636   3.387   6.692   1.858  1.7621 -0.2495 -0.0917
  188MOL   C12341637   3.478   7.020   1.656 -0.8194 -0.1668 -0.1763
  188MOL   C12441638   3.479   7.067   1.805  0.2497 -1.0226  0.1539
  188MOL   C12541639   3.607   7.028   1.886  0.0504  0.6910 -0.3070
  188MOL   O12641640   3.626   6.910   1.930 -0.7453  0.7327  0.0289
  188MOL   C12741641   3.707   7.141   1.902 -0.1131 -0.4836 -0.1397
  188MOL   H12841642   3.387   7.062   1.613 -1.2393  0.3315  1.1661
  188MOL   H12941643   3.571   7.056   1.614 -0.7189 -1.0316 -0.7024
  188MOL   H13041644   3.472   7.175   1.792 -1.0476 -1.4500 -3.1804
  188MOL   H13141645   3.799   7.117   1.849  0.3819 -0.2453  0.6124
  188MOL   H13241646   3.736   7.141   2.007  0.1104  0.9394 -0.1842
  188MOL   H13341647   3.669   7.242   1.881  1.2163  0.4372  1.7458
  188MOL   C13441648   3.351   7.022   1.878 -0.7228  0.3691  0.8998
  188MOL   C13541649   3.338   7.063   2.022 -0.0447 -0.5943  0.8831
  188MOL   C13641650   3.389   7.211   2.054 -0.5443  0.1861  0.0813
  188MOL   O13741651   3.472   7.238   2.143 -0.6892  0.3004 -0.1257
  188MOL   C13841652   3.322   7.331   1.987  0.5253  0.4195  0.3018
  188MOL   H13941653   3.337   6.915   1.865 -0.2484  0.6511 -2.3100
  188MOL   H14041654   3.279   7.068   1.810  2.1410  3.3007 -0.3325
  188MOL   H14141655   3.404   6.998   2.081  1.3887 -0.0119 -0.0627
  188MOL   H14241656   3.377   7.425   1.990  0.9984  0.1521  0.0730
  188MOL   H14341657   3.227   7.351   2.035 -0.4181  0.3603 -1.5113
  188MOL   H14441658   3.297   7.311   1.882  0.1210  0.4229  0.3985
  188MOL   C14541659   3.186   7.055   2.075  0.1551  0.4365  0.1550
  188MOL   C14641660   3.138   6.909   2.092 -0.1012  0.0820  0.3545
  188MOL   C14741661   3.225   6.818   2.187  0.0905  0.5138 -0.0740
  188MOL   O14841662   3.236   6.697   2.170 -0.4681  0.3051  0.4830
  188MOL   C14941663   3.280   6.889   2.307 -0.3194  0.2090  0.0837
  188MOL   H15041664   3.115   7.103   2.007 -1.5964 -0.8757  1.0043
  188MOL   H15141665   3.182   7.116   2.165  0.5993 -0.3377  0.7015
  188MOL   H15241666   3.143   6.864   1.993 -0.2989 -2.1796  1.3191
  188MOL   H15341667   3.336   6.973   2.267 -1.5442  1.5736  1.1764
  188MOL   H15441668   3.212   6.948   2.369  0.9826  1.0255  0.7657
  188MOL   H15541669   3.345   6.825   2.367  0.6111  0.3590 -0.7521
  188MOL   C15641670   2.995   6.906   2.145 -0.0280 -0.1653 -0.5785
  188MOL   C15741671   2.908   6.777   2.111  0.2467  0.2743  0.3539
  188MOL   C15841672   2.880   6.758   1.961  0.1985 -0.0856 -0.4614
  188MOL   O15941673   2.834   6.653   1.924  0.4555 -0.5052  0.3591
  188MOL   C16041674   2.913   6.858   1.861  0.1354 -0.6277  0.3693
  188MOL   H16141675   2.995   6.908   2.254  0.3483  1.2358 -0.6004
  188MOL   H16241676   2.941   6.994   2.109 -0.2587  0.6734  1.7223
  188MOL   H16341677   2.965   6.687   2.133  0.2803  0.0759 -0.5046
  188MOL   H16441678   2.849   6.848   1.774  2.6783 -0.0721 -1.6482
  188MOL   H16541679   3.018   6.848   1.833  0.5730  1.8561  1.0155
  188MOL   H16641680   2.900   6.956   1.905 -1.4674 -0.9367  0.6057
  188MOL   C16741681   2.782   6.760   2.194 -0.3061  0.2076  0.2608
  188MOL   C16841682   2.727   6.615   2.195  0.9185 -0.3995  0.3552
  188MOL   C16941683   2.591   6.607   2.260 -0.2465 -0.1519 -0.8053
  188MOL   O17041684   2.579   6.645   2.377  0.1841  0.1506 -0.6377
  188MOL   C17141685   2.469   6.565   2.175 -0.1254  0.3370 -0.5122
  188MOL   H17241686   2.812   6.789   2.294  1.0698  0.9196 -0.3474
  188MOL   H17341687   2.705   6.835   2.176 -2.0172 -1.2485  1.3137
  188MOL   H17441688   2.702   6.589   2.092  1.1093  1.0170 -0.0595
  188MOL   H17541689   2.451   6.643   2.101  2.2049 -0.9423 -2.5261
  188MOL   H17641690   2.379   6.564   2.237 -0.2683 -2.6687 -0.6994
  188MOL   H17741691   2.477   6.467   2.129 -2.8427  0.0271 -0.4131
  188MOL   C17841692   2.827   6.512   2.261 -0.1103  0.0077  0.6348
  188MOL   C17941693   2.894   6.413   2.161 -0.5561  0.0709 -0.1401
  188MOL   C18041694   2.794   6.341   2.081  0.5398  0.7646  0.2131
  188MOL   O18141695   2.699   6.280   2.135 -0.1271 -0.5679 -0.0720
  188MOL   C18241696   2.815   6.332   1.935  0.0678 -0.4679 -0.2667
  188MOL   H18341697   2.908   6.560   2.316  1.3781 -2.5539  0.7694
  188MOL   H18441698   2.772   6.451   2.333  0.7153 -0.4515  0.8836
  188MOL   H18541699   2.960   6.471   2.097  1.3252 -0.6301  1.1258
  188MOL   H18641700   2.852   6.235   1.903 -0.1102 -0.7871  0.4835
  188MOL   H18741701   2.880   6.408   1.892 -2.2054  0.5332 -2.0332
  188MOL   H18841702   2.717   6.351   1.890  0.1329  1.2676  0.2799
  188MOL   C18941703   2.985   6.314   2.239  0.1299 -0.2828  0.0200
  188MOL   C19041704   3.071   6.231   2.145 -0.3077 -0.0286 -0.6769
  188MOL   C19141705   3.222   6.234   2.193  0.5896 -0.2057 -0.2721
  188MOL   O19241706   3.266   6.143   2.264  0.0847  0.1532 -0.3241
  188MOL   C19341707   3.306   6.357   2.152  0.6543 -0.1631 -0.1471
  188MOL   H19441708   3.051   6.368   2.306 -0.1862 -0.5158  0.5198
  188MOL   H19541709   2.919   6.243   2.288  0.0305  0.5900  1.1668
  188MOL   H19641710   3.083   6.289   2.053 -0.8891  1.9658  0.4833
  188MOL   H19741711   3.304   6.444   2.218 -0.0438 -0.4614  0.2251
  188MOL   H19841712   3.409   6.324   2.137  1.2210  1.0392  1.0154
  188MOL   H19941713   3.258   6.393   2.060  1.8360  1.0346 -0.3105
  188MOL   C20041714   3.023   6.088   2.110 -0.3492 -0.1858  0.0154
  188MOL   C20141715   3.099   6.009   2.003 -0.5973  0.4355  0.1722
  188MOL   C20241716   3.069   6.077   1.865 -0.3651 -0.0273 -0.0278
  188MOL   O20341717   2.959   6.062   1.809  0.3108 -0.0890  0.3123
  188MOL   C20441718   3.156   6.184   1.809  0.1601  0.0600 -0.1784
  188MOL   H20541719   3.015   6.040   2.208  0.1254  1.2198  0.7531
  188MOL   H20641720   2.925   6.100   2.065  0.2319  1.2713 -0.8963
  188MOL   H20741721   3.207   6.000   2.015 -0.8336 -1.1813  1.2765
  188MOL   H20841722   3.108   6.261   1.749 -1.2571 -0.9657 -0.3743
  188MOL   H20941723   3.192   6.249   1.889 -0.7257  2.0716 -1.3853
  188MOL   H21041724   3.250   6.148   1.767 -0.6258 -0.6956 -1.3122
  188MOL   C21141725   3.064   5.855   2.001 -0.6052  0.0608  0.6019
  188MOL   C21241726   3.098   5.776   2.125 -0.0850  0.1178 -0.7123
  188MOL   C21341727   3.023   5.645   2.150  0.3360  0.5542 -0.2410
  188MOL   O21441728   2.926   5.623   2.085  0.3543 -0.0460 -0.0723
  188MOL   C21541729   3.076   5.553   2.259  0.4554 -0.3041 -0.0263
  188MOL   H21641730   2.958   5.843   1.980 -0.6614 -2.7637  2.2202
  188MOL   H21741731   3.111   5.801   1.919 -1.7984  1.0051 -0.7331
  188MOL   H21841732   3.073   5.835   2.214  1.9371 -0.4958  0.2928
  188MOL   H21941733   2.988   5.521   2.314  0.6287 -0.8829 -0.0827
  188MOL   H22041734   3.131   5.467   2.221  1.5033  1.0549 -1.6981
  188MOL   H22141735   3.135   5.611   2.330  0.2767  0.3965 -0.4402
  188MOL   H22241736   3.206   5.760   2.125  0.5575  3.8506  2.1405
  189MOL     C141737   2.133   1.864   2.919  0.6130  0.1882  0.7326
  189MOL     C241738   2.258   1.853   3.001  0.2843 -0.6100 -0.2024
  189MOL     C341739   2.381   1.785   2.928  0.5438 -0.3237 -0.0396
  189MOL     O441740   2.437   1.837   2.834 -0.3881 -0.4222  0.0224
  189MOL     C541741   2.428   1.649   2.985 -0.6098  0.2624  0.4366
  189MOL     H641742   2.066   1.779   2.937 -1.3730  0.6334 -3.8135
  189MOL     H741743   2.154   1.862   2.813 -3.1029  0.1870 -0.0880
  189MOL     H841744   2.238   1.785   3.083  2.5548 -0.6119  0.3843
  189MOL     H941745   2.359   1.565   2.975  1.3226 -1.2613 -0.4336
  189MOL    H1041746   2.513   1.618   2.924 -1.5169 -0.2464 -0.5900
  189MOL    H1141747   2.464   1.657   3.088 -2.1904  1.0997  0.9354
  189MOL    H1241748   2.075   1.952   2.946  0.3163 -0.0117  0.7497
  189MOL    C1341749   2.306   1.997   3.051 -0.2363 -0.3360 -0.3968
  189MOL    C1441750   2.413   2.013   3.163  0.6702 -0.5268 -0.0766
  189MOL    C1541751   2.554   1.991   3.112  0.5359  0.1027  0.2716
  189MOL    O1641752   2.617   1.891   3.140 -0.2214  1.1420 -1.0733
  189MOL    C1741753   2.609   2.098   3.018  0.4815  0.0278  0.0522
  189MOL    H1841754   2.347   2.038   2.958 -1.3742 -3.5105 -2.3591
  189MOL    H1941755   2.217   2.052   3.081 -0.2347 -1.1816  1.1811
  189MOL    H2041756   2.409   2.119   3.188 -0.7800 -0.7788  0.7816
  189MOL    H2141757   2.687   2.157   3.066  1.8661 -0.4636 -1.5129
  189MOL    H2241758   2.645   2.058   2.923  0.9708  2.2879 -0.7485
  189MOL    H2341759   2.530   2.168   2.992 -0.3699 -0.7109  0.6321
  189MOL    C2441760   2.391   1.931   3.297 -0.0106  0.1098  0.2011
  189MOL    C2541761   2.463   1.989   3.418 -0.4373 -0.0759  0.4598
  189MOL    C2641762   2.391   2.116   3.468 -0.0091  0.6368 -0.1136
  189MOL    O2741763   2.276   2.110   3.515 -0.0395 -0.7442 -0.7804
  189MOL    C2841764   2.471   2.248   3.454  0.1477  0.2788  0.2791
  189MOL    H2941765   2.284   1.944   3.315  0.4052  1.2173  1.9929
  189MOL    H3041766   2.412   1.824   3.288  0.5348  0.2628 -0.3685
  189MOL    H3141767   2.563   2.025   3.392 -0.7600  0.4185 -0.1117
  189MOL    H3241768   2.576   2.229   3.429  0.3251 -0.3792  1.4738
  189MOL    H3341769   2.426   2.291   3.365 -0.4963 -0.2596  0.3455
  189MOL    H3441770   2.445   2.312   3.538 -0.5620 -0.7782  0.8838
  189MOL    C3541771   2.475   1.885   3.536 -0.6908  0.0529 -1.1197
  189MOL    C3641772   2.567   1.766   3.507 -0.2999  0.2648 -0.4047
  189MOL    C3741773   2.714   1.811   3.485  0.0949 -0.3941 -0.3822
  189MOL    O3841774   2.755   1.914   3.541 -0.6740  0.3773 -0.0770
  189MOL    C3941775   2.799   1.733   3.390  0.0838 -0.3725  0.4282
  189MOL    H4041776   2.381   1.848   3.576  1.0261 -2.7251  0.4646
  189MOL    H4141777   2.507   1.937   3.626 -2.3089 -1.5866  0.4368
  189MOL    H4241778   2.510   1.724   3.424  1.9188 -0.8318 -1.4006
  189MOL    H4341779   2.904   1.743   3.421  0.7025 -0.8099 -1.4772
  189MOL    H4441780   2.793   1.770   3.288  0.0659 -0.4952  0.3850
  189MOL    H4541781   2.762   1.630   3.389  0.9886 -0.7102  0.9717
  189MOL    C4641782   2.563   1.656   3.610  0.2329  0.8412  0.2074
  189MOL    C4741783   2.647   1.677   3.739  0.2779 -0.1420  0.1971
  189MOL    C4841784   2.600   1.797   3.828  0.9357 -0.3727  0.2933
  189MOL    O4941785   2.491   1.803   3.881  0.0176  0.1056 -0.0636
  189MOL    C5041786   2.710   1.894   3.877 -0.3365  0.3550  0.4860
  189MOL    H5141787   2.603   1.569   3.557  2.4617  2.4618 -0.8067
  189MOL    H5241788   2.460   1.634   3.640  0.4345  0.6530  0.7713
  189MOL    H5341789   2.748   1.707   3.713  0.2414  0.9223  1.2467
  189MOL    H5441790   2.712   1.988   3.822  1.5772  0.0486  0.0090
  189MOL    H5541791   2.696   1.924   3.981 -0.6272  1.8927  0.0212
  189MOL    H5641792   2.806   1.845   3.862 -0.5086 -0.1731  1.0883
  189MOL    C5741793   2.675   1.546   3.819 -1.1599 -0.2572  0.6761
  189MOL    C5841794   2.570   1.486   3.918 -0.3665  0.1186  0.0612
  189MOL    C5941795   2.433   1.467   3.848  0.2129 -0.2401  0.1803
  189MOL    O6041796   2.419   1.367   3.770  0.0427 -0.2801 -0.4169
  189MOL    C6141797   2.321   1.570   3.868  0.2028  0.0236 -0.5991
  189MOL    H6241798   2.769   1.570   3.868 -1.0126 -0.4430  0.4821
  189MOL    H6341799   2.690   1.474   3.739 -1.3699 -1.9520  2.1507
  189MOL    H6441800   2.545   1.558   3.996 -0.0438  1.4565 -1.0384
  189MOL    H6541801   2.330   1.634   3.956 -1.2820  0.2245 -0.5806
  189MOL    H6641802   2.303   1.638   3.785  0.2592 -0.0172 -0.6440
  189MOL    H6741803   2.230   1.513   3.885 -0.2509 -0.5019 -4.4511
  189MOL    C6841804   2.621   1.355   3.974  0.3852  0.1440  0.2485
  189MOL    C6941805   2.536   1.284   4.077 -0.0041 -0.3198 -0.1114
  189MOL    C7041806   2.545   1.353   4.211 -0.2651 -0.5302  0.2409
  189MOL    O7141807   2.634   1.342   4.290 -0.3786  0.0103 -0.5329
  189MOL    C7241808   2.428   1.444   4.248 -0.0202 -0.4880  0.2224
  189MOL    H7341809   2.639   1.287   3.891 -0.4704 -0.8110  0.8392
  189MOL    H7441810   2.717   1.371   4.023 -0.5173  0.9586  1.7836
  189MOL    H7541811   2.432   1.305   4.052  0.0874 -0.9705 -1.0701
  189MOL    H7641812   2.332   1.392   4.254  0.4302 -1.4291 -0.6137
  189MOL    H7741813   2.446   1.507   4.335  1.7587  1.7967 -1.7373
  189MOL    H7841814   2.429   1.526   4.175  1.2440 -0.2881  0.4663
  189MOL    C7941815   2.543   1.126   4.086  0.4345 -0.0573 -0.2267
  189MOL    C8041816   2.679   1.071   4.124 -0.8694  0.3127  0.3586
  189MOL    C8141817   2.773   1.066   3.998  0.2005 -0.3987 -0.6211
  189MOL    O8241818   2.744   1.010   3.892  0.7113 -0.3644 -0.0618
  189MOL    C8341819   2.889   1.152   4.004  0.0424  0.2062 -0.3389
  189MOL    H8441820   2.518   1.076   3.992  0.9279  1.6622 -1.2965
  189MOL    H8541821   2.468   1.089   4.156 -0.3453  0.9416 -0.5205
  189MOL    H8641822   2.724   1.138   4.198 -0.4422 -0.7274  1.0542
  189MOL    H8741823   2.873   1.233   3.933 -0.9400 -0.9601 -1.4808
  189MOL    H8841824   2.975   1.096   3.966 -1.7329 -0.9854 -2.7692
  189MOL    H8941825   2.927   1.187   4.099 -2.5272 -1.2910  1.3001
  189MOL    C9041826   2.672   0.930   4.188  0.3285 -0.1545  0.2729
  189MOL    C9141827   2.811   0.877   4.242  0.2152 -0.0453 -0.7366
  189MOL    C9241828   2.829   0.926   4.388 -0.0047 -0.6610 -0.3318
  189MOL    O9341829   2.780   0.870   4.484 -0.2926  0.0972  0.1706
  189MOL    C9441830   2.912   1.055   4.398  0.0500  0.5446  0.1558
  189MOL    H9541831   2.596   0.930   4.266  0.3239 -2.3474  0.3072
  189MOL    H9641832   2.628   0.859   4.118  0.3827  1.0649 -1.0317
  189MOL    H9741833   2.884   0.929   4.180  1.3995 -1.1022 -0.2491
  189MOL    H9841834   2.852   1.141   4.370 -0.7002 -0.8992 -2.8817
  189MOL    H9941835   2.930   1.081   4.502  0.1251  1.0987  0.0095
  189MOL   H10041836   3.010   1.052   4.349  1.5043  0.7135  2.9708
  189MOL   C10141837   2.832   0.725   4.219  0.3959 -0.5886  0.3803
  189MOL   C10241838   2.946   0.657   4.294 -0.9976  0.0991 -0.0407
  189MOL   C10341839   3.095   0.700   4.253 -0.0244 -0.2788 -0.3143
  189MOL   O10441840   3.187   0.719   4.333  0.1143 -0.0617  0.1828
  189MOL   C10541841   3.125   0.711   4.107  0.1154 -0.6598 -0.1493
  189MOL   H10641842   2.733   0.683   4.236  0.1588  0.2181  1.0210
  189MOL   H10741843   2.844   0.701   4.113 -0.6632  0.1373  0.0900
  189MOL   H10841844   2.933   0.674   4.401 -1.1893 -0.7945  0.0769
  189MOL   H10941845   3.088   0.800   4.057  0.9626 -0.7841 -1.0186
  189MOL   H11041846   3.234   0.701   4.108  0.2197  0.5319  0.2143
  189MOL   H11141847   3.084   0.621   4.060 -0.4081  0.0692 -1.1152
  189MOL   C11241848   2.934   0.504   4.284  0.2780 -0.3133  0.7450
  189MOL   C11341849   3.003   0.425   4.393 -0.3564 -0.3819  0.1375
  189MOL   C11441850   3.118   0.337   4.337 -0.0170  0.2845 -0.1858
  189MOL   O11541851   3.102   0.230   4.281 -0.3753  0.2984  0.1389
  189MOL   C11641852   3.261   0.380   4.364 -0.2879 -0.3729 -0.6319
  189MOL   H11741853   2.947   0.472   4.181 -0.2595  0.2070  0.5050
  189MOL   H11841854   2.828   0.478   4.284  0.2383 -0.1886 -0.3180
  189MOL   H11941855   3.051   0.491   4.465  2.6953 -2.9886  0.5945
  189MOL   H12041856   3.317   0.398   4.272 -1.5124  1.5680 -1.0276
  189MOL   H12141857   3.256   0.479   4.411 -0.6803 -1.4700  1.6933
  189MOL   H12241858   3.307   0.310   4.433 -0.6172 -1.0910 -1.1322
  189MOL   C12341859   2.905   0.343   4.489 -0.2110 -0.2894  0.2151
  189MOL   C12441860   2.798   0.428   4.558 -0.4708 -0.6480  0.4221
  189MOL   C12541861   2.844   0.455   4.696 -0.2401 -0.4512 -0.2206
  189MOL   O12641862   2.818   0.378   4.788  0.2084  0.3622 -0.0727
  189MOL   C12741863   2.934   0.580   4.725  0.5752  0.0390  0.1185
  189MOL   H12841864   2.953   0.280   4.564 -0.5574 -1.1818 -0.3016
  189MOL   H12941865   2.844   0.274   4.430 -0.2987 -0.9833  1.1080
  189MOL   H13041866   2.782   0.527   4.515  0.1480  1.0779  3.9637
  189MOL   H13141867   3.038   0.568   4.693  0.6107 -2.6105  1.0994
  189MOL   H13241868   2.930   0.592   4.834 -0.7865 -1.6236  0.2575
  189MOL   H13341869   2.889   0.667   4.676 -0.0724 -0.7933 -0.7775
  189MOL   C13441870   2.649   0.365   4.553  0.1114  0.1585 -0.1877
  189MOL   C13541871   2.549   0.454   4.623 -0.0653  0.0035  0.1169
  189MOL   C13641872   2.537   0.595   4.567  0.2678  0.3987 -1.2131
  189MOL   O13741873   2.568   0.619   4.454  0.5056  0.2794  0.7381
  189MOL   C13841874   2.492   0.710   4.662  0.2650 -0.1732 -0.2909
  189MOL   H13941875   2.656   0.271   4.607  3.6906  1.1116  1.1337
  189MOL   H14041876   2.612   0.345   4.452  2.1277  1.0749 -1.1207
  189MOL   H14141877   2.569   0.455   4.730 -2.6665  1.0060  0.6133
  189MOL   H14241878   2.514   0.676   4.763  1.4772 -1.1098 -0.8670
  189MOL   H14341879   2.388   0.743   4.654 -0.0478 -0.9681  0.4069
  189MOL   H14441880   2.560   0.795   4.651 -0.9746  0.5941 -2.6098
  189MOL   C14541881   2.411   0.379   4.609  0.1843  1.0437 -0.9283
  189MOL   C14641882   2.289   0.410   4.707  0.4992  0.0600  0.9809
  189MOL   C14741883   2.168   0.346   4.644  0.5949 -0.2161 -0.7345
  189MOL   O14841884   2.152   0.222   4.653  0.2395 -0.9979 -0.1250
  189MOL   C14941885   2.060   0.437   4.573 -0.3101  0.4834  0.5783
  189MOL   H15041886   2.423   0.271   4.620 -0.0901  1.0043 -1.0259
  189MOL   H15141887   2.377   0.396   4.507 -2.0788 -0.1371 -0.4047
  189MOL   H15241888   2.270   0.517   4.714  1.5781  0.3280 -0.0134
  189MOL   H15341889   2.017   0.514   4.637 -0.8318  0.1357  0.6420
  189MOL   H15441890   2.117   0.497   4.502 -0.6435 -1.1206 -1.0723
  189MOL   H15541891   1.990   0.384   4.509  1.4652 -1.0541 -0.1113
  189MOL   C15641892   2.317   0.366   4.854  0.1870 -0.0955 -0.4017
  189MOL   C15741893   2.214   0.413   4.957  0.1301 -0.0887 -0.0701
  189MOL   C15841894   2.227   0.565   4.975  0.0309 -0.3140  0.2173
  189MOL   O15941895   2.329   0.632   4.962 -0.8753  0.7559 -0.2198
  189MOL   C16041896   2.089   0.632   5.004  0.5086  0.3277  0.1233
  189MOL   H16141897   2.325   0.257   4.857  0.0518 -0.1247 -1.1650
  189MOL   H16241898   2.418   0.393   4.882  0.5629  0.1441 -1.9701
  189MOL   H16341899   2.113   0.395   4.920  0.2990 -1.4459  0.1008
  189MOL   H16441900   2.062   0.670   4.906  0.8700  0.1675 -0.0387
  189MOL   H16541901   2.102   0.701   5.088  0.3051 -1.3984  1.6034
  189MOL   H16641902   2.009   0.569   5.042  0.4105  0.9491  0.9593
  189MOL   C16741903   2.218   0.345   5.092 -0.0124 -0.2648  0.9527
  189MOL   C16841904   2.199   0.190   5.089  0.1484  0.0828  0.0688
  189MOL   C16941905   2.065   0.141   5.032 -0.3036 -0.3675 -0.1208
  189MOL   O17041906   1.975   0.223   5.016  0.0760  1.0816 -0.8592
  189MOL   C17141907   2.044   7.857   4.986 -0.4427 -0.1532 -0.0359
  189MOL   H17241908   2.316   0.364   5.136 -0.1602  0.8664  0.7857
  189MOL   H17341909   2.149   0.389   5.164 -0.0832  0.4449  0.4452
  189MOL   H17441910   2.267   0.141   5.019  0.0848  0.3908 -0.2043
  189MOL   H17541911   2.137   7.802   4.970  0.0709  0.2668  1.4563
  189MOL   H17641912   1.989   7.853   4.892 -1.0267 -1.1823  0.3343
  189MOL   H17741913   1.984   7.814   5.066 -0.0425  1.7312  1.2976
  189MOL   C17841914   2.233   0.118   5.217 -0.2354 -0.0497  0.1507
  189MOL   C17941915   2.126   0.106   5.331 -0.6707  0.5794 -0.0837
  189MOL   C18041916   2.094   0.233   5.411  0.1652  0.3662  0.7933
  189MOL   O18141917   2.148   0.265   5.517  0.2590  0.2545  0.4563
  189MOL   C18241918   1.981   0.323   5.360 -0.0049  0.2695  0.1306
  189MOL   H18341919   2.256   0.015   5.190  1.6306 -0.1401  1.9370
  189MOL   H18441920   2.330   0.159   5.247 -0.9062  2.9035 -1.5605
  189MOL   H18541921   2.031   0.075   5.287 -1.8777  0.4316  2.5194
  189MOL   H18641922   1.944   0.299   5.260 -0.7458  4.0024 -0.5717
  189MOL   H18741923   2.007   0.428   5.371  2.5288 -0.4446  1.1940
  189MOL   H18841924   1.904   0.296   5.433 -1.3305 -0.0635 -1.3646
  189MOL   C18941925   2.174   7.851   5.431 -0.2389 -0.7755 -0.9063
  189MOL   C19041926   2.069   7.774   5.508 -0.3996  0.3261 -0.2132
  189MOL   C19141927   2.009   7.841   5.630  0.4427  0.0949  0.6773
  189MOL   O19241928   1.893   0.027   5.635 -0.1210 -0.0879 -0.5389
  189MOL   C19341929   2.101   7.853   5.755  0.3964 -0.1358  0.0514
  189MOL   H19441930   2.231   7.779   5.373  1.3883 -0.1860 -0.0720
  189MOL   H19541931   2.251   0.030   5.499 -1.3827  0.6617 -0.3717
  189MOL   H19641932   2.122   7.692   5.555 -2.4733 -1.4610 -0.9506
  189MOL   H19741933   2.151   7.759   5.776  1.3862  0.4981  0.5424
  189MOL   H19841934   2.182   0.068   5.759  0.1941  0.0451  1.2668
  189MOL   H19941935   2.033   0.009   5.840 -0.8815  2.9433 -1.3664
  189MOL   C20041936   1.963   7.710   5.411 -0.6618 -0.9106 -0.2679
  189MOL   C20141937   1.873   7.585   5.472  0.0942  0.2517  0.4907
  189MOL   C20241938   1.952   7.493   5.567 -0.0993 -0.3222  0.2456
  189MOL   O20341939   2.030   7.404   5.524  0.0713  0.1575 -0.4626
  189MOL   C20441940   1.921   7.495   5.716 -0.3232  0.8162  0.5403
  189MOL   H20541941   1.898   7.778   5.356 -1.0801 -0.4243  0.8006
  189MOL   H20641942   2.028   7.672   5.333 -1.7462 -4.9455  0.6610
  189MOL   H20741943   1.803   7.633   5.540  0.6726  0.0798  1.2220
  189MOL   H20841944   1.889   7.394   5.743  0.3965 -0.2092 -2.2912
  189MOL   H20941945   2.014   7.498   5.773 -0.3127  0.4658  0.5427
  189MOL   H21041946   1.849   7.572   5.742 -2.3831 -0.7743 -0.3457
  189MOL   C21141947   1.807   7.504   5.357 -0.4757 -0.6983 -0.1728
  189MOL   C21241948   1.730   7.384   5.405  0.1170  0.1278 -0.7065
  189MOL   C21341949   1.612   7.344   5.314  0.1204 -0.8016 -0.6343
  189MOL   O21441950   1.494   7.334   5.354 -0.5307 -0.0424  0.9027
  189MOL   C21541951   1.651   7.304   5.175  0.0468 -0.9001 -0.1023
  189MOL   H21641952   1.734   7.573   5.313 -1.6386 -1.5692  0.3527
  189MOL   H21741953   1.890   7.480   5.292  0.9517  3.2707  0.0607
  189MOL   H21841954   1.699   7.402   5.508  1.7960  0.1003 -0.1861
  189MOL   H21941955   1.723   7.223   5.185  1.4021 -0.1485 -3.2220
  189MOL   H22041956   1.569   7.265   5.114  1.9101 -1.2471 -2.4069
  189MOL   H22141957   1.698   7.387   5.124 -0.5699 -0.8616 -0.6164
  189MOL   H22241958   1.788   7.293   5.410  0.1477  0.2249  1.4577
  190MOL     C141959   0.475   5.246   1.491  0.3255  0.6399 -0.2671
  190MOL     C241960   0.586   5.223   1.386  0.8449 -0.2575  0.4693
  190MOL     C341961   0.573   5.086   1.318 -0.1014  0.1254  0.0177
  190MOL     O441962   0.516   5.074   1.212 -0.9579  0.1888  0.4206
  190MOL     C541963   0.611   4.965   1.410  0.3373 -0.0130 -0.6057
  190MOL     H641964   0.375   5.276   1.459  0.3095  1.7720  0.7962
  190MOL     H741965   0.500   5.336   1.547  1.4342 -0.2237  0.6536
  190MOL     H841966   0.673   5.224   1.452 -1.4428  0.7408  3.5686
  190MOL     H941967   0.718   4.943   1.411  0.3903  0.1393 -2.4901
  190MOL    H1041968   0.583   4.989   1.513 -1.2662 -0.4873 -0.9133
  190MOL    H1141969   0.561   4.878   1.367 -0.0801  0.9626 -2.1368
  190MOL    H1241970   0.464   5.171   1.569 -0.1898  0.7056 -0.2737
  190MOL    C1341971   0.592   5.339   1.286  0.5557  0.6131 -0.4315
  190MOL    C1441972   0.591   5.476   1.349  0.4956 -0.2708 -0.4807
  190MOL    C1541973   0.557   5.588   1.249  1.1387  0.0612 -0.0479
  190MOL    O1641974   0.617   5.695   1.254  0.7620  0.5627 -0.0323
  190MOL    C1741975   0.457   5.559   1.140  0.3275 -0.1925  1.0349
  190MOL    H1841976   0.677   5.317   1.221 -0.7246 -2.8110 -1.0224
  190MOL    H1941977   0.513   5.321   1.213  1.1068  2.6219 -1.5511
  190MOL    H2041978   0.511   5.481   1.422  0.2996 -1.0791 -0.6379
  190MOL    H2141979   0.389   5.477   1.163 -0.6666  0.5993  0.8948
  190MOL    H2241980   0.393   5.645   1.124 -0.4228 -1.1466 -1.1994
  190MOL    H2341981   0.508   5.530   1.048 -2.7994 -0.9118 -0.5191
  190MOL    C2441982   0.717   5.511   1.440  0.0056 -0.7097  0.4327
  190MOL    C2541983   0.710   5.634   1.527 -0.5564  0.8658  0.5358
  190MOL    C2641984   0.589   5.621   1.626  0.1749  0.6473 -0.2411
  190MOL    O2741985   0.603   5.548   1.722 -0.9425  0.0117 -0.4148
  190MOL    C2841986   0.464   5.706   1.600 -0.3580  0.7298  0.7921
  190MOL    H2941987   0.758   5.431   1.501 -0.3338 -1.9145 -0.8890
  190MOL    H3041988   0.801   5.529   1.372 -0.8841  0.8862 -0.2823
  190MOL    H3141989   0.689   5.724   1.470  0.5406 -0.9588 -2.8817
  190MOL    H3241990   0.429   5.681   1.500 -1.4867  0.6692  1.1885
  190MOL    H3341991   0.386   5.687   1.673  0.7726  0.4047  1.9309
  190MOL    H3441992   0.501   5.809   1.599  1.5210  0.0862 -2.1644
  190MOL    C3541993   0.848   5.667   1.594  0.1616 -0.0219  0.6961
  190MOL    C3641994   0.877   5.780   1.696 -0.0559 -0.3439  0.7704
  190MOL    C3741995   0.847   5.911   1.631 -0.2101 -0.4431  0.6965
  190MOL    O3841996   0.737   5.946   1.596  0.6101  0.4404 -0.4657
  190MOL    C3941997   0.965   6.003   1.609 -0.3644 -0.7927 -0.3075
  190MOL    H4041998   0.920   5.679   1.513  0.3933  0.0453  0.9105
  190MOL    H4141999   0.867   5.571   1.641 -1.3496 -0.2419  0.8896
  190MOL    H4242000   0.985   5.773   1.708  0.0940 -0.5731 -0.6733
  190MOL    H4342001   1.019   5.957   1.526  3.8353  0.5044  1.5249
  190MOL    H4442002   1.030   6.006   1.696  0.6141 -0.3287 -1.0393
  190MOL    H4542003   0.945   6.107   1.582 -1.0780 -0.5401  1.1787
  190MOL    C4642004   0.813   5.753   1.840  0.3493 -0.4109 -0.5712
  190MOL    C4742005   0.858   5.841   1.967 -0.4818  0.2521  0.1626
  190MOL    C4842006   1.006   5.820   1.995 -0.3896 -0.2679 -0.2341
  190MOL    O4942007   1.083   5.888   1.928 -0.3528  0.0147 -0.3515
  190MOL    C5042008   1.046   5.711   2.089  0.4434  0.2482  0.0067
  190MOL    H5142009   0.835   5.648   1.857  0.3988 -0.2810  0.1891
  190MOL    H5242010   0.704   5.753   1.846  0.2330 -0.3436 -2.3371
  190MOL    H5342011   0.819   5.796   2.058 -0.9020  0.0634 -0.1069
  190MOL    H5442012   0.969   5.697   2.165 -1.4453  0.8741 -1.7690
  190MOL    H5542013   1.068   5.620   2.034 -1.1559  0.2029 -0.5625
  190MOL    H5642014   1.141   5.737   2.137 -0.0387  0.0115  1.1011
  190MOL    C5742015   0.821   5.996   1.972  0.0712  0.3491  0.4583
  190MOL    C5842016   0.661   6.015   1.984 -0.6854  0.5823  0.6082
  190MOL    C5942017   0.608   6.009   2.132 -0.1874  0.5856 -0.5344
  190MOL    O6042018   0.604   6.110   2.206  0.0652  0.1353 -0.0119
  190MOL    C6142019   0.552   5.880   2.178 -0.1746  0.3120 -0.7821
  190MOL    H6242020   0.867   6.049   1.889  2.9141 -1.0314  1.0817
  190MOL    H6342021   0.872   6.042   2.057 -1.4242  1.4699  0.7700
  190MOL    H6442022   0.615   5.928   1.937 -1.3363  1.2102  0.0700
  190MOL    H6542023   0.578   5.856   2.281 -0.4620 -3.6871 -1.5465
  190MOL    H6642024   0.446   5.902   2.162 -0.5386  0.2717  1.3241
  190MOL    H6742025   0.585   5.793   2.122  2.5929  0.2441  0.8596
  190MOL    C6842026   0.608   6.143   1.903 -0.3561 -0.1120 -0.5392
  190MOL    C6942027   0.460   6.180   1.919  0.7044 -0.2559  0.8223
  190MOL    C7042028   0.373   6.110   1.818  0.0696  0.5399 -0.0480
  190MOL    O7142029   0.359   6.149   1.704  0.0782  0.2977 -0.1261
  190MOL    C7242030   0.316   5.976   1.861 -1.1463 -0.6697  0.1403
  190MOL    H7342031   0.662   6.234   1.931  0.3426 -0.5196 -0.5469
  190MOL    H7442032   0.630   6.124   1.797 -3.0049 -4.6669 -0.3952
  190MOL    H7542033   0.429   6.134   2.013  2.7538  0.9824  2.1519
  190MOL    H7642034   0.342   5.901   1.786  0.2356 -0.2140  0.1442
  190MOL    H7742035   0.337   5.957   1.966 -1.3841  1.8380  0.6635
  190MOL    H7842036   0.207   5.984   1.865 -1.0267  1.0995  0.1076
  190MOL    C7942037   0.437   6.329   1.920 -0.1277 -0.1741  0.5284
  190MOL    C8042038   0.279   6.371   1.915 -0.2115 -0.0645 -0.1265
  190MOL    C8142039   0.267   6.524   1.896 -0.8099  0.1446  0.0363
  190MOL    O8242040   0.232   6.598   1.988 -0.2461 -0.2975 -0.3962
  190MOL    C8342041   0.296   6.578   1.749 -0.5487 -0.2229 -0.1330
  190MOL    H8442042   0.487   6.375   1.834  1.0949 -1.3473  0.5946
  190MOL    H8542043   0.481   6.371   2.011 -0.3044 -1.9246  1.4450
  190MOL    H8642044   0.229   6.326   1.830 -0.3378 -0.0433 -0.0644
  190MOL    H8742045   0.299   6.687   1.755 -1.9980 -0.2270  0.9065
  190MOL    H8842046   0.207   6.544   1.697  0.6145 -0.8688 -1.7456
  190MOL    H8942047   0.391   6.533   1.720  0.3759  0.6711  1.4227
  190MOL    C9042048   0.215   6.327   2.048  0.0188 -0.1339  0.0542
  190MOL    C9142049   0.062   6.348   2.068  0.3110 -0.0631 -0.0251
  190MOL    C9242050   7.830   6.251   1.989  0.7358  0.1963 -0.2747
  190MOL    O9342051   0.021   6.151   1.939 -0.0171  0.2259  0.0110
  190MOL    C9442052   7.685   6.288   1.971 -0.0283  0.2951  0.6657
  190MOL    H9542053   0.223   6.219   2.060 -0.2424 -0.1360  0.2154
  190MOL    H9642054   0.274   6.368   2.130 -0.4377  0.5397  0.0500
  190MOL    H9742055   0.043   6.449   2.032 -2.0843  0.1737  1.7568
  190MOL    H9842056   7.659   6.375   2.032 -1.8373  0.3639 -0.1532
  190MOL    H9942057   7.676   6.322   1.868  0.0149  0.0890  0.5932
  190MOL   H10042058   7.618   6.203   1.981  0.5908 -0.3110 -0.2630
  190MOL   C10142059   0.033   6.334   2.218  0.2454 -0.0956  0.0702
  190MOL   C10242060   7.775   6.435   2.261  0.2143 -0.2413 -0.2356
  190MOL   C10342061   7.832   6.577   2.251  0.0820  0.0661 -0.1222
  190MOL   O10442062   0.052   6.618   2.333  0.9201 -0.0996  0.5098
  190MOL   C10542063   7.808   6.664   2.130 -0.0479  0.5448 -0.1856
  190MOL   H10642064   0.018   6.229   2.244  2.7728 -0.8566 -1.4092
  190MOL   H10742065   0.119   6.361   2.279 -2.1111  0.7580  3.1844
  190MOL   H10842066   7.696   6.443   2.188  0.9227 -0.4062 -1.0259
  190MOL   H10942067   7.790   6.597   2.046  1.0507 -1.0462  0.8221
  190MOL   H11042068   7.721   6.730   2.138 -0.5829 -0.2841  1.0126
  190MOL   H11142069   0.045   6.711   2.102  1.2622 -1.9408  0.0024
  190MOL   C11242070   7.717   6.387   2.402 -0.2747  0.1198 -0.4474
  190MOL   C11342071   7.572   6.429   2.437 -0.1962 -0.0175 -0.1077
  190MOL   C11442072   7.559   6.490   2.577  0.4638 -0.2122  0.2898
  190MOL   O11542073   7.502   6.438   2.676 -0.2145  0.2133 -0.3295
  190MOL   C11642074   7.588   6.632   2.593 -0.1820 -0.1199 -0.3800
  190MOL   H11742075   7.782   6.427   2.479 -1.8074  0.5343  0.6414
  190MOL   H11842076   7.727   6.279   2.415  1.6157  0.3994  0.5437
  190MOL   H11942077   7.555   6.514   2.372  1.2620  0.7906  0.5552
  190MOL   H12042078   7.499   6.688   2.562  0.3342  1.0470  0.2119
  190MOL   H12142079   7.629   6.653   2.692  1.4606 -1.9834 -0.6399
  190MOL   H12242080   7.675   6.664   2.536  0.9863 -1.0910  0.8435
  190MOL   C12342081   7.481   6.309   2.394  0.1847  0.2748  0.5553
  190MOL   C12442082   7.332   6.343   2.356 -0.4648 -0.6056  0.5088
  190MOL   C12542083   7.320   6.427   2.228 -0.0881  0.5533 -0.2255
  190MOL   O12642084   7.236   6.519   2.232  0.4709  0.2442  0.1318
  190MOL   C12742085   7.412   6.421   2.100 -0.2083  0.3267  0.7889
  190MOL   H12842086   7.495   6.239   2.477 -1.1841  0.6819  1.1562
  190MOL   H12942087   7.534   6.262   2.311  1.8813  0.8137  1.3339
  190MOL   H13042088   7.290   6.249   2.320 -1.2827 -0.7162  1.7424
  190MOL   H13142089   7.468   6.328   2.086  1.5453  1.6869 -1.6378
  190MOL   H13242090   7.458   6.516   2.074 -0.4148  0.0045 -0.7903
  190MOL   H13342091   7.344   6.422   2.016  0.2254 -2.8390  0.3276
  190MOL   C13442092   7.244   6.390   2.477 -0.0895 -0.4958 -0.1309
  190MOL   C13542093   7.091   6.378   2.474  0.1574 -0.0188  0.2170
  190MOL   C13642094   7.049   6.246   2.408 -0.9023 -0.5238 -0.4102
  190MOL   O13742095   7.073   6.138   2.462  0.6287  0.8900  0.2013
  190MOL   C13842096   6.976   6.258   2.276  0.0784 -0.0107  0.1373
  190MOL   H13942097   7.266   6.496   2.491 -1.0963 -0.0951 -1.4590
  190MOL   H14042098   7.282   6.347   2.570 -2.5082  1.2855  1.7528
  190MOL   H14142099   7.055   6.460   2.411 -1.1091 -3.0318 -3.1582
  190MOL   H14242100   6.891   6.193   2.297 -0.8542  1.2167  0.2435
  190MOL   H14342101   7.027   6.220   2.188  1.3662  1.7693  0.0803
  190MOL   H14442102   6.932   6.357   2.260  0.2388  0.1141  0.4554
  190MOL   C14542103   7.031   6.387   2.621 -0.4529 -0.4253 -0.4300
  190MOL   C14642104   6.874   6.406   2.622 -0.1330 -0.1090  0.2800
  190MOL   C14742105   6.817   6.285   2.692  0.4748  1.0612  0.1967
  190MOL   O14842106   6.805   6.285   2.815  0.5544 -0.1381  0.0151
  190MOL   C14942107   6.756   6.168   2.606 -0.4218  0.7496 -0.3372
  190MOL   H15042108   7.076   6.471   2.675 -2.7337 -0.7272  2.1078
  190MOL   H15142109   7.063   6.308   2.688 -0.9127  0.9938  1.5261
  190MOL   H15242110   6.840   6.394   2.519  0.7263  1.5990 -0.2418
  190MOL   H15342111   6.670   6.117   2.648  2.5775 -2.1342  2.5708
  190MOL   H15442112   6.727   6.201   2.506  1.4324 -1.8836 -1.8195
  190MOL   H15542113   6.834   6.096   2.582 -1.3579 -0.0383 -1.0449
  190MOL   C15642114   6.824   6.546   2.668 -0.4015  0.7348  0.1846
  190MOL   C15742115   6.677   6.566   2.706 -0.4722 -0.1209 -0.1394
  190MOL   C15842116   6.613   6.678   2.621 -0.6425 -0.7737 -0.3580
  190MOL   O15942117   6.659   6.790   2.621  0.0759  0.1539 -0.4679
  190MOL   C16042118   6.510   6.642   2.515 -0.3156  0.7351  0.2648
  190MOL   H16142119   6.893   6.577   2.746  1.1133  2.7975 -1.8979
  190MOL   H16242120   6.841   6.609   2.580  0.7887  1.4374  0.9011
  190MOL   H16342121   6.622   6.473   2.693  0.3330 -0.5059 -0.8253
  190MOL   H16442122   6.556   6.582   2.437 -0.5534 -0.6362  1.1492
  190MOL   H16542123   6.460   6.732   2.480  0.1308  0.7312 -0.3826
  190MOL   H16642124   6.432   6.578   2.557 -1.1778  1.3524 -0.3929
  190MOL   C16742125   6.658   6.599   2.854 -0.1420 -0.2799 -0.0634
  190MOL   C16842126   6.520   6.590   2.911  0.1469 -0.6115 -0.6038
  190MOL   C16942127   6.490   6.671   3.035  0.1990 -0.0243  0.1701
  190MOL   O17042128   6.547   6.648   3.138 -0.1754 -0.0222 -0.2583
  190MOL   C17142129   6.365   6.758   3.033  0.2041 -0.1846 -0.3244
  190MOL   H17242130   6.725   6.534   2.910  3.5285  2.7811 -0.7010
  190MOL   H17342131   6.700   6.696   2.880  1.2140 -0.9423  0.2635
  190MOL   H17442132   6.457   6.640   2.837 -0.3875 -1.3487 -0.6530
  190MOL   H17542133   6.365   6.822   2.944 -1.7276  1.0370  0.5187
  190MOL   H17642134   6.367   6.812   3.127  0.9231 -1.1771  0.2361
  190MOL   H17742135   6.276   6.695   3.027  0.8425 -0.9706 -1.9260
  190MOL   C17842136   6.462   6.453   2.928 -0.2880 -0.3754  0.4146
  190MOL   C17942137   6.368   6.415   2.817 -0.1580 -0.1808 -0.4212
  190MOL   C18042138   6.229   6.462   2.847  0.3008  0.5359  0.2352
  190MOL   O18142139   6.162   6.404   2.933 -0.0510  0.3867 -0.3204
  190MOL   C18242140   6.179   6.577   2.772  0.2075 -0.0338 -0.8310
  190MOL   H18342141   6.552   6.392   2.930  1.6912  2.3615 -1.4846
  190MOL   H18442142   6.409   6.438   3.022  0.4797 -1.3523  0.7029
  190MOL   H18542143   6.397   6.469   2.727  0.8349 -2.5758 -1.5878
  190MOL   H18642144   6.261   6.641   2.738 -0.4171  1.9009  1.1674
  190MOL   H18742145   6.120   6.633   2.845  0.4594 -0.6306 -0.1760
  190MOL   H18842146   6.113   6.556   2.687  0.5656 -0.8369 -0.9122
  190MOL   C18942147   6.380   6.264   2.777 -0.0936  0.0596 -0.3244
  190MOL   C19042148   6.299   6.225   2.651  0.0978 -0.3032 -0.2060
  190MOL   C19142149   6.346   6.295   2.520 -0.6406 -0.1759 -0.4358
  190MOL   O19242150   6.466   6.299   2.489  0.0995 -0.2056 -0.9736
  190MOL   C19342151   6.244   6.328   2.419  0.4919 -1.0633  0.4971
  190MOL   H19442152   6.483   6.233   2.760 -0.1716  0.6085 -1.8992
  190MOL   H19542153   6.335   6.211   2.861 -1.6813 -1.7259 -2.2538
  190MOL   H19642154   6.193   6.248   2.668 -0.1575  0.3214 -2.4219
  190MOL   H19742155   6.144   6.339   2.461  0.5020 -2.9921  1.0503
  190MOL   H19842156   6.275   6.420   2.369  0.4979 -1.3648 -0.0539
  190MOL   H19942157   6.241   6.251   2.343 -0.6372 -1.6084  1.0863
  190MOL   C20042158   6.315   6.067   2.631 -0.0750 -0.3168 -0.3782
  190MOL   C20142159   6.217   6.000   2.528 -0.5466 -0.2136  0.5302
  190MOL   C20242160   6.065   6.040   2.551  0.1361  0.0245  0.1123
  190MOL   O20342161   6.021   6.066   2.665  0.2740 -0.0624 -0.2775
  190MOL   C20442162   5.975   6.059   2.429 -0.3303  0.4431 -0.1455
  190MOL   H20542163   6.420   6.052   2.604 -0.1975  1.5491 -1.9979
  190MOL   H20642164   6.293   6.027   2.730 -0.4852 -0.9095 -0.7068
  190MOL   H20742165   6.228   6.028   2.423 -2.3392  0.2698  0.4441
  190MOL   H20842166   6.015   6.141   2.370  0.7589  0.5354  0.7016
  190MOL   H20942167   5.970   5.964   2.375 -2.3081  0.2449  0.3555
  190MOL   H21042168   5.879   6.089   2.470 -1.3902 -0.4566 -1.9082
  190MOL   C21142169   6.247   5.845   2.532 -0.0522  0.1027 -0.1585
  190MOL   C21242170   6.165   5.759   2.434  0.0201 -0.4100  0.2774
  190MOL   C21342171   6.066   5.663   2.499  0.5180 -0.0932 -0.1780
  190MOL   O21442172   6.050   5.657   2.623 -0.4422 -0.1039  0.4078
  190MOL   C21542173   5.996   5.574   2.403  0.3616  0.0772  0.0919
  190MOL   H21642174   6.353   5.830   2.508  0.2538 -0.7262  1.6182
  190MOL   H21742175   6.243   5.808   2.634 -1.2764  0.0505 -0.2233
  190MOL   H21842176   6.246   5.714   2.377 -0.4861  0.4005 -1.0929
  190MOL   H21942177   5.988   5.629   2.309  1.2469  0.1881  0.0713
  190MOL   H22042178   6.050   5.481   2.385  0.0186 -0.1928  0.4740
  190MOL   H22142179   5.892   5.552   2.425 -0.2436  1.8207 -0.8840
  190MOL   H22242180   6.115   5.816   2.356 -1.1931  0.5916  1.7502
  191MOL     C142181   7.715   7.856   0.149  0.2784  0.2750 -0.2966
  191MOL     C242182   7.578   7.852   0.223  0.0256  0.2584  0.2426
  191MOL     C342183   7.500   7.714   0.204  0.6370  0.2797  0.4243
  191MOL     O442184   7.389   7.707   0.157  0.3289  0.3163 -0.2073
  191MOL     C542185   7.577   7.585   0.237 -0.1773  0.4004 -0.2373
  191MOL     H642186   7.776   7.775   0.191 -0.1364 -0.1543 -0.5264
  191MOL     H742187   7.764   0.094   0.171 -2.1602  1.0359  1.9995
  191MOL     H842188   7.516   0.066   0.168 -1.8072 -0.2513  1.5976
  191MOL     H942189   7.522   7.521   0.305 -1.6551  1.0722 -0.7769
  191MOL    H1042190   7.601   7.537   0.142 -0.3054  2.7044 -1.4636
  191MOL    H1142191   7.670   7.619   0.283  0.2278  1.1379 -1.5648
  191MOL    H1242192   7.704   7.852   0.041 -0.6323 -0.9410 -0.1655
  191MOL    C1342193   7.585   0.041   0.369 -0.2377  0.2917  0.3443
  191MOL    C1442194   7.536   0.184   0.405  0.0865 -0.0764 -0.2470
  191MOL    C1542195   7.407   0.222   0.345  0.1001 -0.0185 -0.7911
  191MOL    O1642196   7.391   0.257   0.232  0.0293 -0.2690  0.4659
  191MOL    C1742197   7.290   0.214   0.447  0.5210  0.3244  0.1780
  191MOL    H1842198   7.517   7.836   0.427  1.6260 -0.1797  2.1033
  191MOL    H1942199   7.675   0.012   0.424 -0.3212 -2.4653 -0.8889
  191MOL    H2042200   7.527   0.194   0.513  0.4269  0.7421 -0.2903
  191MOL    H2142201   7.194   0.241   0.403  1.2094  0.7574 -1.0837
  191MOL    H2242202   7.279   0.116   0.493 -0.1777 -0.0731 -0.8233
  191MOL    H2342203   7.290   0.269   0.542 -1.1270 -1.2781  1.1287
  191MOL    C2442204   7.647   0.292   0.366  0.4676 -0.0544  0.6032
  191MOL    C2542205   7.624   0.444   0.368  0.0423  0.0966  0.9197
  191MOL    C2642206   7.606   0.512   0.509  0.4798 -0.0783  0.3639
  191MOL    O2742207   7.652   0.458   0.607 -0.7854 -0.1402  0.0999
  191MOL    C2842208   7.521   0.640   0.506  0.3229  0.1366  0.1359
  191MOL    H2942209   7.740   0.274   0.420  0.4088  0.5312  0.9008
  191MOL    H3042210   7.664   0.274   0.260  0.5690  0.7219  0.4821
  191MOL    H3142211   7.532   0.467   0.314  2.3298  4.5657 -1.4180
  191MOL    H3242212   7.429   0.610   0.455  0.9212 -1.8554  0.2236
  191MOL    H3342213   7.495   0.677   0.605 -0.8161  0.1984 -0.1776
  191MOL    H3442214   7.565   0.719   0.446 -0.6093 -0.4908 -1.4118
  191MOL    C3542215   7.734   0.521   0.287 -0.7028 -0.3535 -0.1731
  191MOL    C3642216   7.674   0.570   0.156 -0.0488  0.4119  0.2818
  191MOL    C3742217   7.767   0.671   0.079  0.4180 -0.1003  0.6544
  191MOL    O3842218   7.854   0.626   0.001 -0.3031 -0.1746  0.3118
  191MOL    C3942219   7.760   0.828   0.104 -0.8552 -0.1484  0.1758
  191MOL    H4042220   7.822   0.460   0.267  0.1843  0.9230 -0.1985
  191MOL    H4142221   7.764   0.607   0.347 -1.0932  0.0203 -0.5102
  191MOL    H4242222   7.581   0.625   0.171 -0.6988 -0.6151  0.0230
  191MOL    H4342223   7.772   0.847   0.211  0.4780 -0.4826  0.0932
  191MOL    H4442224   7.669   0.876   0.068 -1.0968  0.3509  1.4014
  191MOL    H4542225   7.840   0.878   0.049 -1.4402 -0.9289 -1.3912
  191MOL    C4642226   7.631   0.447   0.068 -0.1501 -0.4029  0.4068
  191MOL    C4742227   7.602   0.463   7.774  0.5646 -0.1994  0.2465
  191MOL    C4842228   7.644   0.337   7.690 -0.4520  0.1251  0.5424
  191MOL    O4942229   7.677   0.236   7.751 -0.1406 -0.8861 -0.5568
  191MOL    C5042230   7.634   0.345   7.541 -0.6942 -0.2872  0.4234
  191MOL    H5142231   7.538   0.411   0.112 -0.8780  0.8942 -0.0102
  191MOL    H5242232   7.709   0.372   0.072 -2.0775 -2.3909  1.4647
  191MOL    H5342233   7.677   0.530   7.730 -0.0374  1.4914  1.7250
  191MOL    H5442234   7.667   0.253   7.494  0.4502 -0.1527  0.9542
  191MOL    H5542235   7.538   0.367   7.494 -0.1258 -0.8843 -1.0424
  191MOL    H5642236   7.704   0.423   7.512 -0.0251 -0.3115  1.9365
  191MOL    C5742237   7.458   0.514   7.736  0.4242 -0.7054  0.3532
  191MOL    C5842238   7.446   0.669   7.738  0.2642 -0.1854  0.1603
  191MOL    C5942239   7.503   0.734   7.613  1.1628 -0.5509 -0.1548
  191MOL    O6042240   7.491   0.679   7.501  0.1455  0.3252 -0.0736
  191MOL    C6142241   7.609   0.845   7.627 -0.4811 -0.1719 -0.0644
  191MOL    H6242242   7.403   0.472   7.821 -1.0892 -1.9501 -1.2070
  191MOL    H6342243   7.418   0.461   7.650  1.2203  0.0745 -0.5124
  191MOL    H6442244   7.496   0.710   7.826  0.7243  1.7543 -0.9945
  191MOL    H6542245   7.611   0.898   7.532  0.0990  2.3159  1.2901
  191MOL    H6642246   7.586   0.913   7.709  1.7335  0.6403 -0.0855
  191MOL    H6742247   7.708   0.808   7.656 -0.2204  0.6876  0.1585
  191MOL    C6842248   7.293   0.709   7.763 -0.2304 -0.2763  0.3775
  191MOL    C6942249   7.268   0.855   7.810  1.2860  0.3929  0.4233
  191MOL    C7042250   7.315   0.862   0.104  0.3065 -0.2553  0.2118
  191MOL    O7142251   7.418   0.916   0.130  0.5804  0.1069 -0.0214
  191MOL    C7242252   7.236   0.794   0.211  0.3276  0.1699  0.0225
  191MOL    H7342253   7.249   0.671   7.671  0.3074 -0.4053  0.1724
  191MOL    H7442254   7.253   0.639   7.837 -0.1032 -0.1780  0.5410
  191MOL    H7542255   7.323   0.926   7.748  2.1866 -2.1754 -1.7864
  191MOL    H7642256   7.225   0.862   0.296 -2.0372  0.1943 -0.2978
  191MOL    H7742257   7.140   0.760   0.174  1.3814 -1.5366 -1.2316
  191MOL    H7842258   7.278   0.701   0.249 -0.5688 -0.2002  0.0994
  191MOL    C7942259   7.124   0.887   7.786 -1.0179 -0.1253  0.0273
  191MOL    C8042260   7.103   1.027   7.723  0.4949  0.4757 -0.5177
  191MOL    C8142261   7.134   1.138   7.826  0.2023  0.4226 -0.4756
  191MOL    O8242262   7.148   1.120   0.088 -0.2914 -0.1657  0.6399
  191MOL    C8342263   7.134   1.280   7.769  0.1866  0.2061  0.3112
  191MOL    H8442264   7.053   0.857   0.006 -2.8875  0.2622 -1.4813
  191MOL    H8542265   7.083   0.814   7.717 -4.5964  0.6597  1.2076
  191MOL    H8642266   7.179   1.040   7.646  0.3081 -1.0429 -0.9755
  191MOL    H8742267   7.069   1.349   7.823  0.0518 -0.4055  0.9413
  191MOL    H8842268   7.107   1.270   7.664  0.0336  0.9982  0.2714
  191MOL    H8942269   7.240   1.303   7.766  0.5764 -1.6009 -0.8141
  191MOL    C9042270   6.961   1.032   7.657  0.5253  0.2751  0.4043
  191MOL    C9142271   6.837   1.058   7.752 -0.4381  0.0120 -0.1785
  191MOL    C9242272   6.754   1.160   7.679  0.7419  0.2728 -0.6893
  191MOL    O9342273   6.682   1.127   7.582  0.2006 -0.1569 -0.0865
  191MOL    C9442274   6.781   1.303   7.711  0.0434 -0.0991 -0.0113
  191MOL    H9542275   6.976   1.113   7.586  0.6461 -0.5419 -0.5141
  191MOL    H9642276   6.952   0.943   7.594 -0.2452 -0.2664  1.2657
  191MOL    H9742277   6.875   1.107   7.841 -0.5202 -0.0146 -0.1282
  191MOL    H9842278   6.713   1.367   7.655 -0.3235 -0.0327  0.5001
  191MOL    H9942279   6.758   1.320   7.817  1.4221  0.1507  0.2501
  191MOL   H10042280   6.884   1.336   7.698  0.5757 -1.9601 -0.6690
  191MOL   C10142281   6.754   0.927   7.783  0.8010  0.6028 -0.0303
  191MOL   C10242282   6.657   0.944   0.049  0.2386 -0.1693  0.6085
  191MOL   C10342283   6.655   0.825   0.143  0.6235 -0.6925  1.0713
  191MOL   O10442284   6.557   0.760   0.139  0.0990 -0.1831  0.7248
  191MOL   C10542285   6.772   0.792   0.235  0.8439  0.0999  0.3872
  191MOL   H10642286   6.686   0.908   7.700 -1.5709  3.2447  1.2257
  191MOL   H10742287   6.830   0.851   7.799 -0.2203 -0.6386 -0.9559
  191MOL   H10842288   6.705   1.022   0.108  1.5690  1.0378 -1.9836
  191MOL   H10942289   6.737   0.697   0.277  0.6368 -0.0893 -0.2058
  191MOL   H11042290   6.859   0.775   0.172  1.0057  2.3703 -0.0260
  191MOL   H11142291   6.794   0.876   0.300  2.2754  1.4542 -1.7886
  191MOL   C11242292   6.522   1.009   0.001  0.6578  0.1713 -0.0605
  191MOL   C11342293   6.447   1.079   0.117 -0.1992 -0.9093  0.2559
  191MOL   C11442294   6.295   1.037   0.110  0.2598  1.1339  0.1454
  191MOL   O11542295   6.212   1.097   0.046 -0.1318 -0.1973 -0.2538
  191MOL   C11642296   6.256   0.915   0.180  0.0300  0.1936  0.1254
  191MOL   H11742297   6.463   0.930   7.812 -0.7275  2.0738 -1.6061
  191MOL   H11842298   6.529   1.070   7.769  3.8576  1.0602  0.7129
  191MOL   H11942299   6.477   1.039   0.214  0.1956 -0.0133  0.5121
  191MOL   H12042300   6.153   0.882   0.167  0.5008 -1.5083  0.6089
  191MOL   H12142301   6.319   0.832   0.147 -0.6529 -1.7662  3.5356
  191MOL   H12242302   6.258   0.946   0.284 -2.2403 -0.6181  0.4271
  191MOL   C12342303   6.470   1.236   0.124  0.5122  0.4204  0.8858
  191MOL   C12442304   6.430   1.308   0.258 -0.1784  0.2815 -0.1021
  191MOL   C12542305   6.275   1.324   0.265  0.1546  0.4955  0.2711
  191MOL   O12642306   6.215   1.284   0.365  0.2259  0.3105  0.7050
  191MOL   C12742307   6.196   1.394   0.155  0.2380  0.5800 -0.3472
  191MOL   H12842308   6.429   1.282   0.035  0.7955 -1.2276 -0.1168
  191MOL   H12942309   6.576   1.254   0.112  0.4843 -0.8947 -1.6770
  191MOL   H13042310   6.437   1.249   0.350  1.3374  1.3143  0.4626
  191MOL   H13142311   6.263   1.459   0.099  1.1656 -0.3315 -0.3092
  191MOL   H13242312   6.102   1.436   0.192 -0.3921 -2.6095  1.8398
  191MOL   H13342313   6.174   1.323   0.076  2.3908  0.7253 -1.1052
  191MOL   C13442314   6.504   1.440   0.279  0.1495 -0.4114 -0.0314
  191MOL   C13542315   6.499   1.509   0.426 -0.2178 -0.0008  0.6287
  191MOL   C13642316   6.579   1.425   0.527  0.6176  0.4457 -0.1789
  191MOL   O13742317   6.704   1.427   0.533  0.2823  0.2468 -0.3934
  191MOL   C13842318   6.501   1.337   0.629  0.6627  0.7673  0.0102
  191MOL   H13942319   6.460   1.509   0.207  1.7811  1.8374  1.0450
  191MOL   H14042320   6.608   1.425   0.248  0.8039  0.6805  1.5654
  191MOL   H14142321   6.399   1.502   0.469  0.3876 -3.5496  1.5757
  191MOL   H14242322   6.421   1.287   0.575  2.2845  1.2581 -2.9942
  191MOL   H14342323   6.459   1.405   0.702  0.7448 -0.7565  1.5082
  191MOL   H14442324   6.565   1.263   0.677 -1.3723 -1.9035 -1.2063
  191MOL   C14542325   6.556   1.655   0.424  0.1181 -0.8186 -0.4305
  191MOL   C14642326   6.552   1.735   0.558 -0.2914 -0.8296 -0.5578
  191MOL   C14742327   6.613   1.875   0.543  1.1128 -0.1366 -0.4665
  191MOL   O14842328   6.563   1.956   0.459 -0.6077 -0.4973  0.0651
  191MOL   C14942329   6.734   1.916   0.628 -0.7209 -0.1586  0.0605
  191MOL   H15042330   6.504   1.721   0.355  0.3204  0.5442  0.7076
  191MOL   H15142331   6.659   1.650   0.386  0.9602  2.3951  1.2840
  191MOL   H15242332   6.617   1.678   0.625 -0.9919  0.8497  1.6445
  191MOL   H15342333   6.711   1.871   0.725 -1.5891  0.5857  0.2013
  191MOL   H15442334   6.823   1.874   0.581  0.4353  1.2668  0.9422
  191MOL   H15542335   6.743   2.023   0.643 -3.0799  0.1487 -0.6019
  191MOL   C15642336   6.400   1.746   0.600  0.4332 -0.1387  0.4680
  191MOL   C15742337   6.370   1.809   0.745 -0.9669  0.2385 -0.2659
  191MOL   C15842338   6.450   1.744   0.857  0.7704  1.0467  0.1658
  191MOL   O15942339   6.442   1.623   0.858  0.1304  0.1901 -0.8641
  191MOL   C16042340   6.532   1.824   0.954  0.2949  0.7766 -0.2220
  191MOL   H16142341   6.349   1.803   0.522  0.0285 -0.7223  0.3079
  191MOL   H16242342   6.359   1.645   0.600  0.7294 -0.2593 -0.5759
  191MOL   H16342343   6.407   1.912   0.750  0.0051 -0.1068 -0.1340
  191MOL   H16442344   6.595   1.893   0.897  0.6035  0.8298  0.1790
  191MOL   H16542345   6.594   1.764   1.022  0.3081  2.0428  0.9084
  191MOL   H16642346   6.458   1.887   1.004  1.6366  2.5315 -0.3923
  191MOL   C16742347   6.222   1.809   0.773  0.0070 -0.4500  0.2994
  191MOL   C16842348   6.132   1.878   0.667  0.0316  0.3253  0.5206
  191MOL   C16942349   6.148   2.030   0.664  0.3831  0.2507 -0.0744
  191MOL   O17042350   6.074   2.107   0.729  0.2161  0.0594  0.0699
  191MOL   C17142351   6.253   2.085   0.574  0.6901 -0.2925 -0.1658
  191MOL   H17242352   6.185   1.706   0.775 -1.0353 -0.0623  3.0711
  191MOL   H17342353   6.201   1.854   0.869 -0.7202  1.2209 -0.6311
  191MOL   H17442354   6.168   1.844   0.570  2.6508 -2.3763  2.3147
  191MOL   H17542355   6.231   2.189   0.548 -2.2632 -1.0615 -1.0141
  191MOL   H17642356   6.262   2.019   0.488  0.3016 -0.5248 -0.0272
  191MOL   H17742357   6.356   2.075   0.608  1.2128 -0.3757 -1.7358
  191MOL   C17842358   5.986   1.837   0.681 -0.5219 -0.0914 -0.2827
  191MOL   C17942359   5.958   1.697   0.619 -0.4028  0.0559 -0.2218
  191MOL   C18042360   5.971   1.686   0.466  0.5381  0.0345  0.3276
  191MOL   O18142361   6.079   1.661   0.410 -0.7920 -0.0613 -0.0476
  191MOL   C18242362   5.852   1.738   0.383  0.4399 -0.0544  0.0373
  191MOL   H18342363   5.970   1.827   0.788  1.4750 -0.2284  0.0112
  191MOL   H18442364   5.912   1.911   0.649 -0.9839 -0.9322 -1.1871
  191MOL   H18542365   6.047   1.640   0.646  0.5655  2.1181  1.0388
  191MOL   H18642366   5.782   1.656   0.369  0.3551 -0.2910  1.6928
  191MOL   H18742367   5.894   1.773   0.289 -0.7506  0.2557 -0.3877
  191MOL   H18842368   5.807   1.831   0.418  0.1072  0.2704 -1.2545
  191MOL   C18942369   5.837   1.609   0.673  0.5938 -0.6369  0.7201
  191MOL   C19042370   5.873   1.473   0.736  0.7493 -0.3302  0.2675
  191MOL   C19142371   5.962   1.502   0.856 -0.0182 -0.2276  0.5728
  191MOL   O19242372   5.927   1.575   0.946  0.5908 -0.1549 -0.0461
  191MOL   C19342373   6.104   1.444   0.850 -0.6178  0.3864 -0.1405
  191MOL   H19442374   5.788   1.662   0.755  1.4917 -0.6236  1.2530
  191MOL   H19542375   5.759   1.598   0.597 -0.6318 -0.5270  1.9476
  191MOL   H19642376   5.944   1.421   0.672 -1.2269  0.5248 -2.7154
  191MOL   H19742377   6.092   1.338   0.872 -1.7134  0.3985 -0.6234
  191MOL   H19842378   6.149   1.450   0.750  1.5741  2.1745  0.9189
  191MOL   H19942379   6.176   1.493   0.914  1.7623  0.1049 -2.5163
  191MOL   C20042380   5.753   1.382   0.789 -0.0238 -0.1964  0.4626
  191MOL   C20142381   5.776   1.225   0.770  0.0543  0.3670 -0.1836
  191MOL   C20242382   5.794   1.172   0.621 -0.0834 -0.6129  0.4270
  191MOL   O20342383   5.710   1.195   0.536  0.4849  0.3473 -0.1499
  191MOL   C20442384   5.914   1.101   0.577  0.5016  0.0723 -0.5123
  191MOL   H20542385   5.730   1.399   0.894  2.2413  1.2694  0.7591
  191MOL   H20642386   5.667   1.411   0.729  1.0362  1.2392 -0.3776
  191MOL   H20742387   5.867   1.200   0.825  0.1630 -1.8014 -1.2881
  191MOL   H20842388   5.881   1.031   0.500 -0.3401  0.6672 -0.7061
  191MOL   H20942389   5.991   1.165   0.535 -2.5258  1.5911 -4.0712
  191MOL   H21042390   5.958   1.052   0.663 -0.8010  0.6766  0.5206
  191MOL   C21142391   5.653   1.150   0.831 -0.0918  0.0403  0.5768
  191MOL   C21242392   5.679   1.002   0.833  0.0967 -0.0611 -0.0406
  191MOL   C21342393   5.568   0.909   0.878  0.2141  1.0790 -0.2739
  191MOL   O21442394   5.463   0.897   0.818  0.3093  0.1319  0.6698
  191MOL   C21542395   5.585   0.814   0.991  0.6433 -0.2081 -0.5315
  191MOL   H21642396   5.642   1.181   0.935  1.1438  2.1322  0.1116
  191MOL   H21742397   5.567   1.182   0.773  0.0053  1.1329  1.0350
  191MOL   H21842398   5.751   0.987   0.914 -0.5367  0.8265  0.7015
  191MOL   H21942399   5.578   0.717   0.943  1.2669  0.4901 -2.0564
  191MOL   H22042400   5.686   0.829   1.029  0.7908 -2.6703  0.1051
  191MOL   H22142401   5.514   0.834   1.072  0.8314  0.1832 -0.4596
  191MOL   H22242402   5.713   0.960   0.739  0.2174 -2.2765  0.9684
  192MOL     C142403   4.473   0.784   1.837 -0.5702  1.0098  0.2885
  192MOL     C242404   4.481   0.635   1.816 -0.6966 -0.4693 -0.2532
  192MOL     C342405   4.353   0.582   1.753 -0.5344 -0.1262  0.5939
  192MOL     O442406   4.339   0.589   1.631 -0.6991  0.0301  0.6364
  192MOL     C542407   4.239   0.530   1.840  0.0884  0.1262  0.3689
  192MOL     H642408   4.469   0.842   1.744 -3.1307 -1.0406 -0.9706
  192MOL     H742409   4.555   0.824   1.896  1.9731 -0.8015 -1.8351
  192MOL     H842410   4.490   0.597   1.918 -0.5600  0.3278  0.0416
  192MOL     H942411   4.189   0.445   1.793  0.3596  0.9699 -1.4674
  192MOL    H1042412   4.270   0.502   1.941  0.4468  1.9468  0.7811
  192MOL    H1142413   4.162   0.607   1.842 -0.1154 -0.0798  0.5157
  192MOL    H1242414   4.375   0.802   1.882 -1.0091  1.7010 -0.9098
  192MOL    C1342415   4.614   0.596   1.746  0.1807 -0.7094  0.1643
  192MOL    C1442416   4.651   0.449   1.753  0.2987 -0.5969 -0.4156
  192MOL    C1542417   4.689   0.420   1.898  0.2293 -0.0530  0.1057
  192MOL    O1642418   4.796   0.455   1.947  0.0412  0.0666 -0.2675
  192MOL    C1742419   4.590   0.339   1.981  0.9441  0.0859  0.5033
  192MOL    H1842420   4.617   0.636   1.645  1.6938  2.6092  1.4671
  192MOL    H1942421   4.692   0.655   1.793  0.5108 -1.7088  0.8874
  192MOL    H2042422   4.556   0.399   1.731 -1.3373  0.8235  2.9805
  192MOL    H2142423   4.563   0.397   2.069  1.5990 -0.6703  1.2221
  192MOL    H2242424   4.493   0.331   1.932 -1.2651 -0.6978  4.7527
  192MOL    H2342425   4.627   0.237   1.989 -1.1083 -0.7977 -0.9423
  192MOL    C2442426   4.766   0.428   1.653  0.3559 -0.3742 -0.2204
  192MOL    C2542427   4.778   0.280   1.614 -0.6034 -0.7048 -0.1122
  192MOL    C2642428   4.845   0.194   1.720 -0.5400  0.5140 -0.3339
  192MOL    O2742429   4.782   0.111   1.789  0.3020 -0.8869 -0.5538
  192MOL    C2842430   4.999   0.196   1.733 -0.4610  0.0054 -0.2335
  192MOL    H2942431   4.751   0.486   1.562  0.8749  0.1412  0.0181
  192MOL    H3042432   4.857   0.470   1.695  0.2302 -1.0159  0.6941
  192MOL    H3142433   4.847   0.292   1.531 -0.4199  2.3328  0.4365
  192MOL    H3242434   5.042   0.107   1.779 -3.1896 -0.7801  0.9348
  192MOL    H3342435   5.039   0.192   1.632 -1.4468 -3.1327 -0.5450
  192MOL    H3442436   5.037   0.284   1.785  1.4909 -1.7376  1.3753
  192MOL    C3542437   4.653   0.211   1.559  0.0751  0.0669  0.3147
  192MOL    C3642438   4.596   0.286   1.439  0.4791 -0.0326  0.1472
  192MOL    C3742439   4.693   0.321   1.326 -0.2282  0.1337  0.3744
  192MOL    O3842440   4.762   0.243   1.260  0.2840  0.1544  0.0753
  192MOL    C3942441   4.705   0.467   1.302 -0.0086  0.6583 -0.2705
  192MOL    H4042442   4.584   0.206   1.642  1.2328  1.7009  1.4018
  192MOL    H4142443   4.669   0.105   1.536 -0.9193 -0.6985  2.9622
  192MOL    H4242444   4.554   0.379   1.477 -3.7663 -0.5930 -2.8062
  192MOL    H4342445   4.752   0.494   1.207  2.0292  4.5119  1.7045
  192MOL    H4442446   4.783   0.507   1.368 -0.1964 -1.4345  1.2422
  192MOL    H4542447   4.603   0.504   1.307 -0.6723 -0.7025 -2.8584
  192MOL    C4642448   4.483   0.205   1.370  0.5994 -0.2933  0.5611
  192MOL    C4742449   4.335   0.269   1.379  0.2689  0.3044  0.4780
  192MOL    C4842450   4.237   0.207   1.276 -1.2167  0.0026 -0.9686
  192MOL    O4942451   4.256   0.091   1.232 -0.2940 -0.0762 -0.2193
  192MOL    C5042452   4.129   0.296   1.221 -0.1841  0.2696  0.1146
  192MOL    H5142453   4.483   0.103   1.407  0.4007 -1.1957 -1.8080
  192MOL    H5242454   4.503   0.191   1.263  0.6869  1.0040  0.4026
  192MOL    H5342455   4.355   0.371   1.346  0.5643 -0.3628 -1.4460
  192MOL    H5442456   4.108   0.375   1.292  0.9382  2.5850 -2.0465
  192MOL    H5542457   4.171   0.329   1.126  0.4108  0.5673  0.4712
  192MOL    H5642458   4.036   0.241   1.213 -0.2725  0.4107  0.1893
  192MOL    C5742459   4.282   0.290   1.519  0.3636  0.5573 -0.0004
  192MOL    C5842460   4.232   0.160   1.595 -0.2941 -0.0809  0.3122
  192MOL    C5942461   4.316   0.116   1.714 -0.0416  0.6828 -0.1213
  192MOL    O6042462   4.375   0.193   1.785 -0.1483  0.5910  0.3012
  192MOL    C6142463   4.320   7.827   1.748 -0.1677  0.0924 -0.5614
  192MOL    H6242464   4.199   0.361   1.518 -0.6932 -0.6803 -0.9833
  192MOL    H6342465   4.355   0.349   1.576 -0.0597  1.2857 -0.2017
  192MOL    H6442466   4.228   0.090   1.511 -1.0103  1.9481 -1.3872
  192MOL    H6542467   4.282   7.770   1.664  0.6491  0.5414 -1.2474
  192MOL    H6642468   4.414   7.776   1.770 -0.9913 -0.8035  1.0395
  192MOL    H6742469   4.258   7.815   1.837  2.9188 -1.0671  1.5395
  192MOL    C6842470   4.090   0.193   1.642  0.5987  0.1214 -0.0778
  192MOL    C6942471   4.012   0.089   1.728 -0.0014 -0.0272  0.8804
  192MOL    C7042472   3.968   7.827   1.642  0.2996  0.0388 -0.4438
  192MOL    O7142473   3.992   7.826   1.524 -0.1775  0.0591  0.4196
  192MOL    C7242474   3.888   7.714   1.701 -0.0359  0.6010 -0.2838
  192MOL    H7342475   4.084   0.291   1.691 -1.2958  0.3716 -0.7595
  192MOL    H7442476   4.037   0.203   1.548  0.1196 -1.9097 -0.0356
  192MOL    H7542477   4.069   0.037   1.805  1.4953  1.5066  0.8315
  192MOL    H7642478   3.910   7.716   1.808 -0.5609 -1.9253 -0.0958
  192MOL    H7742479   3.781   7.720   1.679 -0.1335  0.5172  0.1555
  192MOL    H7842480   3.945   7.623   1.684  0.1223  0.2294  2.0263
  192MOL    C7942481   3.888   0.160   1.795 -0.5323 -0.1799  0.7930
  192MOL    C8042482   3.922   0.259   1.909  0.1099 -0.2158  0.2154
  192MOL    C8142483   4.001   0.199   2.024  0.5048 -0.2690 -0.0163
  192MOL    O8242484   3.946   0.151   2.120  0.1281 -0.2416  0.0392
  192MOL    C8342485   4.152   0.215   2.015  0.1908 -0.2231 -0.1502
  192MOL    H8442486   3.817   0.091   1.842 -1.2896  0.8993  1.2589
  192MOL    H8542487   3.835   0.203   1.710 -2.3583 -2.6538  0.5892
  192MOL    H8642488   3.992   0.335   1.874  0.5045 -0.8048 -0.2802
  192MOL    H8742489   4.198   0.132   1.962 -1.0136  0.0926 -1.7381
  192MOL    H8842490   4.200   0.216   2.113  0.2687  0.7189 -0.1948
  192MOL    H8942491   4.179   0.307   1.963  1.1920 -0.5609 -0.2370
  192MOL    C9042492   3.797   0.339   1.963  0.1893 -0.3652  0.5368
  192MOL    C9142493   3.689   0.390   1.858  0.0221 -0.3356 -0.1674
  192MOL    C9242494   3.549   0.428   1.919  0.5241 -0.2281  0.4733
  192MOL    O9342495   3.448   0.375   1.876 -0.1351 -0.2024  0.2407
  192MOL    C9442496   3.541   0.529   2.035 -0.3589  0.5026 -0.2160
  192MOL    H9542497   3.749   0.280   2.041  1.1596 -1.6526  0.1756
  192MOL    H9642498   3.825   0.420   2.031  1.0001 -0.3338  0.1681
  192MOL    H9742499   3.672   0.309   1.786 -1.5137  1.4388 -1.8526
  192MOL    H9842500   3.493   0.481   2.120  0.7795 -0.0494  0.1328
  192MOL    H9942501   3.636   0.563   2.078 -0.8960 -0.2955  1.6895
  192MOL   H10042502   3.487   0.616   1.998 -1.7886 -0.7465 -1.0764
  192MOL   C10142503   3.758   0.508   1.784  0.3229 -0.6009  0.8016
  192MOL   C10242504   3.698   0.536   1.641 -0.4288  0.2506 -0.7356
  192MOL   C10342505   3.732   0.433   1.529 -0.4867 -0.1623  0.0825
  192MOL   O10442506   3.850   0.395   1.516  0.8605 -0.2747 -0.1345
  192MOL   C10542507   3.621   0.378   1.439 -0.0522 -0.4520 -0.2398
  192MOL   H10642508   3.757   0.601   1.841  3.3903  1.2254 -1.9639
  192MOL   H10742509   3.865   0.488   1.779  0.5479  0.8937 -0.3512
  192MOL   H10842510   3.590   0.539   1.653 -0.1003  2.4817  2.4350
  192MOL   H10942511   3.535   0.334   1.490 -1.2787  1.9667 -0.1381
  192MOL   H11042512   3.590   0.457   1.371  0.4923  1.6961  1.9244
  192MOL   H11142513   3.679   0.313   1.373 -2.9037 -0.2582 -3.0611
  192MOL   C11242514   3.737   0.676   1.586 -0.4447  0.4990  0.3506
  192MOL   C11342515   3.661   0.806   1.637  0.3797  0.0754  0.4973
  192MOL   C11442516   3.516   0.801   1.592 -0.1522  0.0030  0.2839
  192MOL   O11542517   3.487   0.773   1.477 -0.8842 -0.2404  0.3140
  192MOL   C11642518   3.418   0.857   1.690  0.1593  0.1316  0.1705
  192MOL   H11742519   3.716   0.666   1.479 -1.1079  0.2029  0.5077
  192MOL   H11842520   3.846   0.680   1.595 -0.4802  2.2819  0.0626
  192MOL   H11942521   3.655   0.796   1.745  0.2569  0.9075  0.5722
  192MOL   H12042522   3.314   0.844   1.662  0.9725 -1.3530 -2.3316
  192MOL   H12142523   3.425   0.803   1.785  2.3264 -0.3472 -0.2454
  192MOL   H12242524   3.442   0.959   1.719 -0.1663  0.2929 -0.1237
  192MOL   C12342525   3.743   0.929   1.599  0.2992 -0.4624 -0.0594
  192MOL   C12442526   3.895   0.943   1.614 -0.6796  0.0708 -0.2713
  192MOL   C12542527   3.956   0.909   1.754 -0.2111 -0.1756 -0.0164
  192MOL   O12642528   4.017   0.809   1.776  0.0287  0.4067 -0.2213
  192MOL   C12742529   3.936   1.004   1.868 -0.1570 -0.0917 -0.5623
  192MOL   H12842530   3.699   1.025   1.629  1.9566  0.6168 -0.9886
  192MOL   H12942531   3.732   0.925   1.491  0.8545 -2.5315 -0.0446
  192MOL   H13042532   3.934   0.877   1.537  2.1220  1.3754 -0.0551
  192MOL   H13142533   3.976   1.101   1.837 -0.3973 -0.5005 -2.2031
  192MOL   H13242534   3.986   0.972   1.959  0.5271 -0.6196 -1.1117
  192MOL   H13342535   3.831   1.027   1.887 -0.1193 -0.1872 -0.2367
  192MOL   C13442536   3.943   1.086   1.568  0.0053 -0.7811  0.3876
  192MOL   C13542537   4.096   1.115   1.581  0.6767  0.4524  0.9494
  192MOL   C13642538   4.176   1.004   1.500 -0.2465 -0.5229 -0.3699
  192MOL   O13742539   4.179   1.007   1.375 -0.1721 -0.1825 -0.3822
  192MOL   C13842540   4.269   0.914   1.583 -0.0286  0.3991  0.1560
  192MOL   H13942541   3.879   1.164   1.610 -0.2442 -2.3608  2.9742
  192MOL   H14042542   3.922   1.105   1.462 -0.8804  0.5239  0.7771
  192MOL   H14142543   4.131   1.090   1.681  1.5856 -0.1257  0.4983
  192MOL   H14242544   4.222   0.816   1.589 -3.4289  2.0895  3.5103
  192MOL   H14342545   4.301   0.938   1.684  2.7897 -1.3395 -0.2917
  192MOL   H14442546   4.367   0.911   1.536  0.9618  2.3556  1.9768
  192MOL   C14542547   4.122   1.266   1.546  0.1347 -0.3862  0.0514
  192MOL   C14642548   4.256   1.333   1.591 -0.7008  0.0564 -0.0077
  192MOL   C14742549   4.279   1.321   1.744 -0.1259  0.9688  0.1438
  192MOL   O14842550   4.373   1.254   1.783  0.0603  0.6659  0.7110
  192MOL   C14942551   4.166   1.375   1.838 -0.9640  0.2438 -0.1691
  192MOL   H15042552   4.039   1.329   1.578  0.0216 -0.2548 -0.4913
  192MOL   H15142553   4.113   1.261   1.437 -0.4513 -0.7820  0.1115
  192MOL   H15242554   4.240   1.436   1.559  3.7000  0.3864 -1.4625
  192MOL   H15342555   4.208   1.457   1.896  1.8321 -1.6557  0.5883
  192MOL   H15442556   4.092   1.416   1.769  1.6031  0.6356 -2.7950
  192MOL   H15542557   4.122   1.305   1.908 -1.5661 -1.2092 -1.9697
  192MOL   C15642558   4.382   1.295   1.511  0.2504  0.3057 -0.5499
  192MOL   C15742559   4.508   1.378   1.529  0.2753 -0.6123  0.1155
  192MOL   C15842560   4.492   1.514   1.457 -0.1110 -0.2472 -0.0579
  192MOL   O15942561   4.399   1.544   1.381 -0.5628 -0.2175 -0.0540
  192MOL   C16042562   4.585   1.633   1.494  0.3784  0.9613  0.5143
  192MOL   H16142563   4.407   1.194   1.543 -1.4353 -0.5307 -1.7750
  192MOL   H16242564   4.357   1.274   1.407  0.3998 -0.5948 -0.4094
  192MOL   H16342565   4.523   1.400   1.635 -1.4620 -0.4002  0.3333
  192MOL   H16442566   4.654   1.589   1.567 -2.0754 -2.4214  0.9660
  192MOL   H16542567   4.540   1.724   1.533  0.4415  0.1262  2.6758
  192MOL   H16642568   4.657   1.646   1.414 -0.2800  1.7337  0.0478
  192MOL   C16742569   4.646   1.315   1.477  0.2556 -0.1443 -0.5924
  192MOL   C16842570   4.714   1.208   1.572  0.2458  0.4195  0.3058
  192MOL   C16942571   4.685   1.067   1.522  0.6543 -0.2416  0.5327
  192MOL   O17042572   4.624   0.985   1.592 -0.4268  0.8407 -0.3113
  192MOL   C17142573   4.723   1.022   1.376  0.3005 -0.1528 -0.1564
  192MOL   H17242574   4.625   1.272   1.379  0.0256 -0.1450 -0.5434
  192MOL   H17342575   4.719   1.396   1.468 -0.8191  1.0275  0.8630
  192MOL   H17442576   4.811   1.229   1.525 -0.4286  1.6064 -0.5836
  192MOL   H17542577   4.830   1.041   1.385 -0.0793  1.3365  1.7157
  192MOL   H17642578   4.673   1.087   1.304  0.1856  0.6052  0.5912
  192MOL   H17742579   4.707   0.917   1.352  2.3105 -0.6753  0.7046
  192MOL   C17842580   4.705   1.235   1.723  0.1253 -0.3047  0.6664
  192MOL   C17942581   4.802   1.150   1.806 -0.0244  0.1009 -0.3484
  192MOL   C18042582   4.766   1.181   1.956  0.9970  0.3230 -0.4752
  192MOL   O18142583   4.824   1.258   2.027  0.0337 -0.3495 -0.1115
  192MOL   C18242584   4.649   1.101   2.013 -0.4985  0.3000 -0.1697
  192MOL   H18342585   4.711   1.343   1.737 -2.0759  0.0428 -0.7191
  192MOL   H18442586   4.603   1.205   1.747 -0.3257  1.0076  0.4153
  192MOL   H18542587   4.786   1.042   1.799  0.2867 -0.0342  0.8185
  192MOL   H18642588   4.578   1.074   1.935 -2.2218  3.8320  0.0825
  192MOL   H18742589   4.606   1.165   2.090 -0.1689 -0.8975  1.0357
  192MOL   H18842590   4.694   1.012   2.057  0.1385 -0.3146 -2.0325
  192MOL   C18942591   4.960   1.176   1.786  0.1609 -0.2712  0.0883
  192MOL   C19042592   5.044   1.046   1.811  0.3448 -0.2131 -0.3730
  192MOL   C19142593   5.016   0.932   1.707 -0.2719 -0.0211 -0.6095
  192MOL   O19242594   5.039   0.954   1.593  0.4305 -0.4826  0.1625
  192MOL   C19342595   4.979   0.785   1.745  0.1623  0.7421 -0.1293
  192MOL   H19442596   4.976   1.207   1.683  0.8025 -0.4379  0.1402
  192MOL   H19542597   4.992   1.254   1.855  1.7365 -1.4994  0.7860
  192MOL   H19642598   5.025   0.994   1.905  0.2602  0.2916 -0.1107
  192MOL   H19742599   4.895   0.757   1.682  0.6315  0.4594 -0.6250
  192MOL   H19842600   5.055   0.708   1.737 -0.9380 -0.2848 -0.7278
  192MOL   H19942601   4.943   0.785   1.848  0.5061  0.2974 -0.0067
  192MOL   C20042602   5.194   1.082   1.799 -0.0569 -0.2084 -0.1037
  192MOL   C20142603   5.297   0.979   1.852 -0.0856 -0.2174 -0.1105
  192MOL   C20242604   5.269   0.932   2.000 -0.6022 -0.0319 -0.2230
  192MOL   O20342605   5.257   0.820   2.038  0.2026 -0.4635 -0.5296
  192MOL   C20442606   5.268   1.045   2.103  1.1100 -0.6290  0.1006
  192MOL   H20542607   5.211   1.124   1.700  0.3213 -0.6857 -0.2446
  192MOL   H20642608   5.206   1.175   1.854 -0.5522  0.4968 -1.1728
  192MOL   H20742609   5.278   0.896   1.784  0.3706 -0.3356 -0.0956
  192MOL   H20842610   5.178   1.106   2.092  0.1885 -1.9294  0.3098
  192MOL   H20942611   5.272   1.020   2.209 -1.0337 -0.5661  0.2309
  192MOL   H21042612   5.362   1.091   2.072  1.4054 -1.2093  0.1322
  192MOL   C21142613   5.445   1.012   1.822 -0.0357  0.2204  0.2503
  192MOL   C21242614   5.478   1.033   1.670  0.0234  0.7081 -0.4084
  192MOL   C21342615   5.500   0.901   1.600  1.1865 -1.1897 -0.8384
  192MOL   O21442616   5.520   0.798   1.659  0.0188 -0.0663 -0.2703
  192MOL   C21542617   5.505   0.906   1.448  0.3691  0.6718  0.3743
  192MOL   H21642618   5.465   1.100   1.883  1.5343  1.4398 -1.9386
  192MOL   H21742619   5.501   0.929   1.865 -0.2825 -0.0950 -0.0331
  192MOL   H21842620   5.574   1.083   1.666 -0.3035  1.3845  0.1818
  192MOL   H21942621   5.407   0.868   1.419  1.3769 -0.7262 -1.3335
  192MOL   H22042622   5.513   1.004   1.401  2.9704  0.0058 -0.6455
  192MOL   H22142623   5.578   0.838   1.404 -0.1007  1.1526 -1.1746
  192MOL   H22242624   5.403   1.101   1.628 -0.4199 -0.0503 -0.8617
  193MOL     C142625   5.100   0.110   4.874 -0.0733  0.3465  0.4118
  193MOL     C242626   4.997   0.138   4.764 -0.8152  0.2052 -0.2501
  193MOL     C342627   4.956   0.284   4.774 -0.5308 -0.5193  0.1840
  193MOL     O442628   4.984   0.368   4.688 -0.3816 -0.2241 -0.0151
  193MOL     C542629   4.874   0.331   4.883  0.2719 -0.1603 -0.4586
  193MOL     H642630   5.057   0.101   4.974  2.3029  0.1271  1.4470
  193MOL     H742631   5.177   0.187   4.879  0.5040 -0.2884  1.5571
  193MOL     H842632   4.917   0.065   4.779  1.1355 -2.5521 -2.5774
  193MOL     H942633   4.770   0.303   4.872  0.6077 -2.0596  0.8966
  193MOL    H1042634   4.893   0.298   4.985  1.2029 -2.2464 -1.2693
  193MOL    H1142635   4.868   0.439   4.873  1.1209 -0.1570 -1.0696
  193MOL    H1242636   5.162   0.021   4.871  0.8583  0.9940 -0.0692
  193MOL    C1342637   5.062   0.095   4.632  0.3657 -0.7576  0.0420
  193MOL    C1442638   5.115   7.808   4.624  0.1920  0.1921 -0.1159
  193MOL    C1542639   5.254   7.805   4.556 -0.5525  0.0239  0.2538
  193MOL    O1642640   5.268   7.832   4.439 -0.3150 -0.1253 -0.1011
  193MOL    C1742641   5.366   7.762   4.649  0.3941 -0.7829 -0.4059
  193MOL    H1842642   4.989   0.114   4.553 -1.1059  1.4110  1.8565
  193MOL    H1942643   5.144   0.165   4.617 -1.0993  0.9415 -0.1950
  193MOL    H2042644   5.125   7.760   4.722  0.3001 -0.5104 -0.4703
  193MOL    H2142645   5.466   7.784   4.610 -0.2553  0.8769 -1.1744
  193MOL    H2242646   5.355   7.809   4.746 -1.3826 -1.6790 -0.1518
  193MOL    H2342647   5.351   7.654   4.649 -0.3690 -0.6926  1.3343
  193MOL    C2442648   5.007   7.729   4.546  0.4863 -0.4048  0.5639
  193MOL    C2542649   5.029   7.585   4.541 -0.1838  0.7134 -0.6119
  193MOL    C2642650   4.947   7.507   4.642  0.2825  0.1858 -0.0017
  193MOL    O2742651   4.826   7.488   4.634 -0.0675 -0.5489 -0.3288
  193MOL    C2842652   5.024   7.454   4.766 -0.5906  0.2709  0.2023
  193MOL    H2942653   4.910   7.756   4.587  0.8868 -0.5808  1.6424
  193MOL    H3042654   5.005   7.766   4.443 -0.6267  0.7812  0.9876
  193MOL    H3142655   5.126   7.570   4.588 -0.2610  0.7539 -0.4364
  193MOL    H3242656   4.978   7.373   4.821  0.2509 -1.0690 -1.0021
  193MOL    H3342657   5.121   7.416   4.732  0.0575 -0.8330  3.1876
  193MOL    H3442658   5.038   7.531   4.841 -0.3767 -0.2743  0.7227
  193MOL    C3542659   5.033   7.524   4.399  0.1205  0.3268  0.1807
  193MOL    C3642660   5.167   7.527   4.330 -0.3427 -0.9248  0.7391
  193MOL    C3742661   5.281   7.441   4.389  0.0301  0.1335  0.2411
  193MOL    O3842662   5.257   7.336   4.446  0.4724  0.1382  0.1653
  193MOL    C3942663   5.422   7.476   4.373 -0.0530  0.2861  0.3975
  193MOL    H4042664   4.960   7.583   4.343 -0.5535  0.1638  0.8769
  193MOL    H4142665   4.995   7.422   4.394 -0.1382  0.4631 -0.6567
  193MOL    H4242666   5.205   7.629   4.337  0.4501 -0.9965 -2.1057
  193MOL    H4342667   5.440   7.528   4.279  0.8693  1.0264  0.9782
  193MOL    H4442668   5.484   7.387   4.373  1.1854  1.1052  2.8082
  193MOL    H4542669   5.467   7.538   4.450 -0.3646  2.4428 -1.1017
  193MOL    C4642670   5.147   7.485   4.173  0.5854  0.0037 -0.0792
  193MOL    C4742671   5.243   7.543   4.064  0.0792 -0.1397  0.5864
  193MOL    C4842672   5.224   7.485   3.924  0.4361  0.2794  0.2427
  193MOL    O4942673   5.116   7.435   3.899  0.2170 -0.3744 -0.0313
  193MOL    C5042674   5.335   7.499   3.826 -0.5066  0.1885  0.2557
  193MOL    H5142675   5.042   7.501   4.147  0.4869 -1.8079 -0.8975
  193MOL    H5242676   5.148   7.376   4.172  1.5702  0.0161 -0.3916
  193MOL    H5342677   5.346   7.510   4.081 -0.1147 -0.6359  0.8129
  193MOL    H5442678   5.420   7.440   3.861  0.6356  1.8792  0.3512
  193MOL    H5542679   5.300   7.476   3.725  0.5662  0.4594 -0.1850
  193MOL    H5642680   5.363   7.604   3.820  0.6126 -0.1506 -0.7364
  193MOL    C5742681   5.247   7.696   4.058  0.2851  0.2384 -0.2757
  193MOL    C5842682   5.124   7.774   4.002 -0.3331 -0.2127 -0.3123
  193MOL    C5942683   5.044   7.836   4.126  0.5711 -0.7203  0.5845
  193MOL    O6042684   4.948   7.780   4.176  0.7428 -0.4356  0.3629
  193MOL    C6142685   5.095   0.111   4.188 -0.1783 -0.2316 -0.2007
  193MOL    H6242686   5.335   7.709   3.996  1.2895  0.3609  1.1417
  193MOL    H6342687   5.276   7.752   4.148  2.0350 -0.5357 -0.3410
  193MOL    H6442688   5.059   7.699   3.957  0.4350 -0.7936 -0.4686
  193MOL    H6542689   5.043   0.202   4.156  0.6035  0.3944  0.3046
  193MOL    H6642690   5.089   0.106   4.296 -0.8374 -0.5681 -0.2474
  193MOL    H6742691   5.201   0.123   4.168  0.5176 -1.8376  2.3541
  193MOL    C6842692   5.160   0.033   3.903 -0.5483  0.4417 -1.1335
  193MOL    C6942693   5.038   0.081   3.826 -0.1954 -0.3688  0.9561
  193MOL    C7042694   4.954   7.829   3.760  0.0200  0.6279 -0.4544
  193MOL    O7142695   5.006   7.737   3.699  0.1116  0.2537 -0.3660
  193MOL    C7242696   4.803   7.831   3.766  0.4200  0.0655  0.5988
  193MOL    H7342697   5.213   0.111   3.956  2.4180 -1.5376 -1.0846
  193MOL    H7442698   5.241   0.000   3.838  0.3887  0.5151  0.0019
  193MOL    H7542699   4.975   0.139   3.893  0.4853 -1.1643  2.2811
  193MOL    H7642700   4.777   0.016   3.669  1.0901  0.3831  0.5593
  193MOL    H7742701   4.775   7.725   3.765 -0.4058  0.2640 -2.0583
  193MOL    H7842702   4.760   0.032   3.847  1.3443  0.8712  0.5122
  193MOL    C7942703   5.091   0.181   3.712 -0.0979  0.1275  0.2221
  193MOL    C8042704   4.984   0.261   3.631 -0.4796  0.3547  0.4526
  193MOL    C8142705   5.050   0.344   3.520 -0.4488 -0.3290 -0.5321
  193MOL    O8242706   5.098   0.453   3.551 -0.0175  0.1875 -0.3634
  193MOL    C8342707   5.077   0.276   3.388  0.2101 -0.0146  0.3882
  193MOL    H8442708   5.155   0.123   3.646  0.4608  0.4330  0.4901
  193MOL    H8542709   5.155   0.254   3.760 -1.5100  0.6511  1.3586
  193MOL    H8642710   4.924   0.182   3.584  1.7912 -1.5042  0.5859
  193MOL    H8742711   5.040   0.335   3.304 -0.1078  0.1215  0.6202
  193MOL    H8842712   5.012   0.191   3.369 -1.4779  1.2088  0.5603
  193MOL    H8942713   5.174   0.231   3.368 -0.3099 -1.4931  1.1111
  193MOL    C9042714   4.902   0.344   3.731 -0.7487  0.2078 -0.1683
  193MOL    C9142715   4.792   0.437   3.669  0.1922 -0.2648  0.1235
  193MOL    C9242716   4.684   0.358   3.588  1.0228  0.3846 -0.4172
  193MOL    O9342717   4.653   0.242   3.611  0.1451 -0.0041 -0.1538
  193MOL    C9442718   4.615   0.427   3.481  0.4904 -0.1674 -0.1779
  193MOL    H9542719   4.846   0.284   3.803 -1.2867  2.4792  1.3493
  193MOL    H9642720   4.970   0.401   3.793 -0.7349  1.3004 -1.1676
  193MOL    H9742721   4.847   0.502   3.601  0.1825  0.3121  0.6588
  193MOL    H9842722   4.611   0.361   3.394 -0.5606 -0.3084 -0.0365
  193MOL    H9942723   4.523   0.475   3.515  0.7225  0.4910 -0.4890
  193MOL   H10042724   4.669   0.505   3.427 -1.5482 -0.3794 -2.6085
  193MOL   C10142725   4.742   0.525   3.785  0.9356 -0.4099  0.5425
  193MOL   C10242726   4.681   0.463   3.913 -0.0163  0.0158  0.0595
  193MOL   C10342727   4.572   0.356   3.889  0.6714  0.0119 -0.8217
  193MOL   O10442728   4.461   0.387   3.837  0.1002  0.8490 -0.6339
  193MOL   C10542729   4.588   0.217   3.959  0.6535  0.1531 -0.2286
  193MOL   H10642730   4.824   0.588   3.818  0.5585 -0.9020  2.4520
  193MOL   H10742731   4.666   0.591   3.742  0.2952 -1.5254 -0.0692
  193MOL   H10842732   4.763   0.418   3.970 -0.5240  0.5715  1.2490
  193MOL   H10942733   4.671   0.211   4.029  0.1794  0.7663  0.3975
  193MOL   H11042734   4.503   0.185   4.020  0.7238 -3.2207 -1.7930
  193MOL   H11142735   4.603   0.144   3.880  0.5544  0.9418 -0.9808
  193MOL   C11242736   4.621   0.577   4.003 -0.1745  0.1478 -0.0905
  193MOL   C11342737   4.646   0.556   4.155 -0.3551  1.0143  0.5274
  193MOL   C11442738   4.506   0.558   4.230  0.4519 -0.6399  0.3347
  193MOL   O11542739   4.489   0.650   4.310 -0.2117 -0.2607 -0.9255
  193MOL   C11642740   4.396   0.456   4.196  0.1063 -0.1321 -0.5128
  193MOL   H11742741   4.516   0.599   3.985  0.3679  2.1275 -1.0320
  193MOL   H11842742   4.663   0.671   3.967  0.5775 -0.1255  0.0468
  193MOL   H11942743   4.671   0.450   4.167 -3.9406 -0.0569 -0.8627
  193MOL   H12042744   4.295   0.496   4.211 -1.3279 -3.1510 -1.6686
  193MOL   H12142745   4.412   0.422   4.094 -1.3621 -3.2259  0.2045
  193MOL   H12242746   4.416   0.385   4.276 -1.6131  0.4653  0.4826
  193MOL   C12342747   4.748   0.653   4.213  0.5852  0.3280 -0.3235
  193MOL   C12442748   4.887   0.645   4.157  0.3910  0.6303  0.6819
  193MOL   C12542749   4.966   0.513   4.186 -0.1995  0.2176  0.0488
  193MOL   O12642750   5.018   0.452   4.090 -0.6599 -0.0717 -0.4918
  193MOL   C12742751   4.979   0.456   4.331  0.8843  0.6630  0.3370
  193MOL   H12842752   4.744   0.637   4.321  2.2256 -2.2159 -0.6092
  193MOL   H12942753   4.709   0.754   4.195  0.1299 -0.0558 -1.5628
  193MOL   H13042754   4.862   0.663   4.052 -0.5209 -1.3771  0.5309
  193MOL   H13142755   4.922   0.523   4.395 -2.6206 -0.4172 -1.4919
  193MOL   H13242756   5.085   0.450   4.352  0.9302 -1.4676 -0.3784
  193MOL   H13342757   4.924   0.363   4.339 -0.8661  1.6388 -0.0088
  193MOL   C13442758   4.964   0.762   4.215  0.0444 -0.3628 -0.7324
  193MOL   C13542759   5.073   0.830   4.120  0.1495  0.4875  0.1448
  193MOL   C13642760   5.020   0.907   4.003  1.3541 -0.1432 -0.4230
  193MOL   O13742761   4.929   0.983   4.002  0.3165 -0.3181  0.1242
  193MOL   C13842762   5.090   0.879   3.870 -0.1096 -0.3024 -0.3842
  193MOL   H13942763   5.010   0.739   4.311 -0.2150 -0.4349 -0.6247
  193MOL   H14042764   4.890   0.840   4.231  0.9628  0.4076 -0.1559
  193MOL   H14142765   5.136   0.749   4.083  0.2729 -0.7275  2.9036
  193MOL   H14242766   5.130   0.778   3.873  1.1432  0.0211 -3.7959
  193MOL   H14342767   5.166   0.955   3.849 -0.0406 -0.2312  0.1297
  193MOL   H14442768   5.011   0.884   3.795  0.5702 -0.7761 -1.1395
  193MOL   C14542769   5.176   0.922   4.189  0.7582 -0.1370 -0.2153
  193MOL   C14642770   5.276   0.849   4.287  0.5459 -0.8238  1.0173
  193MOL   C14742771   5.366   0.743   4.209  0.0970  0.2137  0.2504
  193MOL   O14842772   5.461   0.771   4.137  0.0192 -0.1706 -0.3566
  193MOL   C14942773   5.335   0.602   4.255 -0.4039 -1.5642  0.5175
  193MOL   H15042774   5.119   1.001   4.236 -1.4683 -2.2014  0.6990
  193MOL   H15142775   5.230   0.972   4.109  1.3435 -0.5371 -0.0703
  193MOL   H15242776   5.228   0.787   4.363 -0.2068 -1.0861  0.3313
  193MOL   H15342777   5.399   0.528   4.207  0.1920 -0.5134 -0.3198
  193MOL   H15442778   5.353   0.598   4.362  0.3299 -1.8637  0.3826
  193MOL   H15542779   5.228   0.584   4.239 -0.9466  1.4246  0.6198
  193MOL   C15642780   5.364   0.950   4.373 -0.4890  0.5795 -0.2997
  193MOL   C15742781   5.448   0.896   4.491 -0.1960  0.3595  0.1214
  193MOL   C15842782   5.430   0.967   4.624 -0.3852 -0.4196 -0.4084
  193MOL   O15942783   5.513   1.026   4.686  0.1235 -0.2587  0.0795
  193MOL   C16042784   5.293   0.954   4.687  0.6709  0.2072  0.5200
  193MOL   H16142785   5.424   1.003   4.300 -2.9752  2.3461 -1.1373
  193MOL   H16242786   5.294   1.027   4.405 -0.5892  0.7431 -0.9254
  193MOL   H16342787   5.398   0.799   4.499 -1.1144  0.9958  2.7235
  193MOL   H16442788   5.216   1.009   4.632  0.4831 -1.3439 -0.8197
  193MOL   H16542789   5.287   0.987   4.791 -0.1469  0.0354  0.5375
  193MOL   H16642790   5.274   0.847   4.686  2.9538 -0.2202  1.2805
  193MOL   C16742791   5.600   0.881   4.452 -0.2441 -0.3820 -0.0177
  193MOL   C16842792   5.681   0.777   4.533 -0.3552 -0.3592 -0.4836
  193MOL   C16942793   5.799   0.837   4.609 -0.7755  0.4880 -0.4284
  193MOL   O17042794   5.901   0.881   4.546  0.2630 -0.4617  0.3393
  193MOL   C17142795   5.799   0.824   4.769 -0.0804 -0.0193  0.4455
  193MOL   H17242796   5.618   0.881   4.344 -1.3682  1.6905 -0.2171
  193MOL   H17342797   5.638   0.981   4.467  1.2786 -0.8599 -0.5853
  193MOL   H17442798   5.603   0.743   4.602 -1.1572  0.2075 -1.0986
  193MOL   H17542799   5.696   0.827   4.805  0.2992 -0.4429  1.5776
  193MOL   H17642800   5.851   0.914   4.801 -1.4790  1.0622 -0.2901
  193MOL   H17742801   5.849   0.734   4.805 -0.3352 -0.8968 -1.3357
  193MOL   C17842802   5.724   0.657   4.443  0.7243  0.0533  0.1336
  193MOL   C17942803   5.793   0.536   4.519 -0.1738 -0.4298  0.3594
  193MOL   C18042804   5.929   0.501   4.464  0.3873 -0.7055  0.3003
  193MOL   O18142805   5.945   0.437   4.362  0.0626  0.1754 -0.7268
  193MOL   C18242806   6.056   0.560   4.530  0.1941  0.1530 -0.0329
  193MOL   H18342807   5.643   0.631   4.376  0.9771  2.2259 -1.0642
  193MOL   H18442808   5.791   0.685   4.362 -1.4822 -1.6375 -2.3626
  193MOL   H18542809   5.824   0.565   4.619  1.9441  2.3310 -1.0221
  193MOL   H18642810   6.130   0.488   4.565  0.6452  0.1300 -1.0094
  193MOL   H18742811   6.030   0.642   4.597 -2.7810  0.1646 -1.1049
  193MOL   H18842812   6.094   0.611   4.442 -5.9149  3.1938 -1.1801
  193MOL   C18942813   5.690   0.417   4.517 -0.9579  0.0395 -0.3537
  193MOL   C19042814   5.565   0.429   4.607 -0.2725  0.1826 -0.4362
  193MOL   C19142815   5.458   0.318   4.572  0.1361  0.0551 -0.7157
  193MOL   O19242816   5.403   0.249   4.654  0.2758  0.5472  0.0571
  193MOL   C19342817   5.421   0.294   4.426 -0.3642 -0.4783  0.4910
  193MOL   H19442818   5.667   0.407   4.411  0.1844 -2.5145 -0.3984
  193MOL   H19542819   5.739   0.326   4.551 -1.7461 -0.3376 -0.2124
  193MOL   H19642820   5.522   0.527   4.585 -1.5255 -0.8142 -2.5814
  193MOL   H19742821   5.459   0.195   4.401  1.4046  0.4035 -0.4023
  193MOL   H19842822   5.314   0.276   4.413 -0.1250 -0.9593 -0.8387
  193MOL   H19942823   5.458   0.375   4.364 -0.0098 -0.9539  0.0831
  193MOL   C20042824   5.604   0.441   4.760  0.1144 -0.2592 -0.5728
  193MOL   C20142825   5.487   0.468   4.857  0.1092  0.2835  0.1636
  193MOL   C20242826   5.410   0.592   4.833  0.2531  0.6802  0.7527
  193MOL   O20342827   5.463   0.701   4.844 -0.2903  0.2685 -0.2491
  193MOL   C20442828   5.260   0.588   4.799 -0.1181  0.1766 -0.1143
  193MOL   H20542829   5.647   0.345   4.790  3.3207  0.2895 -3.0877
  193MOL   H20642830   5.688   0.511   4.769  0.4446 -0.7415  0.1858
  193MOL   H20742831   5.412   0.389   4.859 -0.4495  0.8316  1.7485
  193MOL   H20842832   5.214   0.502   4.848  1.5001 -0.2085  0.7428
  193MOL   H20942833   5.220   0.685   4.829  0.9745  0.5087  0.2836
  193MOL   H21042834   5.256   0.562   4.693  1.3223 -1.8237  0.3122
  193MOL   C21142835   5.540   0.465   5.001  0.2391  0.2310  0.2709
  193MOL   C21242836   5.444   0.478   5.120 -0.1064 -0.4238 -0.7210
  193MOL   C21342837   5.347   0.356   5.135 -0.5226  0.6191  0.5557
  193MOL   O21442838   5.395   0.249   5.158 -0.3188  0.8337 -0.2870
  193MOL   C21542839   5.199   0.366   5.113 -0.5540 -0.6559  0.3499
  193MOL   H21642840   5.586   0.367   5.010  0.2538  0.3219  1.2359
  193MOL   H21742841   5.617   0.542   5.013  1.7312 -1.1119 -0.5357
  193MOL   H21842842   5.392   0.573   5.116  0.4636 -0.0226  0.8613
  193MOL   H21942843   5.176   0.434   5.031  1.2114 -1.5251 -0.9027
  193MOL   H22042844   5.173   0.262   5.095 -0.2329 -0.9501  1.5985
  193MOL   H22142845   5.163   0.404   5.208 -1.5546  0.2699 -0.3799
  193MOL   H22242846   5.501   0.479   5.213  0.5800 -1.4590 -1.1150
  194MOL     C142847   7.356   7.107   6.009  0.1628 -0.3535 -0.2189
  194MOL     C242848   7.290   7.245   6.036  0.9593  0.4115  0.4333
  194MOL     C342849   7.386   7.357   6.003 -0.4899 -0.9175  0.4978
  194MOL     O442850   7.378   7.424   5.899  0.4372 -0.5119 -0.5951
  194MOL     C542851   7.500   7.383   6.096 -0.1021 -0.3158  0.3545
  194MOL     H642852   7.285   7.026   6.026  1.2543 -1.8394 -2.4924
  194MOL     H742853   7.430   7.089   6.087 -0.3356 -0.2882  0.2710
  194MOL     H842854   7.283   7.260   6.144  1.6405  0.6823  0.4408
  194MOL     H942855   7.475   7.445   6.183  1.7995 -1.1204  1.5087
  194MOL    H1042856   7.524   7.284   6.134  0.1332 -0.8740 -1.2104
  194MOL    H1142857   7.575   7.442   6.045  0.8333  1.5947  3.7551
  194MOL    H1242858   7.384   7.102   5.904 -0.9389  0.6369 -0.5716
  194MOL    C1342859   7.139   7.259   5.980  0.6128 -0.1680 -0.1592
  194MOL    C1442860   7.040   7.336   6.073 -0.0998  0.5074 -0.0331
  194MOL    C1542861   7.010   7.255   6.204  0.0648  0.0085 -0.2187
  194MOL    O1642862   6.962   7.145   6.201  0.9320  0.0507 -0.1770
  194MOL    C1742863   7.025   7.322   6.338 -0.7642  0.4220 -0.1084
  194MOL    H1842864   7.140   7.302   5.880 -0.4874  2.5663  0.9764
  194MOL    H1942865   7.098   7.158   5.971 -0.0613  0.1060 -0.1416
  194MOL    H2042866   7.078   7.431   6.113  1.5152  0.1513 -0.6876
  194MOL    H2142867   6.951   7.356   6.410 -0.5041  1.5972 -0.3844
  194MOL    H2242868   7.087   7.251   6.392 -1.1513  0.1284 -0.0453
  194MOL    H2342869   7.093   7.405   6.319 -1.6825  0.5141 -3.2509
  194MOL    C2442870   6.915   7.376   5.984  0.5061 -0.1371  0.4976
  194MOL    C2542871   6.788   7.438   6.057 -0.3807 -0.2153 -0.1998
  194MOL    C2642872   6.826   7.556   6.154  0.3673 -0.5551 -0.4314
  194MOL    O2742873   6.918   7.631   6.126  0.9000  0.1243  0.5299
  194MOL    C2842874   6.737   7.579   6.273  0.4147  0.7201  0.0002
  194MOL    H2942875   6.942   7.443   5.903 -1.4010  0.4054  0.2834
  194MOL    H3042876   6.881   7.283   5.938 -0.8311 -0.1794  1.5359
  194MOL    H3142877   6.748   7.350   6.108  2.1100 -1.2482  0.0638
  194MOL    H3242878   6.810   7.568   6.353 -0.6458 -0.4429  0.8247
  194MOL    H3342879   6.696   7.680   6.280 -0.1725  0.7835 -3.3983
  194MOL    H3442880   6.657   7.507   6.283  0.2790  0.6859 -1.1678
  194MOL    C3542881   6.691   7.482   5.947 -0.7278  0.5089  0.1496
  194MOL    C3642882   6.551   7.516   6.002 -0.5919  0.0085 -0.2460
  194MOL    C3742883   6.479   7.606   5.904 -0.4877  0.5768  0.9287
  194MOL    O3842884   6.434   7.559   5.800 -0.0442  0.6838 -0.5479
  194MOL    C3942885   6.466   7.751   5.926  0.0215  0.6694 -0.3371
  194MOL    H4042886   6.673   7.411   5.867 -2.1275 -2.2848  2.8504
  194MOL    H4142887   6.740   7.566   5.898  1.3875 -0.1192  1.1114
  194MOL    H4242888   6.561   7.566   6.098  4.0843  0.1841 -0.6795
  194MOL    H4342889   6.417   7.758   6.023  0.4783  0.1647 -0.0629
  194MOL    H4442890   6.403   7.795   5.849 -0.4992  0.6439  0.0769
  194MOL    H4542891   6.567   7.793   5.918  0.1249  0.6357  0.6929
  194MOL    C4642892   6.462   7.390   6.026  0.6273 -0.4090  0.0272
  194MOL    C4742893   6.333   7.409   6.105  0.1836  0.4125  0.9859
  194MOL    C4842894   6.363   7.456   6.248 -0.0706  0.6109  0.0832
  194MOL    O4942895   6.345   7.579   6.269  0.4445  0.4845  0.0180
  194MOL    C5042896   6.418   7.358   6.343 -0.7201  0.5076 -0.2321
  194MOL    H5142897   6.515   7.314   6.082 -0.1937  1.1630  3.0787
  194MOL    H5242898   6.435   7.339   5.934  1.2286  1.1549 -1.0404
  194MOL    H5342899   6.294   7.307   6.110 -0.7283  0.7489  0.7977
  194MOL    H5442900   6.430   7.399   6.444 -0.5311  1.7342 -0.7509
  194MOL    H5542901   6.357   7.267   6.343 -0.6735  0.4706  0.6674
  194MOL    H5642902   6.519   7.325   6.317 -0.8945  0.3376 -0.6976
  194MOL    C5742903   6.223   7.489   6.032  0.3193  0.5593 -0.5611
  194MOL    C5842904   6.078   7.466   6.081 -0.5123  0.1702 -0.4678
  194MOL    C5942905   6.039   7.541   6.206 -0.4441 -0.3448 -0.0756
  194MOL    O6042906   6.005   7.480   6.305 -0.3045  0.4075 -0.2392
  194MOL    C6142907   6.047   7.689   6.197 -0.4131 -0.2355 -0.3343
  194MOL    H6242908   6.240   7.466   5.927 -2.4691  0.1565 -0.9706
  194MOL    H6342909   6.243   7.596   6.038 -0.8286  0.8698 -2.1432
  194MOL    H6442910   6.063   7.361   6.104 -0.1059 -0.0020 -0.9770
  194MOL    H6542911   6.144   7.737   6.212  0.6000 -1.6344 -2.1610
  194MOL    H6642912   6.008   7.718   6.099  0.4088 -1.6519 -1.0976
  194MOL    H6742913   5.971   7.737   6.260 -2.0422  1.7020 -3.6258
  194MOL    C6842914   5.995   7.485   5.955 -0.1270 -0.1023 -0.2914
  194MOL    C6942915   5.849   7.446   5.963  0.2514 -0.4674  0.1310
  194MOL    C7042916   5.757   7.552   6.040  0.4237 -0.4171 -0.4994
  194MOL    O7142917   5.723   7.527   6.156 -0.1479  0.1054  0.2213
  194MOL    C7242918   5.731   7.691   5.970 -0.6153 -0.0617 -0.4288
  194MOL    H7342919   5.994   7.586   5.915 -0.8834 -1.0063 -2.6523
  194MOL    H7442920   6.043   7.429   5.875 -1.1475 -3.1025  1.1123
  194MOL    H7542921   5.806   7.449   5.863  1.0522 -0.8554 -0.2304
  194MOL    H7642922   5.692   7.764   6.040 -0.5767  1.1032 -1.6082
  194MOL    H7742923   5.821   7.726   5.920 -0.2194  1.1019  1.0631
  194MOL    H7842924   5.673   7.664   5.882  1.4658 -2.1704 -1.2282
  194MOL    C7942925   5.825   7.296   6.011 -0.7450 -0.1415  0.7711
  194MOL    C8042926   5.683   7.234   5.990 -1.2477  0.3255 -0.7473
  194MOL    C8142927   5.625   7.204   6.131  0.4148 -0.4422 -0.1932
  194MOL    O8242928   5.683   7.119   6.204  0.4909  0.0753 -0.3908
  194MOL    C8342929   5.486   7.261   6.161  0.5548  0.0659 -0.1128
  194MOL    H8442930   5.857   7.284   6.115 -2.2896  1.8062  1.5157
  194MOL    H8542931   5.896   7.245   5.947 -0.0674  0.0029  1.4065
  194MOL    H8642932   5.623   7.314   5.946 -0.5325  1.0788 -0.3807
  194MOL    H8742933   5.444   7.223   6.254  0.3345  0.1002 -0.1989
  194MOL    H8842934   5.419   7.248   6.077  0.4161  1.7729 -0.2819
  194MOL    H8942935   5.487   7.370   6.160 -1.8443  0.1135 -1.9648
  194MOL    C9042936   5.690   7.104   5.903 -0.3693  0.2667  0.3615
  194MOL    C9142937   5.563   7.062   5.821  0.5921 -0.7018 -0.0174
  194MOL    C9242938   5.540   7.142   5.694  0.4967 -0.4830 -0.5788
  194MOL    O9342939   5.599   7.119   5.590  0.0173  0.2546 -0.1704
  194MOL    C9442940   5.459   7.276   5.701 -0.7415  1.0809 -0.5182
  194MOL    H9542941   5.771   7.120   5.832 -1.2779 -0.3160 -0.8336
  194MOL    H9642942   5.727   7.021   5.963  0.4383  1.1317  1.0725
  194MOL    H9742943   5.478   7.085   5.886  1.0458  1.0190 -0.0112
  194MOL    H9842944   5.362   7.256   5.656  0.3770 -3.7566 -1.0575
  194MOL    H9942945   5.438   7.303   5.804 -3.2449  0.7821 -0.9407
  194MOL   H10042946   5.504   7.361   5.649  0.2124  0.0434 -1.4153
  194MOL   C10142947   5.550   6.910   5.793  0.7886 -0.0410 -0.5825
  194MOL   C10242948   5.442   6.858   5.699 -0.4434 -0.3860  0.3109
  194MOL   C10342949   5.298   6.913   5.741 -0.2785  0.5782  0.1993
  194MOL   O10442950   5.227   6.972   5.658 -0.2284 -0.1088  0.4151
  194MOL   C10542951   5.260   6.896   5.890 -0.0705 -0.7082  0.4766
  194MOL   H10642952   5.647   6.888   5.747  0.3145 -0.1492 -1.5465
  194MOL   H10742953   5.547   6.856   5.887 -0.4265  1.0070 -0.0152
  194MOL   H10842954   5.469   6.897   5.601  2.0520 -2.6461  0.0306
  194MOL   H10942955   5.259   6.978   5.961 -0.0104 -1.9581  1.9678
  194MOL   H11042956   5.165   6.844   5.897 -0.6015  0.4285  1.8839
  194MOL   H11142957   5.337   6.829   5.929  0.8427  0.0839  0.0601
  194MOL   C11242958   5.435   6.706   5.689 -0.6338  0.1031 -0.4889
  194MOL   C11342959   5.377   6.649   5.555 -0.0087  0.5812 -0.7234
  194MOL   C11442960   5.227   6.657   5.536 -0.4096 -0.3544  1.1525
  194MOL   O11542961   5.143   6.630   5.622 -0.0351 -0.2439 -0.5027
  194MOL   C11642962   5.175   6.710   5.403  0.1624 -0.0303 -0.2098
  194MOL   H11742963   5.379   6.672   5.776 -1.4761 -2.2842 -1.8993
  194MOL   H11842964   5.536   6.677   5.716 -1.4074 -1.3521  0.9483
  194MOL   H11942965   5.409   6.720   5.478  0.8598  0.4737 -0.4637
  194MOL   H12042966   5.250   6.680   5.330  1.8172  1.4395  0.8297
  194MOL   H12142967   5.083   6.653   5.393  0.4317 -0.0880 -2.7984
  194MOL   H12242968   5.155   6.817   5.408  1.1813  0.3384 -2.9009
  194MOL   C12342969   5.429   6.511   5.514 -0.2202  0.7185 -0.5191
  194MOL   C12442970   5.395   6.402   5.617  0.1909 -0.3249 -0.1124
  194MOL   C12542971   5.509   6.395   5.725 -0.1024 -0.8000 -0.2261
  194MOL   O12642972   5.624   6.370   5.692  0.1608  0.3280 -0.0110
  194MOL   C12742973   5.471   6.417   5.871  0.0491  0.0635 -0.4991
  194MOL   H12842974   5.534   6.516   5.486  0.1356  1.1555  0.8810
  194MOL   H12942975   5.388   6.476   5.419  0.0531 -5.4285  1.4434
  194MOL   H13042976   5.299   6.422   5.665 -0.6078 -0.7745 -1.4866
  194MOL   H13142977   5.445   6.520   5.897 -2.3224 -0.6187 -0.0166
  194MOL   H13242978   5.548   6.379   5.938 -0.1487 -0.3541 -0.5071
  194MOL   H13342979   5.380   6.365   5.901 -2.2398  2.2649 -3.3392
  194MOL   C13442980   5.380   6.261   5.544 -0.6667 -0.4074 -0.0555
  194MOL   C13542981   5.325   6.147   5.639  0.2521 -0.4199  0.5717
  194MOL   C13642982   5.199   6.189   5.708  0.1431 -0.2651 -0.8503
  194MOL   O13742983   5.203   6.212   5.827  0.0220 -0.2757 -0.1851
  194MOL   C13842984   5.062   6.205   5.638  0.2701  0.1885 -0.6157
  194MOL   H13942985   5.469   6.236   5.487 -0.9548  1.7484 -1.5077
  194MOL   H14042986   5.305   6.273   5.467 -1.5407 -0.2062  0.8174
  194MOL   H14142987   5.403   6.129   5.713  1.5478 -1.4263 -1.0085
  194MOL   H14242988   5.076   6.180   5.533  4.0188  2.5020 -0.7545
  194MOL   H14342989   5.027   6.307   5.656  1.9245  0.7366 -0.4231
  194MOL   H14442990   4.988   6.130   5.666  0.5556 -0.2590 -1.0520
  194MOL   C14542991   5.319   6.015   5.554 -0.3919  0.0518  0.2029
  194MOL   C14642992   5.288   5.891   5.641 -0.2849 -0.7611  0.6235
  194MOL   C14742993   5.134   5.863   5.645 -0.5509 -0.3517  0.0313
  194MOL   O14842994   5.065   5.886   5.749 -0.0511  0.3520  0.1158
  194MOL   C14942995   5.067   5.804   5.525 -0.5390  0.5007 -0.1169
  194MOL   H15042996   5.408   5.985   5.499 -0.8727 -0.5609 -0.2468
  194MOL   H15142997   5.240   6.033   5.481 -1.4593 -2.0683  0.8037
  194MOL   H15242998   5.311   5.902   5.747  0.4418 -0.2238  0.4182
  194MOL   H15342999   5.065   5.861   5.433  0.7083  1.3771  0.3893
  194MOL   H15443000   5.112   5.708   5.500 -1.4746  0.4103 -1.5120
  194MOL   H15543001   4.960   5.786   5.541 -0.1891  0.0535  1.8152
  194MOL   C15643002   5.364   5.763   5.585  0.1928 -0.0391  0.1031
  194MOL   C15743003   5.513   5.740   5.620 -0.0005  0.2614 -0.5497
  194MOL   C15843004   5.568   5.654   5.501 -0.5707  0.8144 -0.0401
  194MOL   O15943005   5.547   5.533   5.493  0.4979  0.7077  0.2337
  194MOL   C16043006   5.629   5.734   5.387  0.2585 -0.2667 -0.9363
  194MOL   H16143007   5.313   5.677   5.629 -0.6057  0.0382 -0.6522
  194MOL   H16243008   5.352   5.747   5.478 -0.1911  0.1053  0.1230
  194MOL   H16343009   5.560   5.838   5.619 -1.8864  1.1774 -0.8037
  194MOL   H16443010   5.718   5.680   5.356  1.1016  0.1796  0.6733
  194MOL   H16543011   5.662   5.834   5.417  0.8373 -0.7223 -0.0502
  194MOL   H16643012   5.556   5.738   5.306 -0.5667  0.9921 -0.1506
  194MOL   C16743013   5.515   5.667   5.765  0.5468 -0.2184  0.4123
  194MOL   C16843014   5.663   5.637   5.819  0.4006  0.2143 -1.0359
  194MOL   C16943015   5.658   5.548   5.944  0.1561  0.8376 -0.6472
  194MOL   O17043016   5.574   5.573   6.031  0.3827 -0.4369 -0.7004
  194MOL   C17143017   5.735   5.421   5.949 -0.1802  0.2264  0.4200
  194MOL   H17243018   5.443   5.712   5.833 -1.1182  0.9681 -2.0854
  194MOL   H17343019   5.473   5.569   5.743  1.1687 -0.1519 -1.1259
  194MOL   H17443020   5.723   5.586   5.743  0.1148  0.5453 -1.4861
  194MOL   H17543021   5.737   5.364   5.857 -1.9480 -0.8954  1.0561
  194MOL   H17643022   5.694   5.363   6.031  1.5410 -1.7504 -0.0806
  194MOL   H17743023   5.840   5.436   5.977  0.2476  0.5326 -1.2842
  194MOL   C17843024   5.753   5.762   5.839 -0.0076 -0.0428 -0.4317
  194MOL   C17943025   5.714   5.856   5.957  0.3376 -0.2483 -0.3574
  194MOL   C18043026   5.582   5.936   5.936  0.3120 -0.0952  0.2535
  194MOL   O18143027   5.565   5.991   5.828 -0.6967 -0.5157 -0.1686
  194MOL   C18243028   5.473   5.924   6.041 -0.3965 -0.1230 -0.3844
  194MOL   H18343029   5.853   5.721   5.855  0.6590  2.0571  1.1527
  194MOL   H18443030   5.746   5.815   5.744  0.8453  0.4801 -0.2047
  194MOL   H18543031   5.693   5.791   6.042  1.2739  0.5788  0.5292
  194MOL   H18643032   5.456   5.820   6.067 -1.1329 -0.6276 -2.7403
  194MOL   H18743033   5.381   5.964   5.998  0.5799  2.2755 -0.3487
  194MOL   H18843034   5.502   5.991   6.123 -1.4961  1.4421 -1.2336
  194MOL   C18943035   5.834   5.947   5.991 -0.0956 -0.1093 -0.0995
  194MOL   C19043036   5.818   6.015   6.128  0.0380 -0.5522 -0.3105
  194MOL   C19143037   5.898   5.947   6.245  0.6340  0.3149 -0.2231
  194MOL   O19243038   6.019   5.940   6.246 -0.6917  0.2942 -0.4139
  194MOL   C19343039   5.821   5.893   6.370  0.3640  0.0231  0.1308
  194MOL   H19443040   5.922   5.884   6.002  0.4371  0.3121 -1.7756
  194MOL   H19543041   5.852   6.016   5.908  0.4249 -0.2548 -0.1077
  194MOL   H19643042   5.713   6.015   6.157  0.4631 -1.7625  1.3357
  194MOL   H19743043   5.887   5.882   6.456  0.2154 -0.5877  0.1699
  194MOL   H19843044   5.729   5.943   6.400 -0.2806 -0.9910 -0.1340
  194MOL   H19943045   5.789   5.792   6.345  1.0717  0.2964 -1.9715
  194MOL   C20043046   5.857   6.164   6.118 -0.0954 -0.1778 -0.0896
  194MOL   C20143047   5.838   6.263   6.245  0.0437  0.4224 -0.2122
  194MOL   C20243048   5.696   6.302   6.265 -0.3802  1.0772  0.0072
  194MOL   O20343049   5.642   6.395   6.198 -0.3043  0.0110 -0.3485
  194MOL   C20443050   5.615   6.216   6.361  0.3148  0.3533  0.1812
  194MOL   H20543051   5.965   6.164   6.100 -0.0116 -2.0196  0.3508
  194MOL   H20643052   5.807   6.218   6.037 -1.3753  0.8277  1.3521
  194MOL   H20743053   5.864   6.198   6.328  2.9333  3.2313  1.2137
  194MOL   H20843054   5.535   6.178   6.298 -0.3145 -0.7419  1.6061
  194MOL   H20943055   5.675   6.144   6.417 -1.8789 -0.1112  2.0030
  194MOL   H21043056   5.583   6.295   6.429 -0.3032  0.1691  0.1013
  194MOL   C21143057   5.933   6.383   6.239 -0.1813 -0.0753  0.1650
  194MOL   C21243058   5.963   6.446   6.376 -0.1344 -0.0691 -1.1779
  194MOL   C21343059   6.043   6.359   6.467  1.0300 -0.0001 -0.2368
  194MOL   O21443060   6.109   6.263   6.434  0.3518 -0.0998  0.3048
  194MOL   C21543061   6.033   6.395   6.611  0.0819 -0.4895  0.0554
  194MOL   H21643062   6.020   6.359   6.178 -0.0574 -0.2363  0.4034
  194MOL   H21743063   5.885   6.464   6.183  0.4032 -0.9357 -1.5996
  194MOL   H21843064   5.874   6.459   6.438  1.2413  1.2219  0.5816
  194MOL   H21943065   6.098   6.341   6.680  0.8562 -2.0115 -1.7873
  194MOL   H22043066   6.033   6.501   6.634  0.1806 -0.1949 -1.2267
  194MOL   H22143067   5.929   6.368   6.634 -1.0073  1.9238 -1.8472
  194MOL   H22243068   6.019   6.537   6.355  1.0523 -1.0138 -2.2571
  195MOL     C143069   7.445   0.431   3.036  0.2557 -0.3079 -0.4663
  195MOL     C243070   7.535   0.446   3.158 -0.8816  0.1836  0.2821
  195MOL     C343071   7.664   0.361   3.146 -0.3391 -0.0554  0.5353
  195MOL     O443072   7.735   0.380   3.053  0.0293  0.1840 -0.5810
  195MOL     C543073   7.678   0.237   3.236 -0.3112 -0.3620 -0.0554
  195MOL     H643074   7.343   0.455   3.063 -0.3807  0.5977 -3.4252
  195MOL     H743075   7.459   0.327   3.005  1.3961 -0.0036 -1.0174
  195MOL     H843076   7.479   0.405   3.242 -0.7086  0.9579  0.7806
  195MOL     H943077   7.633   0.245   3.334  0.6720  0.4684  0.3405
  195MOL    H1043078   7.647   0.152   3.175  0.1888 -1.3331  1.0223
  195MOL    H1143079   7.786   0.224   3.247 -0.2016  1.4056  1.1155
  195MOL    H1243080   7.473   0.500   2.956  0.9187 -3.0777 -2.7123
  195MOL    C1343081   7.556   0.596   3.211  0.5941  0.1019  0.2665
  195MOL    C1443082   7.627   0.618   3.350  0.4128  0.0899  0.6660
  195MOL    C1543083   7.531   0.567   3.457  0.1220  0.1147  0.4347
  195MOL    O1643084   7.410   0.584   3.445  0.4604  0.0063  0.1037
  195MOL    C1743085   7.580   0.510   3.584  1.0418  0.3303  0.5974
  195MOL    H1843086   7.617   0.646   3.136  0.6938  0.8653  0.8597
  195MOL    H1943087   7.458   0.643   3.211  0.7027  0.3496 -1.2712
  195MOL    H2043088   7.711   0.550   3.350 -0.7869 -1.4703 -1.5462
  195MOL    H2143089   7.546   0.565   3.671  2.0320 -0.5669  1.5736
  195MOL    H2243090   7.541   0.408   3.594 -1.2294  1.2632  1.5224
  195MOL    H2343091   7.689   0.500   3.578  0.9194 -0.8503  0.1145
  195MOL    C2443092   7.672   0.760   3.386 -0.3466 -0.2576 -0.1504
  195MOL    C2543093   7.805   0.811   3.316  0.3562 -0.2424 -0.7117
  195MOL    C2643094   7.824   0.960   3.330  0.1630 -0.4745  0.0675
  195MOL    O2743095   0.025   1.011   3.426 -0.4114 -0.2390  0.3863
  195MOL    C2843096   7.769   1.047   3.212  0.0145  0.8794 -0.8399
  195MOL    H2943097   7.587   0.825   3.363  0.4410  0.6872 -0.4430
  195MOL    H3043098   7.686   0.771   3.494 -0.6918  1.0114 -0.2185
  195MOL    H3143099   7.806   0.793   3.208 -0.5254  2.1497 -1.1604
  195MOL    H3243100   7.774   1.000   3.113 -2.1928  1.6521 -1.3703
  195MOL    H3343101   7.665   1.068   3.239 -0.3710 -0.1185 -1.5001
  195MOL    H3443102   7.829   1.137   3.207 -0.3439  1.0355 -3.5068
  195MOL    C3543103   0.067   0.731   3.368 -0.6134 -0.0903  0.0631
  195MOL    C3643104   0.207   0.772   3.310 -0.1527  0.3864  0.4773
  195MOL    C3743105   0.323   0.688   3.377 -0.0116 -0.3038 -0.3453
  195MOL    O3843106   0.359   0.580   3.333  0.1700 -0.5215 -0.2475
  195MOL    C3943107   0.380   0.751   3.501  0.6555  0.5473  0.3869
  195MOL    H4043108   0.048   0.629   3.332  1.6635 -0.3166 -0.6361
  195MOL    H4143109   0.073   0.737   3.476  2.2472  1.0773 -0.1150
  195MOL    H4243110   0.228   0.873   3.345 -0.8119  0.6005  0.2696
  195MOL    H4343111   0.313   0.832   3.528 -1.4737 -1.3592  0.9357
  195MOL    H4443112   0.483   0.787   3.501  0.8139  0.1335 -1.2928
  195MOL    H4543113   0.369   0.671   3.574 -1.8182  0.5294  0.0405
  195MOL    C4643114   0.222   0.761   3.160 -0.1376  0.3227 -0.8081
  195MOL    C4743115   0.360   0.792   3.095  0.0962 -0.5795 -0.0006
  195MOL    C4843116   0.385   0.732   2.957 -0.0455 -0.1562  0.1147
  195MOL    O4943117   0.464   0.635   2.943 -0.3983  0.1535  0.1527
  195MOL    C5043118   0.303   0.783   2.837  0.0214 -0.3123  0.4815
  195MOL    H5143119   0.146   0.823   3.111  1.0267  1.6888 -0.9282
  195MOL    H5243120   0.196   0.658   3.136  2.4225 -0.2004 -1.4543
  195MOL    H5343121   0.432   0.739   3.158 -0.6504 -0.9920  0.5133
  195MOL    H5443122   0.294   0.699   2.768 -1.8414  1.0691 -0.9954
  195MOL    H5543123   0.203   0.798   2.880 -0.8444 -1.9202 -0.8946
  195MOL    H5643124   0.344   0.875   2.798 -1.1946 -0.2474 -0.6689
  195MOL    C5743125   0.382   0.948   3.108 -0.4027 -0.1702  0.0075
  195MOL    C5843126   0.473   0.993   3.226 -0.8384 -0.4587  0.3568
  195MOL    C5943127   0.620   0.961   3.201 -0.3535 -0.8209  0.1927
  195MOL    O6043128   0.664   0.980   3.087  0.2947  0.1875  0.0100
  195MOL    C6143129   0.704   0.904   3.314  0.3167  0.1256  0.1094
  195MOL    H6243130   0.293   1.011   3.100 -0.5135 -0.3120  0.1200
  195MOL    H6343131   0.431   0.978   3.015  0.1605  0.2514  0.4450
  195MOL    H6443132   0.453   0.940   3.319  2.1561  0.0266  1.3365
  195MOL    H6543133   0.688   0.796   3.324 -1.1757  0.5396  2.7239
  195MOL    H6643134   0.812   0.909   3.299  0.1146  1.2955 -0.9731
  195MOL    H6743135   0.679   0.941   3.413  1.6508 -0.7888  0.8054
  195MOL    C6843136   0.455   1.142   3.245  0.2708  0.1826  1.3882
  195MOL    C6943137   0.526   1.214   3.361 -0.3016 -0.8957  0.5514
  195MOL    C7043138   0.474   1.166   3.499  0.2696 -0.4611  0.2827
  195MOL    O7143139   0.379   1.094   3.506  0.1139  0.0218 -0.0895
  195MOL    C7243140   0.555   1.207   3.622  0.3494  0.5125  0.0826
  195MOL    H7343141   0.479   1.185   3.147  0.2270 -0.7737  0.9544
  195MOL    H7443142   0.349   1.164   3.253  0.5324  0.6738  3.7658
  195MOL    H7543143   0.628   1.176   3.362  0.1575  0.3293  2.7979
  195MOL    H7643144   0.566   1.111   3.672  0.4413 -0.5442 -1.9337
  195MOL    H7743145   0.654   1.238   3.588  0.4775  0.7171  0.6329
  195MOL    H7843146   0.512   1.280   3.690  0.4525  3.0736 -2.5057
  195MOL    C7943147   0.536   1.367   3.348  0.7727 -1.0131 -0.1282
  195MOL    C8043148   0.424   1.468   3.388  0.4315  0.3761 -0.6993
  195MOL    C8143149   0.303   1.435   3.302  0.5119 -0.3849 -0.5726
  195MOL    O8243150   0.304   1.444   3.181  0.3562  0.1814  0.4316
  195MOL    C8343151   0.178   1.386   3.386 -0.8284 -0.1738  0.1783
  195MOL    H8443152   0.574   1.396   3.250  2.0753  0.6028  0.8272
  195MOL    H8543153   0.627   1.391   3.404  0.7852 -3.2030  0.8219
  195MOL    H8643154   0.397   1.461   3.493  0.9009 -2.8948 -0.7530
  195MOL    H8743155   0.104   1.466   3.374 -0.0570  0.7158  1.1829
  195MOL    H8843156   0.191   1.374   3.494  0.6100 -1.4753 -0.1352
  195MOL    H8943157   0.138   1.294   3.345  0.6793 -0.5885 -0.3935
  195MOL    C9043158   0.475   1.604   3.354 -0.5424 -0.1261 -0.8008
  195MOL    C9143159   0.378   1.719   3.413 -0.2127 -0.4215 -0.3658
  195MOL    C9243160   0.339   1.699   3.563 -0.2245  0.8240 -0.2779
  195MOL    O9343161   0.217   1.697   3.590 -0.0891  0.6583  0.7913
  195MOL    C9443162   0.448   1.699   3.670 -0.0677  0.0598 -0.1571
  195MOL    H9543163   0.573   1.613   3.402 -1.3052 -0.7878  0.8857
  195MOL    H9643164   0.496   1.619   3.248 -2.1270 -0.5725 -1.1807
  195MOL    H9743165   0.280   1.702   3.369 -0.6019  0.2242  0.2439
  195MOL    H9843166   0.507   1.782   3.632  0.4170 -0.2835 -0.1662
  195MOL    H9943167   0.411   1.720   3.770 -1.7682  1.9142 -1.1272
  195MOL   H10043168   0.511   1.610   3.675  1.2807  1.0053 -0.2311
  195MOL   C10143169   0.418   1.862   3.370  0.0640 -0.8198 -0.4128
  195MOL   C10243170   0.310   1.974   3.411 -0.2280 -0.5777 -0.8313
  195MOL   C10343171   0.199   1.986   3.310 -0.2713  0.2750 -1.0240
  195MOL   O10443172   0.229   1.999   3.189 -0.3431  0.4400 -0.1256
  195MOL   C10543173   0.051   1.969   3.352  0.1667  0.2647  0.0147
  195MOL   H10643174   0.513   1.890   3.416 -0.5733  0.5513  0.0867
  195MOL   H10743175   0.434   1.867   3.262  1.6330 -1.9278 -0.2533
  195MOL   H10843176   0.270   1.949   3.509  0.1086 -0.4314 -0.6576
  195MOL   H10943177   0.005   1.875   3.321  0.1001  0.7968 -1.5584
  195MOL   H11043178   0.032   1.997   3.456 -1.6247 -1.2328  0.1154
  195MOL   H11143179   7.853   2.039   3.289 -0.9334  0.9165  1.6862
  195MOL   C11243180   0.361   2.121   3.439  0.2731  0.7167 -0.3023
  195MOL   C11343181   0.345   2.176   3.588 -0.8617  0.3753  0.2014
  195MOL   C11443182   0.286   2.323   3.588  0.9851 -0.1119 -0.1293
  195MOL   O11543183   0.360   2.416   3.575 -0.0012 -0.1600  0.0751
  195MOL   C11643184   0.133   2.342   3.597  0.2485 -0.2241 -0.3500
  195MOL   H11743185   0.291   2.189   3.390 -1.3094 -0.4468  0.3018
  195MOL   H11843186   0.464   2.131   3.403 -0.2430  1.2062 -1.6702
  195MOL   H11943187   0.271   2.115   3.641 -1.0421  0.7411  0.3775
  195MOL   H12043188   0.110   2.445   3.572  1.0089 -0.1519 -0.7512
  195MOL   H12143189   0.082   2.285   3.520  0.2441  1.1944 -1.4148
  195MOL   H12243190   0.099   2.319   3.698 -1.9620  0.4688 -0.9147
  195MOL   C12343191   0.480   2.166   3.667  0.1314 -0.1291 -0.4116
  195MOL   C12443192   0.479   2.172   3.821 -0.1447  0.0484 -0.3007
  195MOL   C12543193   0.613   2.212   3.876  0.2246  0.4477  0.5261
  195MOL   O12643194   0.703   2.130   3.883  0.1860  0.4071  0.5618
  195MOL   C12743195   0.643   2.354   3.906 -0.2667 -0.3925 -0.3092
  195MOL   H12843196   0.537   2.247   3.622  0.5587  0.8152  1.7549
  195MOL   H12943197   0.537   2.080   3.631 -0.1524 -0.5764  0.1841
  195MOL   H13043198   0.404   2.247   3.846 -2.6755 -1.1414 -3.8757
  195MOL   H13143199   0.554   2.405   3.944 -0.0594 -0.9383  0.9257
  195MOL   H13243200   0.681   2.409   3.820  0.8777  0.7048  0.8766
  195MOL   H13343201   0.722   2.347   3.981 -1.0435  0.8405  0.6327
  195MOL   C13443202   0.430   2.031   3.862  0.1251  0.5633 -0.2941
  195MOL   C13543203   0.396   2.007   4.007  0.3703  0.0839  0.3378
  195MOL   C13643204   0.258   2.075   4.049 -0.8314 -0.1115 -1.0670
  195MOL   O13743205   0.153   2.020   4.054 -0.3684 -0.1623  0.2471
  195MOL   C13843206   0.267   2.208   4.121 -0.3697 -0.3299  0.6664
  195MOL   H13943207   0.501   1.956   3.828  0.4916 -0.4830  2.5654
  195MOL   H14043208   0.341   2.018   3.801 -0.0270  1.3675 -0.2459
  195MOL   H14143209   0.476   2.042   4.072 -0.6535  1.2654  0.9968
  195MOL   H14243210   0.335   2.281   4.077 -0.8843 -0.8446 -1.0128
  195MOL   H14343211   0.304   2.197   4.223  3.3149 -0.2073 -0.5576
  195MOL   H14443212   0.169   2.255   4.116  1.0157  2.6638  0.9462
  195MOL   C14543213   0.378   1.852   4.040  0.4663  0.0761  0.3221
  195MOL   C14643214   0.496   1.779   4.099 -0.0531 -0.5842 -0.2887
  195MOL   C14743215   0.468   1.628   4.100  0.0974 -0.1978 -0.3171
  195MOL   O14843216   0.511   1.557   4.008  0.1346  0.2134  0.1767
  195MOL   C14943217   0.395   1.565   4.216  0.5252  0.3395 -0.6744
  195MOL   H15043218   0.338   1.802   3.953  2.5464 -1.5543  0.2687
  195MOL   H15143219   0.295   1.834   4.108 -0.4061  1.8270 -0.2444
  195MOL   H15243220   0.508   1.816   4.201  2.3794  0.7638 -1.0479
  195MOL   H15343221   0.407   1.458   4.200  0.6740  0.6204 -2.6525
  195MOL   H15443222   0.423   1.589   4.318  2.4267  2.3848 -1.6387
  195MOL   H15543223   0.287   1.581   4.211  0.7132  2.2031  0.7072
  195MOL   C15643224   0.631   1.816   4.044  0.0877 -0.1803 -0.2503
  195MOL   C15743225   0.749   1.746   4.106  0.5249  0.1547 -0.0540
  195MOL   C15843226   0.758   1.763   4.262  1.0931  0.7419 -0.0098
  195MOL   O15943227   0.718   1.866   4.319 -0.1424 -1.0876  0.0436
  195MOL   C16043228   0.788   1.628   4.340  0.1211  0.1333 -0.4128
  195MOL   H16143229   0.634   1.785   3.940  0.0909 -1.5550  0.1508
  195MOL   H16243230   0.652   1.922   4.052  0.0431 -0.0906 -1.3061
  195MOL   H16343231   0.746   1.638   4.091  0.9022 -0.0003  0.9426
  195MOL   H16443232   0.696   1.570   4.339 -0.5629  1.2420 -1.5685
  195MOL   H16543233   0.813   1.635   4.446 -0.7955  1.6397 -0.2846
  195MOL   H16643234   0.862   1.573   4.281 -0.2009 -0.2048 -0.4997
  195MOL   C16743235   0.878   1.808   4.050  0.2350  0.9826  0.3979
  195MOL   C16843236   0.912   1.791   3.895 -0.3615 -0.4492 -0.5975
  195MOL   C16943237   0.913   1.639   3.851  0.3870 -0.0334  0.0424
  195MOL   O17043238   1.009   1.574   3.868 -0.2197 -0.4819  0.1982
  195MOL   C17143239   0.774   1.585   3.801  0.0543 -0.0357 -0.4644
  195MOL   H17243240   0.889   1.914   4.074 -0.4866  0.7863  1.6613
  195MOL   H17343241   0.958   1.761   4.108 -1.4874  0.8469  2.7545
  195MOL   H17443242   0.828   1.840   3.846 -0.3855 -0.1420 -0.2469
  195MOL   H17543243   0.711   1.552   3.883  0.1146 -1.8725 -1.1369
  195MOL   H17643244   0.790   1.509   3.726 -0.3606 -1.5837  0.9863
  195MOL   H17743245   0.727   1.668   3.749 -0.6527  0.1740  0.4844
  195MOL   C17843246   1.043   1.863   3.862 -0.7460 -0.1442  0.1816
  195MOL   C17943247   1.069   1.877   3.714 -0.1225  0.5692 -0.0072
  195MOL   C18043248   1.205   1.919   3.683  0.4387  0.4600  0.0238
  195MOL   O18143249   1.245   2.034   3.693 -0.2125 -0.5356 -0.0162
  195MOL   C18243250   1.292   1.809   3.610  0.3220 -0.1796  0.4085
  195MOL   H18343251   1.050   1.964   3.902 -1.3881 -0.8349  2.0613
  195MOL   H18443252   1.122   1.798   3.899  0.5484  1.9692  1.2296
  195MOL   H18543253   1.050   1.778   3.672  0.3184  0.5915 -0.2530
  195MOL   H18643254   1.268   1.705   3.632  1.4701 -0.4025  0.6350
  195MOL   H18743255   1.391   1.827   3.653  0.2737 -0.1110  0.4919
  195MOL   H18843256   1.292   1.808   3.501 -1.2916 -1.5078  0.4049
  195MOL   C18943257   0.967   1.971   3.640 -0.3282 -0.1884  0.1122
  195MOL   C19043258   0.961   1.977   3.479  0.1715 -0.1157 -1.1231
  195MOL   C19143259   0.935   1.839   3.416  0.1930  0.5035 -0.3749
  195MOL   O19243260   0.826   1.780   3.429 -0.6855 -0.2050  0.2721
  195MOL   C19343261   1.048   1.790   3.330 -0.5039 -0.3542  0.5160
  195MOL   H19443262   0.865   1.943   3.664 -1.1136  2.6049  0.1792
  195MOL   H19543263   0.986   2.071   3.680 -1.7572 -0.7784  2.3490
  195MOL   H19643264   1.057   2.019   3.452  0.0010 -0.3254 -2.1046
  195MOL   H19743265   1.103   1.872   3.284  1.0619 -1.0712  1.0815
  195MOL   H19843266   1.118   1.727   3.385 -1.0778 -0.5211  1.0664
  195MOL   H19943267   1.002   1.735   3.248  0.8014 -0.5840 -0.0688
  195MOL   C20043268   0.867   2.081   3.427 -0.7423 -0.5509 -0.7004
  195MOL   C20143269   0.884   2.106   3.278 -0.4187 -0.1754 -0.2040
  195MOL   C20243270   0.944   2.241   3.255  0.4233 -0.4840  0.4044
  195MOL   O20343271   1.068   2.254   3.237  0.1120  0.1119  0.1534
  195MOL   C20443272   0.854   2.361   3.270 -0.0415 -0.1258  0.0662
  195MOL   H20543273   0.765   2.047   3.446 -0.9595  0.6529  0.3466
  195MOL   H20643274   0.882   2.160   3.500  0.3413 -0.3757 -1.1158
  195MOL   H20743275   0.970   2.046   3.248 -0.5077  0.2446 -1.3007
  195MOL   H20843276   0.922   2.444   3.291 -1.2305  0.7546  0.4325
  195MOL   H20943277   0.799   2.378   3.177 -0.2545  2.1232  0.5739
  195MOL   H21043278   0.773   2.357   3.342  0.4023  1.3916  0.6717
  195MOL   C21143279   0.760   2.073   3.187 -0.5036 -0.0969  0.4973
  195MOL   C21243280   0.778   2.088   3.035  0.6165  0.5099 -0.3501
  195MOL   C21343281   0.867   1.983   2.979  0.0927 -0.0162 -0.5484
  195MOL   O21443282   0.935   1.912   3.053 -1.0601 -0.2362 -0.2952
  195MOL   C21543283   0.871   1.974   2.828  0.0800 -0.1544  0.0517
  195MOL   H21643284   0.740   1.969   3.210  0.1770 -0.7805 -1.9263
  195MOL   H21743285   0.672   2.130   3.219 -1.5321 -1.5112  0.2601
  195MOL   H21843286   0.815   2.183   2.995  0.0626 -0.1348 -2.4919
  195MOL   H21943287   0.775   1.979   2.776  0.2293 -1.9920 -0.4187
  195MOL   H22043288   0.935   2.041   2.771  0.9940 -2.2179 -1.4091
  195MOL   H22143289   0.918   1.886   2.786 -1.3587 -1.2570  0.7162
  195MOL   H22243290   0.679   2.066   2.996 -0.0672  2.9128 -0.0882
  196MOL     C143291   2.669   5.831   2.055 -0.0936 -0.3097 -1.0316
  196MOL     C243292   2.616   5.858   1.913  0.5703  0.3729 -0.6190
  196MOL     C343293   2.572   6.014   1.906 -0.1255  0.1066  0.0605
  196MOL     O443294   2.617   6.095   1.828 -0.6403 -0.8241  0.2964
  196MOL     C543295   2.467   6.055   2.015 -0.0656  0.4020 -0.2571
  196MOL     H643296   2.753   5.896   2.078 -0.2725 -0.3411 -0.2972
  196MOL     H743297   2.681   5.723   2.064 -0.1668 -0.2698 -0.4275
  196MOL     H843298   2.532   5.790   1.900 -0.0101  1.0189 -0.3216
  196MOL     H943299   2.397   6.132   1.982  0.0067 -0.6979 -3.1176
  196MOL    H1043300   2.396   5.973   2.019 -0.7026  1.0151  1.0311
  196MOL    H1143301   2.508   6.072   2.114  2.1391  1.9483 -1.3675
  196MOL    H1243302   2.589   5.859   2.123  0.7929  1.0087 -0.5117
  196MOL    C1343303   2.710   5.826   1.793 -0.4163 -0.3887 -0.6891
  196MOL    C1443304   2.657   5.844   1.647 -0.3793  0.3508  0.3113
  196MOL    C1543305   2.526   5.769   1.624 -0.1983 -0.7676  0.2265
  196MOL    O1643306   2.537   5.648   1.630  1.1836 -0.8260  0.5228
  196MOL    C1743307   2.399   5.851   1.591  0.4292  0.0081 -0.6758
  196MOL    H1843308   2.793   5.893   1.814 -2.2909  1.3247  1.5299
  196MOL    H1943309   2.746   5.723   1.795  2.1838  0.4973 -0.4644
  196MOL    H2043310   2.626   5.947   1.629  3.2089  1.8518  2.2243
  196MOL    H2143311   2.319   5.835   1.663  1.4086  0.5333  0.5488
  196MOL    H2243312   2.416   5.958   1.579  2.5120 -0.3288 -0.7493
  196MOL    H2343313   2.357   5.823   1.494 -0.5016 -0.1508 -0.2396
  196MOL    C2443314   2.757   5.821   1.528 -0.2220  0.2907  0.6296
  196MOL    C2543315   2.710   5.857   1.389 -0.1522 -0.9623 -0.4900
  196MOL    C2643316   2.750   5.999   1.349 -0.8548  0.3490 -0.6574
  196MOL    O2743317   2.854   6.027   1.283 -0.5634  0.3124 -0.2312
  196MOL    C2843318   2.677   6.116   1.416 -0.0822 -0.0703  0.4706
  196MOL    H2943319   2.855   5.867   1.542 -0.1033  0.2372 -0.0152
  196MOL    H3043320   2.780   5.715   1.531  1.7562  0.6618 -0.1108
  196MOL    H3143321   2.602   5.846   1.399 -0.1300 -0.6523  0.1268
  196MOL    H3243322   2.733   6.159   1.499  0.1206  2.4984 -0.9386
  196MOL    H3343323   2.655   6.190   1.339  0.8909 -0.0898  0.1690
  196MOL    H3443324   2.584   6.085   1.464 -0.2746 -0.3271 -0.0686
  196MOL    C3543325   2.736   5.753   1.277 -0.5403 -0.4071  0.0750
  196MOL    C3643326   2.629   5.733   1.174  0.2466  0.2935  0.9841
  196MOL    C3743327   2.605   5.862   1.085  0.3149 -0.2475 -0.0624
  196MOL    O3843328   2.520   5.939   1.123  0.4254  0.2683  0.0651
  196MOL    C3943329   2.698   5.887   0.965 -0.7085 -0.2774 -0.0289
  196MOL    H4043330   2.761   5.657   1.322 -1.1017 -0.5899  0.0026
  196MOL    H4143331   2.831   5.769   1.226 -1.5011 -0.0700 -1.6519
  196MOL    H4243332   2.527   5.729   1.212 -0.1492 -2.6070 -0.3201
  196MOL    H4343333   2.674   5.822   0.881  1.0700 -1.7092  0.5359
  196MOL    H4443334   2.805   5.884   0.983 -0.8922 -0.8427  1.0172
  196MOL    H4543335   2.684   5.987   0.925 -0.0101 -0.5631 -0.9909
  196MOL    C4643336   2.661   5.618   1.081  0.0777 -0.0871 -0.2656
  196MOL    C4743337   2.648   5.480   1.142  0.0363  0.0424  0.9810
  196MOL    C4843338   2.520   5.462   1.231 -0.3319 -0.1609 -0.5118
  196MOL    O4943339   2.409   5.517   1.208 -0.2751 -0.0962  0.2165
  196MOL    C5043340   2.541   5.368   1.348  0.3294 -0.0758  0.0476
  196MOL    H5143341   2.758   5.623   1.032  0.0745 -3.2876 -0.6801
  196MOL    H5243342   2.596   5.612   0.993  2.1617 -1.8550 -1.7456
  196MOL    H5343343   2.728   5.467   1.216  1.4441 -0.1265 -0.5285
  196MOL    H5443344   2.533   5.265   1.312 -1.7260 -0.2327  0.8876
  196MOL    H5543345   2.638   5.380   1.397  0.6383 -2.6450  0.1501
  196MOL    H5643346   2.457   5.387   1.415  0.4871  1.4703 -0.1806
  196MOL    C5743347   2.674   5.357   1.048 -0.4081  0.9622 -0.4558
  196MOL    C5843348   2.803   5.277   1.062 -0.0767 -0.0764  0.0294
  196MOL    C5943349   2.796   5.145   0.984  0.3260 -0.4696 -0.1181
  196MOL    O6043350   2.841   5.138   0.871  0.6542  0.1471  0.0966
  196MOL    C6143351   2.735   5.026   1.053 -0.1148  0.0872  0.7423
  196MOL    H6243352   2.664   5.397   0.947 -0.3409 -0.4820 -1.0544
  196MOL    H6343353   2.596   5.283   1.071  0.3370  0.4526  0.4768
  196MOL    H6443354   2.812   5.245   1.165 -2.2359  1.1254  0.6154
  196MOL    H6543355   2.669   5.070   1.128 -1.0659 -1.4050  0.7915
  196MOL    H6643356   2.674   4.972   0.981  0.3368  0.0860  0.3547
  196MOL    H6743357   2.807   4.961   1.103 -1.5534 -0.4113  2.1936
  196MOL    C6843358   2.932   5.365   1.031  0.5055  1.3564  0.1657
  196MOL    C6943359   3.069   5.286   1.051  0.3115 -0.5508 -0.2734
  196MOL    C7043360   3.102   5.277   1.204 -0.0871 -0.1626 -0.2961
  196MOL    O7143361   3.026   5.316   1.295 -0.1617 -0.0553 -0.0478
  196MOL    C7243362   3.230   5.210   1.241  0.1041 -0.2304 -0.4617
  196MOL    H7343363   2.920   5.407   0.932  0.7408 -0.8722 -0.8516
  196MOL    H7443364   2.927   5.454   1.093  1.2090  1.0501  0.6799
  196MOL    H7543365   3.051   5.187   1.008 -1.9415 -0.3754  0.2323
  196MOL    H7643366   3.218   5.129   1.312 -2.0031  0.5388  0.1215
  196MOL    H7743367   3.273   5.166   1.151 -0.9273  0.3597 -1.2693
  196MOL    H7843368   3.299   5.283   1.282  0.0422  0.0295 -0.8096
  196MOL    C7943369   3.176   5.368   0.976 -0.2912  0.2674  0.6117
  196MOL    C8043370   3.178   5.354   0.824  0.3338  0.0871 -0.4860
  196MOL    C8143371   3.227   5.216   0.780 -0.0750  0.3282 -0.2340
  196MOL    O8243372   3.329   5.177   0.840 -0.3867 -0.0395  0.7204
  196MOL    C8343373   3.172   5.152   0.647  0.0946 -0.7125  0.0338
  196MOL    H8443374   3.273   5.340   1.017  0.2608 -0.7044 -1.3003
  196MOL    H8543375   3.158   5.470   1.011  0.1258  0.3566  0.5649
  196MOL    H8643376   3.077   5.362   0.782  0.7087  1.4358 -1.1594
  196MOL    H8743377   3.211   5.225   0.576  1.0677  1.1789  2.4069
  196MOL    H8843378   3.064   5.140   0.646 -0.1660  1.3561  0.6122
  196MOL    H8943379   3.220   5.055   0.636  0.6498 -0.2595 -1.7132
  196MOL    C9043380   3.260   5.460   0.749  0.5337 -0.8674  0.9433
  196MOL    C9143381   3.186   5.588   0.702  0.1515 -0.0790 -0.2016
  196MOL    C9243382   3.126   5.672   0.813  0.0521 -0.4100 -0.0135
  196MOL    O9343383   3.186   5.680   0.927  0.0062  0.5455  0.0757
  196MOL    C9443384   2.994   5.734   0.792  0.6903  0.1774  0.3111
  196MOL    H9543385   3.327   5.501   0.824  1.1345 -2.6539  1.4082
  196MOL    H9643386   3.313   5.412   0.666  1.1453  0.6293  0.4648
  196MOL    H9743387   3.103   5.558   0.639 -1.1164  1.5630  0.6309
  196MOL    H9843388   2.990   5.841   0.770  0.3542  0.6376  2.5316
  196MOL    H9943389   2.943   5.688   0.707 -1.9733  0.5592  1.6494
  196MOL   H10043390   2.930   5.725   0.880  0.5819  1.4547  0.3777
  196MOL   C10143391   3.279   5.675   0.617  0.3109  0.6440 -0.1396
  196MOL   C10243392   3.402   5.756   0.668 -0.3537 -0.4592  0.2689
  196MOL   C10343393   3.368   5.886   0.738  0.8722  0.0378  0.5689
  196MOL   O10443394   3.284   5.958   0.689  0.3783 -0.1850 -0.4085
  196MOL   C10543395   3.433   5.926   0.862  0.0946  0.1024 -0.5559
  196MOL   H10643396   3.316   5.614   0.534  0.3128 -1.1551  1.1591
  196MOL   H10743397   3.210   5.745   0.571  0.0017  0.7432  0.4668
  196MOL   H10843398   3.449   5.684   0.735 -1.0042 -2.0935 -0.9897
  196MOL   H10943399   3.538   5.928   0.834 -0.0046  0.6798 -0.8797
  196MOL   H11043400   3.387   6.018   0.898 -2.7005 -0.3771 -2.7862
  196MOL   H11143401   3.432   5.850   0.941  0.7019  0.2453 -0.4068
  196MOL   C11243402   3.500   5.794   0.548 -0.8463 -0.2042  0.7960
  196MOL   C11343403   3.612   5.703   0.530 -0.3006  0.1031  0.0867
  196MOL   C11443404   3.562   5.572   0.459 -0.0302 -0.0571 -0.4424
  196MOL   O11543405   3.553   5.467   0.520 -0.6085 -0.0450 -0.1764
  196MOL   C11643406   3.521   5.591   0.317 -0.1250  0.7342  0.2501
  196MOL   H11743407   3.546   5.890   0.570 -1.9951  0.6576 -0.4701
  196MOL   H11843408   3.447   5.815   0.455  0.1133  0.0752  0.3038
  196MOL   H11943409   3.671   5.750   0.451 -0.8875 -0.0041 -0.4210
  196MOL   H12043410   3.569   5.678   0.271  0.2670 -0.2297 -1.1623
  196MOL   H12143411   3.554   5.512   0.250  0.0759  0.3812  0.7646
  196MOL   H12243412   3.413   5.600   0.315 -0.1127  1.4854  1.9565
  196MOL   C12343413   3.694   5.674   0.665 -0.5435  0.0491 -0.1800
  196MOL   C12443414   3.827   5.610   0.640 -0.4122  0.3646 -0.7420
  196MOL   C12543415   3.889   5.554   0.765  0.2128  0.8635  0.7328
  196MOL   O12643416   3.843   5.579   0.877 -0.5121  0.4589 -0.1747
  196MOL   C12743417   4.014   5.465   0.753  0.8350  0.2526 -0.1650
  196MOL   H12843418   3.631   5.608   0.725 -2.7009  2.8926  0.7641
  196MOL   H12943419   3.713   5.759   0.731 -0.6587 -1.2532  1.5870
  196MOL   H13043420   3.808   5.520   0.581  1.0111 -0.6428  0.3008
  196MOL   H13143421   3.996   5.361   0.782 -0.8098 -0.1150 -2.3714
  196MOL   H13243422   4.087   5.497   0.828  0.7764  2.4215 -0.9993
  196MOL   H13343423   4.052   5.452   0.652  2.6963  0.1268  0.5318
  196MOL   C13443424   3.929   5.708   0.570  0.6883  0.1634  0.3369
  196MOL   C13543425   4.014   5.653   0.460 -1.1287  0.2915 -0.1681
  196MOL   C13643426   3.928   5.585   0.347  0.0762 -0.1523 -1.0284
  196MOL   O13743427   3.852   5.654   0.277  0.3120  0.6505 -0.0660
  196MOL   C13843428   3.948   5.439   0.313 -0.1162 -0.1662 -0.3088
  196MOL   H13943429   4.004   5.741   0.642 -0.1667 -0.0479  1.3383
  196MOL   H14043430   3.872   5.795   0.539  0.2175 -0.2561  0.0121
  196MOL   H14143431   4.078   5.577   0.505  1.8817  2.6622 -0.2949
  196MOL   H14243432   4.049   5.423   0.275 -0.0633  1.0531 -0.6994
  196MOL   H14343433   3.881   5.394   0.240 -1.0282  0.3495  0.2016
  196MOL   H14443434   3.928   5.383   0.404 -2.0886 -1.3379 -1.4305
  196MOL   C14543435   4.115   5.759   0.400 -0.2190 -0.1543  0.1253
  196MOL   C14643436   4.265   5.743   0.424 -0.1642 -0.5938 -0.0606
  196MOL   C14743437   4.331   5.612   0.369  0.0677  0.5501 -0.0793
  196MOL   O14843438   4.286   5.552   0.267  0.0058  0.1527  0.1408
  196MOL   C14943439   4.464   5.558   0.431  1.0873 -0.2178 -0.2131
  196MOL   H15043440   4.082   5.859   0.425 -0.4578 -0.0413 -0.6307
  196MOL   H15143441   4.098   5.761   0.293  2.0577 -0.9270 -0.2773
  196MOL   H15243442   4.274   5.746   0.533  0.1854  0.5530 -0.1086
  196MOL   H15343443   4.521   5.644   0.466  0.4005  2.0790 -4.4167
  196MOL   H15443444   4.460   5.484   0.511 -0.1838 -0.4150 -0.4494
  196MOL   H15543445   4.530   5.520   0.353  0.1632 -0.8807 -0.6755
  196MOL   C15643446   4.341   5.869   0.372 -0.0493 -0.2442 -0.1705
  196MOL   C15743447   4.343   5.881   0.217 -0.2458  0.0415 -0.4117
  196MOL   C15843448   4.461   5.796   0.154 -0.2404 -0.1912 -0.1363
  196MOL   O15943449   4.567   5.775   0.207  0.0650  0.6083  0.3801
  196MOL   C16043450   4.444   5.750   0.008  0.3375  0.6789  0.6067
  196MOL   H16143451   4.311   5.961   0.421 -0.1999  2.0241 -4.2966
  196MOL   H16243452   4.440   5.854   0.416 -1.1919 -2.9763  1.6490
  196MOL   H16343453   4.255   5.848   0.163 -0.9744  3.8518 -1.7045
  196MOL   H16443454   4.404   5.648   0.006  1.2471  0.2428  3.1011
  196MOL   H16543455   4.544   5.745   7.823  0.6437  0.0124  1.3846
  196MOL   H16643456   4.381   5.821   7.811  2.0895  0.7190 -1.4118
  196MOL   C16743457   4.369   6.020   0.176  0.3048 -0.4910 -0.4178
  196MOL   C16843458   4.281   6.133   0.227 -0.8203 -0.1052  0.3023
  196MOL   C16943459   4.134   6.109   0.241 -0.5291 -0.4357  0.8631
  196MOL   O17043460   4.085   6.124   0.351 -0.5985  0.2780  0.0895
  196MOL   C17143461   4.053   6.061   0.118 -0.2894 -0.7521  0.4860
  196MOL   H17243462   4.470   6.051   0.200  0.8523 -0.4551 -2.5909
  196MOL   H17343463   4.358   6.019   0.067 -1.7003 -1.2756 -0.2389
  196MOL   H17443464   4.310   6.159   0.329 -0.7045  2.9260 -0.4346
  196MOL   H17543465   3.989   5.973   0.132 -0.3871 -0.9760 -1.3220
  196MOL   H17643466   4.121   6.044   0.034 -0.1283 -1.5389  0.7644
  196MOL   H17743467   3.992   6.145   0.087 -1.4362 -1.4613  0.7785
  196MOL   C17843468   4.309   6.263   0.139 -0.3253  0.5648  0.2756
  196MOL   C17943469   4.457   6.323   0.148 -0.1567  0.4509 -0.3044
  196MOL   C18043470   4.482   6.377   0.292  0.7970 -0.1096  0.2222
  196MOL   O18143471   4.432   6.480   0.338  0.0281 -0.2854  0.1785
  196MOL   C18243472   4.568   6.292   0.389 -0.5237 -0.0058  0.4662
  196MOL   H18343473   4.295   6.231   0.035 -0.7052 -1.7807  1.0019
  196MOL   H18443474   4.229   6.335   0.153  0.3236  1.1767  0.8217
  196MOL   H18543475   4.523   6.244   0.113 -2.0166 -0.6626 -1.4335
  196MOL   H18643476   4.666   6.263   0.351 -1.6299 -1.5325 -1.3235
  196MOL   H18743477   4.512   6.200   0.406 -0.2456 -0.1280  0.7216
  196MOL   H18843478   4.560   6.335   0.489 -3.0569  0.1391  0.2231
  196MOL   C18943479   4.479   6.429   0.035 -0.0641  0.0158  0.0670
  196MOL   C19043480   4.615   6.489   0.021  0.2155  0.3043 -0.1279
  196MOL   C19143481   4.715   6.373   7.841 -0.1022  0.1515 -0.6538
  196MOL   O19243482   4.716   6.329   7.726  0.4017 -0.3164 -0.1374
  196MOL   C19343483   4.810   6.319   0.095  0.0778  0.4886  0.4348
  196MOL   H19443484   4.454   6.382   7.797 -0.1579 -0.2232  0.2084
  196MOL   H19543485   4.407   6.510   0.044 -1.2586 -1.1425  1.1369
  196MOL   H19643486   4.647   6.524   0.119  1.0854 -2.6296  0.7082
  196MOL   H19743487   4.755   6.254   0.163 -1.4789 -0.1810 -1.4196
  196MOL   H19843488   4.893   6.264   0.052  0.2537  1.0406  0.0639
  196MOL   H19943489   4.848   6.403   0.153 -0.2292  1.3271 -0.5592
  196MOL   C20043490   4.619   6.609   7.780 -0.0267 -0.4580  0.8062
  196MOL   C20143491   4.588   6.749   7.852 -0.0962  0.0071 -0.2248
  196MOL   C20243492   4.447   6.770   0.043 -0.3927  0.4482 -0.5135
  196MOL   O20343493   4.365   6.798   7.815 -0.2280  0.4942 -0.1029
  196MOL   C20443494   4.414   6.760   0.197  0.4410 -0.9160 -0.2397
  196MOL   H20543495   4.717   6.609   7.734 -0.1987 -2.6441  0.3669
  196MOL   H20643496   4.545   6.601   7.701  0.0650  1.2509  0.5361
  196MOL   H20743497   4.658   6.739   0.077 -0.5688 -2.4447 -0.0794
  196MOL   H20843498   4.370   6.663   0.218  0.5692 -0.7262  0.9606
  196MOL   H20943499   4.504   6.778   0.255  0.8583  0.3819 -1.2410
  196MOL   H21043500   4.332   6.827   0.221  1.3001  0.1767 -0.2769
  196MOL   C21143501   4.644   6.857   7.757  0.0553  0.9524 -0.0320
  196MOL   C21243502   4.661   6.999   7.816  0.3566  0.6805 -0.1351
  196MOL   C21343503   4.710   7.106   7.716 -0.4359 -0.0296  0.0901
  196MOL   O21443504   4.705   7.077   7.597  0.5297  0.2743 -0.2160
  196MOL   C21543505   4.758   7.243   7.765 -0.5173  0.0966 -0.5056
  196MOL   H21643506   4.729   6.816   7.702  2.0761  0.7012  3.1924
  196MOL   H21743507   4.578   6.872   7.671 -1.1272 -1.1492  0.4959
  196MOL   H21843508   4.736   6.988   0.037 -0.4971  0.0304  0.6069
  196MOL   H21943509   4.742   7.325   7.696  0.3804 -0.1964 -1.0656
  196MOL   H22043510   4.713   7.267   0.004  0.6542  1.4860 -0.2929
  196MOL   H22143511   4.865   7.237   7.786 -0.6294 -2.0067 -0.4102
  196MOL   H22243512   4.561   7.025   7.852 -0.3022 -0.8275 -0.8308
  197MOL     C143513   7.242   2.476   1.217 -0.2084  0.3149 -0.1631
  197MOL     C243514   7.094   2.430   1.217  0.0984 -0.1053  0.4401
  197MOL     C343515   7.048   2.366   1.085 -0.0831  0.0068  0.1729
  197MOL     O443516   7.031   2.243   1.071 -0.0523  0.3926  0.5974
  197MOL     C543517   7.013   2.461   0.964 -0.1849 -0.2245  0.1997
  197MOL     H643518   7.254   2.564   1.280 -0.6295 -0.5465  1.1294
  197MOL     H743519   7.266   2.508   1.116 -0.9493  0.2581 -0.3591
  197MOL     H843520   7.033   2.519   1.232  1.6621  0.8035  1.5697
  197MOL     H943521   6.976   2.559   0.994  0.6527 -0.0615  0.7082
  197MOL    H1043522   7.103   2.477   0.906 -2.1723 -0.1401 -2.9820
  197MOL    H1143523   6.930   2.419   0.907  0.1990 -1.8252  0.7956
  197MOL    H1243524   7.312   2.399   1.250 -0.9301 -0.7999 -1.1636
  197MOL    C1343525   7.064   2.338   1.337 -0.1550  0.0003 -0.0731
  197MOL    C1443526   6.915   2.290   1.350  0.0130  0.2070 -0.1976
  197MOL    C1543527   6.817   2.405   1.396 -0.0175 -0.4138 -0.4720
  197MOL    O1643528   6.816   2.438   1.514 -0.5320  0.3597 -0.6399
  197MOL    C1743529   6.729   2.473   1.296  0.2590 -0.1074  0.1734
  197MOL    H1843530   7.134   2.254   1.339 -1.5625 -1.1961 -0.5109
  197MOL    H1943531   7.086   2.382   1.434  0.8786 -1.1356  0.2333
  197MOL    H2043532   6.878   2.249   1.256 -0.5648 -0.4298  0.3067
  197MOL    H2143533   6.728   2.581   1.288 -1.2748 -0.1140  0.1548
  197MOL    H2243534   6.771   2.444   1.200 -0.1181 -0.3248  0.0717
  197MOL    H2343535   6.627   2.435   1.291  1.5761 -3.8082 -0.8325
  197MOL    C2443536   6.914   2.174   1.452  0.3592 -0.1516  0.0553
  197MOL    C2543537   6.780   2.102   1.460  0.3705  0.0978 -0.2802
  197MOL    C2643538   6.750   2.024   1.334 -0.2773 -0.4136 -0.4747
  197MOL    O2743539   6.638   2.034   1.278 -0.7178  0.0942 -0.1562
  197MOL    C2843540   6.861   1.942   1.271  0.3192 -0.3500 -0.1396
  197MOL    H2943541   6.995   2.102   1.441  0.7308  0.4802 -1.5184
  197MOL    H3043542   6.929   2.220   1.549  2.7608  0.6956 -0.6810
  197MOL    H3143543   6.708   2.183   1.462  0.5600  0.3002 -1.3746
  197MOL    H3243544   6.934   1.889   1.332  0.4541  0.0936  0.0830
  197MOL    H3343545   6.816   1.878   1.195  0.3371  1.4842 -1.7363
  197MOL    H3443546   6.917   2.009   1.205 -0.0186  1.3497  1.2666
  197MOL    C3543547   6.771   2.037   1.603  0.4268  0.0812 -0.0948
  197MOL    C3643548   6.649   1.953   1.632 -0.8810  0.3210  0.2160
  197MOL    C3743549   6.670   1.865   1.751  0.8674 -0.2422 -0.1217
  197MOL    O3843550   6.647   1.904   1.861 -0.0193 -0.2965 -0.2287
  197MOL    C3943551   6.762   1.748   1.740  0.1959 -0.3441  0.0932
  197MOL    H4043552   6.776   2.115   1.679  0.8385  1.0889 -1.1491
  197MOL    H4143553   6.851   1.964   1.617 -3.0708 -4.0593 -0.8092
  197MOL    H4243554   6.637   1.887   1.546 -1.5146  0.2753  0.3388
  197MOL    H4343555   6.841   1.756   1.666 -0.8905 -1.4665 -1.2424
  197MOL    H4443556   6.701   1.663   1.707 -1.1760  0.9713 -0.8317
  197MOL    H4543557   6.803   1.713   1.834  1.0467  2.1818  0.6904
  197MOL    C4643558   6.518   2.039   1.638  0.3026  0.0511 -0.3846
  197MOL    C4743559   6.378   1.969   1.663 -0.6158  0.2771 -0.1792
  197MOL    C4843560   6.269   2.067   1.709  0.1861  0.0380 -1.1751
  197MOL    O4943561   6.207   2.046   1.812  0.2153  0.3178 -0.3454
  197MOL    C5043562   6.263   2.189   1.626 -0.5111  0.2884  0.6962
  197MOL    H5143563   6.516   2.082   1.538  1.7416 -0.9660 -0.8635
  197MOL    H5243564   6.539   2.121   1.706  0.3005  0.2258 -0.5934
  197MOL    H5343565   6.412   1.903   1.743 -0.9880 -0.7380 -0.8477
  197MOL    H5443566   6.317   2.189   1.532 -2.9686 -2.2231 -0.7852
  197MOL    H5543567   6.158   2.197   1.599 -0.1123  0.9673 -0.6838
  197MOL    H5643568   6.286   2.280   1.682  0.2842 -0.4073  1.5142
  197MOL    C5743569   6.328   1.887   1.544  0.4519 -0.4388  0.0592
  197MOL    C5843570   6.357   1.737   1.534 -0.1904  0.1414  1.0429
  197MOL    C5943571   6.323   1.670   1.660 -0.7235 -0.6069 -0.3528
  197MOL    O6043572   6.402   1.606   1.720 -0.3310 -0.5722  0.0615
  197MOL    C6143573   6.183   1.688   1.707 -0.4071 -0.3451 -0.2417
  197MOL    H6243574   6.363   1.943   1.457 -0.9050  2.6274  1.3875
  197MOL    H6343575   6.221   1.910   1.545  0.3075 -1.0656 -0.5522
  197MOL    H6443576   6.459   1.709   1.507 -0.4614  1.0291 -1.0423
  197MOL    H6543577   6.173   1.779   1.766  0.4404  0.1883 -0.8969
  197MOL    H6643578   6.112   1.686   1.624  0.8308 -0.5646 -1.3184
  197MOL    H6743579   6.160   1.610   1.779 -2.5523  0.3241 -0.1471
  197MOL    C6843580   6.274   1.661   1.422 -0.1594 -0.6612 -0.5987
  197MOL    C6943581   6.321   1.687   1.277 -0.6053  0.5834 -0.6227
  197MOL    C7043582   6.228   1.788   1.208 -0.3018  0.2117  0.8234
  197MOL    O7143583   6.255   1.905   1.214 -0.0773 -0.3558  0.0479
  197MOL    C7243584   6.093   1.745   1.157 -0.2581 -0.5114  0.1435
  197MOL    H7343585   6.287   1.556   1.447 -0.5337 -0.2587  1.4098
  197MOL    H7443586   6.168   1.686   1.428 -0.1967 -1.1948  1.1301
  197MOL    H7543587   6.424   1.724   1.275 -0.4081  0.0702 -0.2231
  197MOL    H7643588   6.022   1.825   1.175  0.9676  0.4670  0.6773
  197MOL    H7743589   6.082   1.739   1.049 -1.8894 -0.1845  0.2823
  197MOL    H7843590   6.055   1.660   1.214  0.5173 -1.3879 -0.6100
  197MOL    C7943591   6.337   1.555   1.196 -0.4651  0.0416  0.3905
  197MOL    C8043592   6.428   1.452   1.259 -0.4731  0.3905 -0.2913
  197MOL    C8143593   6.568   1.499   1.300 -0.4760 -0.6109 -0.1153
  197MOL    O8243594   6.654   1.538   1.220  0.6981  0.0932 -0.1240
  197MOL    C8343595   6.607   1.504   1.442 -0.5925  0.6347  0.1796
  197MOL    H8443596   6.376   1.585   1.099  1.1230  0.1069  1.0324
  197MOL    H8543597   6.241   1.509   1.172  0.7923 -2.0319 -0.8785
  197MOL    H8643598   6.387   1.400   1.345 -0.3987  1.5569  0.4598
  197MOL    H8743599   6.681   1.583   1.458 -0.7848  0.9094 -0.2600
  197MOL    H8843600   6.630   1.402   1.473 -0.5963  0.5715 -0.0204
  197MOL    H8943601   6.519   1.524   1.502 -0.7246 -1.9276  0.8960
  197MOL    C9043602   6.443   1.339   1.152 -0.0865  0.7576 -0.5124
  197MOL    C9143603   6.502   1.210   1.219 -0.4793 -0.2704  0.3665
  197MOL    C9243604   6.409   1.109   1.286  0.3921  0.1467  0.1467
  197MOL    O9343605   6.323   1.057   1.218 -0.3212 -0.0980 -0.3342
  197MOL    C9443606   6.415   1.101   1.439 -0.3289 -0.2927 -0.6964
  197MOL    H9543607   6.358   1.318   1.088 -0.1263 -0.1421 -0.1723
  197MOL    H9643608   6.517   1.375   1.081  1.7821 -1.5488  0.1879
  197MOL    H9743609   6.572   1.240   1.298 -0.3868  0.5347 -0.0118
  197MOL    H9843610   6.378   1.004   1.471 -2.1130  0.6658  0.2247
  197MOL    H9943611   6.510   1.123   1.486 -1.6192 -1.3568  2.5074
  197MOL   H10043612   6.350   1.178   1.481  0.8886 -0.1248  0.9253
  197MOL   C10143613   6.591   1.132   1.118 -0.1831 -0.4305  1.1724
  197MOL   C10243614   6.721   1.210   1.081  0.5474  0.2331 -0.0264
  197MOL   C10343615   6.736   1.236   0.934  0.3788 -0.4506  0.0239
  197MOL   O10443616   6.740   1.145   0.853  0.0172  0.1548  0.2874
  197MOL   C10543617   6.741   1.381   0.898  0.0921  0.1055 -0.0741
  197MOL   H10643618   6.615   1.028   1.144  0.1471 -0.1409  2.0358
  197MOL   H10743619   6.527   1.109   1.033  0.0378 -4.9492  2.0893
  197MOL   H10843620   6.716   1.305   1.133  1.9098 -0.7802  2.0288
  197MOL   H10943621   6.711   1.402   0.795  0.5569  1.5052  0.0772
  197MOL   H11043622   6.692   1.445   0.971 -1.2183  0.4139 -1.2002
  197MOL   H11143623   6.845   1.405   0.919  0.5736 -0.5031 -1.6528
  197MOL   C11243624   6.838   1.146   1.154  0.4622 -0.2935  0.0586
  197MOL   C11343625   6.980   1.206   1.139 -0.4287  0.0391 -0.5631
  197MOL   C11443626   7.079   1.095   1.141  0.2898  0.4290 -0.1305
  197MOL   O11543627   7.087   1.019   1.235  0.0916  0.2137  0.3843
  197MOL   C11643628   7.164   1.082   1.014  0.4823 -0.0265  0.2006
  197MOL   H11743629   6.840   1.042   1.122  0.3639 -1.0013  2.3146
  197MOL   H11843630   6.806   1.153   1.258  1.0808  1.4489  0.1531
  197MOL   H11943631   6.977   1.247   1.038  0.5043  0.8636 -0.2619
  197MOL   H12043632   7.156   1.171   0.953 -0.1383  0.1409  0.5199
  197MOL   H12143633   7.268   1.059   1.037 -0.1891 -2.3128  1.1252
  197MOL   H12243634   7.132   0.997   0.954  0.3578 -0.2426  0.5691
  197MOL   C12343635   7.008   1.321   1.239 -0.6062 -0.2012 -1.1243
  197MOL   C12443636   7.116   1.419   1.195  0.3296 -0.9599 -0.3685
  197MOL   C12543637   7.181   1.505   1.308 -0.2702  0.1568 -0.6990
  197MOL   O12643638   7.301   1.500   1.332 -0.1297  0.5647 -0.0907
  197MOL   C12743639   7.090   1.600   1.382  0.2453 -0.6925 -0.3188
  197MOL   H12843640   7.024   1.278   1.338 -1.0823  0.1142 -0.9048
  197MOL   H12943641   6.916   1.379   1.249 -0.6885 -0.5620  0.3496
  197MOL   H13043642   7.192   1.352   1.154 -0.9345 -2.1120 -0.8850
  197MOL   H13143643   7.145   1.693   1.397  0.1022 -0.5001 -0.9777
  197MOL   H13243644   7.077   1.547   1.476  0.2693 -2.4380 -1.2649
  197MOL   H13343645   6.995   1.610   1.331  0.3110  2.8687  0.1833
  197MOL   C13443646   7.070   1.517   1.083  0.3571 -0.3415 -0.0496
  197MOL   C13543647   7.174   1.617   1.020 -0.7934  0.1721  0.0108
  197MOL   C13643648   7.253   1.546   0.913  0.5041  0.2718  0.6340
  197MOL   O13743649   7.195   1.511   0.811 -0.0421  0.2456 -0.6425
  197MOL   C13843650   7.399   1.506   0.926 -0.5177 -0.5531  0.3295
  197MOL   H13943651   6.981   1.569   1.120  1.3555  1.0782  0.3938
  197MOL   H14043652   7.037   1.457   0.998  0.7198  1.3091 -1.3805
  197MOL   H14143653   7.249   1.662   1.085  1.3287 -1.0307 -1.5509
  197MOL   H14243654   7.414   1.404   0.961  0.9507 -0.7944 -0.9476
  197MOL   H14343655   7.451   1.579   0.989 -2.2942  0.4819  0.6246
  197MOL   H14443656   7.446   1.517   0.829  0.7022 -1.8363  0.7581
  197MOL   C14543657   7.085   1.736   0.966  0.2348  0.6538 -0.0997
  197MOL   C14643658   7.169   1.855   0.909  0.3250 -0.2045  0.7421
  197MOL   C14743659   7.070   1.936   0.827 -0.5778 -0.4879  1.0725
  197MOL   O14843660   6.948   1.964   0.844 -0.1847 -0.8225  0.3352
  197MOL   C14943661   7.135   1.984   0.699  0.4346  0.2772 -0.2522
  197MOL   H15043662   7.029   1.775   1.051 -0.4451 -0.7758  0.1213
  197MOL   H15143663   7.015   1.694   0.894  0.4272 -0.2052  0.2044
  197MOL   H15243664   7.244   1.809   0.846  0.0013 -0.8368  0.8180
  197MOL   H15343665   7.061   1.993   0.620 -1.5601 -1.3296  1.3629
  197MOL   H15443666   7.190   2.075   0.721 -0.7562  0.6202  1.3985
  197MOL   H15543667   7.205   1.909   0.662  0.5044 -0.9894  2.3223
  197MOL   C15643668   7.231   1.930   1.026 -0.5244 -0.1118 -0.2380
  197MOL   C15743669   7.339   2.036   0.984  0.2944 -0.0176  0.3907
  197MOL   C15843670   7.466   1.981   0.918 -0.6994 -0.2005 -0.4305
  197MOL   O15943671   7.498   1.859   0.924 -0.1417 -1.0192 -0.1939
  197MOL   C16043672   7.559   2.087   0.862  0.1867 -0.9214  0.2782
  197MOL   H16143673   7.154   1.980   1.085  2.5162  1.9244  2.1902
  197MOL   H16243674   7.286   1.855   1.084  0.8451  1.3584  0.4135
  197MOL   H16343675   7.288   2.094   0.907 -2.0706 -2.0795  0.3303
  197MOL   H16443676   7.607   2.046   0.773 -1.5132  1.0832 -1.6120
  197MOL   H16543677   7.639   2.098   0.935 -0.6913 -1.5580  1.3606
  197MOL   H16643678   7.511   2.181   0.836  2.4812 -0.1608 -1.3311
  197MOL   C16743679   7.372   2.138   1.110 -0.0387  0.0807  0.1213
  197MOL   C16843680   7.467   2.073   1.213 -0.0638  0.0362  0.1042
  197MOL   C16943681   7.405   1.963   1.302  0.0402 -0.4780  1.1273
  197MOL   O17043682   7.308   1.991   1.372  0.4390  0.1293 -0.0274
  197MOL   C17143683   7.480   1.836   1.309 -0.3000  0.3708  0.2308
  197MOL   H17243684   7.406   2.232   1.068  1.8351 -0.2754  0.8148
  197MOL   H17343685   7.279   2.168   1.159  1.1291  0.8047  1.9304
  197MOL   H17443686   7.548   2.021   1.162 -0.6296  1.1199 -1.9137
  197MOL   H17543687   7.555   1.831   1.231  0.1019 -1.2931  0.7015
  197MOL   H17643688   7.411   1.752   1.299 -0.8093  0.4160  2.8612
  197MOL   H17743689   7.522   1.837   1.410 -0.8987  1.2925  0.4861
  197MOL   C17843690   7.522   2.190   1.293 -0.3660  0.1079 -0.5094
  197MOL   C17943691   7.660   2.140   1.356  0.8478 -0.5990  0.1250
  197MOL   C18043692   7.686   2.241   1.474 -1.0476 -0.3003 -0.0233
  197MOL   O18143693   7.742   2.348   1.447 -0.2305  0.6500  0.5786
  197MOL   C18243694   7.609   2.217   1.607  0.1882  0.6789 -0.1335
  197MOL   H18343695   7.549   2.275   1.230 -4.0735  2.3637  0.8314
  197MOL   H18443696   7.457   2.230   1.370 -1.4269  0.3400 -1.5039
  197MOL   H18543697   7.640   2.044   1.402 -2.2761 -0.5064 -0.8782
  197MOL   H18643698   7.512   2.267   1.594 -0.3933 -0.1203  1.0812
  197MOL   H18743699   7.664   2.265   1.688  2.1981 -1.0750 -0.4243
  197MOL   H18843700   7.592   2.112   1.629 -3.0239  1.1693 -0.0450
  197MOL   C18943701   7.785   2.130   1.266  0.1117  0.5114 -0.2683
  197MOL   C19043702   0.052   2.047   1.313 -0.4999 -0.3690  0.0251
  197MOL   C19143703   0.024   1.897   1.337  0.2428 -0.3868 -0.3047
  197MOL   O19243704   7.785   1.834   1.296 -0.4290  0.0325 -0.2739
  197MOL   C19343705   0.130   1.824   1.428  0.5243 -0.3004 -0.2268
  197MOL   H19443706   7.752   2.093   1.169  2.5281 -1.5151 -0.3498
  197MOL   H19543707   7.833   2.226   1.246  0.0911  0.6633  0.4084
  197MOL   H19643708   0.078   2.083   1.413 -2.5584 -1.8495  1.1409
  197MOL   H19743709   0.134   1.875   1.524 -0.7442 -1.5793  0.5220
  197MOL   H19843710   0.091   1.726   1.457  3.1072 -1.4492 -0.4332
  197MOL   H19943711   0.230   1.816   1.384  1.0056 -2.4911  1.1687
  197MOL   C20043712   0.166   2.062   1.201  0.1019  0.2894 -0.0291
  197MOL   C20143713   0.291   2.142   1.238 -0.0174  0.6500 -0.1237
  197MOL   C20243714   0.365   2.082   1.356 -0.1503 -1.0956 -0.4567
  197MOL   O20343715   0.330   2.086   1.477 -0.3730  0.3083  0.8030
  197MOL   C20443716   0.497   2.006   1.319  0.2677  0.0227 -0.2452
  197MOL   H20543717   0.203   1.965   1.168  2.8084  2.1303 -2.6894
  197MOL   H20643718   0.119   2.101   1.111 -0.4746 -1.2005 -0.3819
  197MOL   H20743719   0.357   2.124   1.153 -1.3447  0.0496 -1.0485
  197MOL   H20843720   0.587   2.060   1.288  0.1273 -0.2125 -1.0713
  197MOL   H20943721   0.537   1.942   1.398  0.5721  0.6576  0.1253
  197MOL   H21043722   0.490   1.960   1.221  1.5519 -0.5267 -0.0874
  197MOL   C21143723   0.253   2.289   1.263  0.2050 -0.4014  0.0108
  197MOL   C21243724   0.368   2.387   1.276 -0.2789 -0.3211 -0.3567
  197MOL   C21343725   0.478   2.366   1.173  0.2692  0.3463 -0.4366
  197MOL   O21443726   0.448   2.327   1.061  0.1417  0.1211 -0.0824
  197MOL   C21543727   0.620   2.387   1.222  0.0998 -0.1347  0.6591
  197MOL   H21643728   0.197   2.328   1.178  3.1791  1.5202 -1.1625
  197MOL   H21743729   0.182   2.294   1.346 -0.7982 -2.4696 -0.6860
  197MOL   H21843730   0.404   2.389   1.379 -1.0434  2.3759 -0.1157
  197MOL   H21943731   0.624   2.483   1.274 -2.0040  0.1153  0.4218
  197MOL   H22043732   0.665   2.303   1.273 -0.2628  0.2338  1.5946
  197MOL   H22143733   0.671   2.397   1.126 -1.1574 -0.9794 -0.1199
  197MOL   H22243734   0.328   2.486   1.253  1.1672  0.8059  1.7614
  198MOL     C143735   4.693   1.748   6.670 -0.0311  0.5759 -0.1415
  198MOL     C243736   4.593   1.850   6.731 -0.0462 -0.0315 -0.1617
  198MOL     C343737   4.663   1.932   6.835  0.0735 -0.0566 -0.5319
  198MOL     O443738   4.716   2.043   6.807  0.5161  0.4085 -0.3994
  198MOL     C543739   4.667   1.865   6.973 -0.6667  0.4068  0.3416
  198MOL     H643740   4.673   1.645   6.700  1.3964  0.1212 -0.7227
  198MOL     H743741   4.794   1.779   6.697 -0.8156  1.1097  2.2973
  198MOL     H843742   4.510   1.801   6.782 -0.0450  0.9249  0.7691
  198MOL     H943743   4.634   1.762   6.960 -1.2878  0.6807 -0.2565
  198MOL    H1043744   4.774   1.869   6.996 -0.6817  2.9902  0.0436
  198MOL    H1143745   4.617   1.914   7.056 -1.8208  0.3548 -0.3176
  198MOL    H1243746   4.681   1.763   6.562  0.7739 -0.1597 -0.3376
  198MOL    C1343747   4.533   1.947   6.626  0.0120  0.1256 -0.0574
  198MOL    C1443748   4.407   2.032   6.666  0.3442  0.2394  0.0378
  198MOL    C1543749   4.284   1.937   6.665 -0.2427 -0.9743 -0.0633
  198MOL    O1643750   4.225   1.910   6.559 -0.4000  0.0463  0.0849
  198MOL    C1743751   4.251   1.874   6.793  0.5744  0.3042 -0.2008
  198MOL    H1843752   4.608   2.013   6.583  1.3826 -0.8630  0.7683
  198MOL    H1943753   4.498   1.884   6.544 -1.5264  0.7251  0.1333
  198MOL    H2043754   4.423   2.081   6.762  2.2728 -1.1854  0.4853
  198MOL    H2143755   4.324   1.894   6.872 -0.0267  0.7704  0.2444
  198MOL    H2243756   4.153   1.885   6.840  0.9483  1.1178  0.4190
  198MOL    H2343757   4.252   1.767   6.776  1.7244  0.4020 -0.8226
  198MOL    C2443758   4.388   2.148   6.566 -0.1264 -0.2787  0.9512
  198MOL    C2543759   4.276   2.252   6.580  0.8588 -0.1631  0.3433
  198MOL    C2643760   4.272   2.305   6.733  0.0992 -0.2773  0.0190
  198MOL    O2743761   4.190   2.259   6.813 -0.1477  0.0146  0.7464
  198MOL    C2843762   4.372   2.410   6.775 -0.0716  0.3092 -0.9994
  198MOL    H2943763   4.476   2.212   6.572 -0.0248 -0.4554  1.3773
  198MOL    H3043764   4.370   2.105   6.467  0.4538  0.6448  0.4284
  198MOL    H3143765   4.188   2.189   6.566  0.5452  0.4072 -0.2686
  198MOL    H3243766   4.419   2.439   6.681  1.5468 -1.3083 -0.7257
  198MOL    H3343767   4.321   2.499   6.813 -1.8904 -1.2229  0.2867
  198MOL    H3443768   4.443   2.362   6.843  0.3508  1.1868 -0.8247
  198MOL    C3543769   4.282   2.363   6.472 -0.0962  0.6210 -0.2431
  198MOL    C3643770   4.155   2.430   6.415 -0.1352  0.5994  0.1275
  198MOL    C3743771   4.071   2.490   6.529 -0.0234 -0.0808  0.6184
  198MOL    O3843772   4.087   2.606   6.572  0.3542  0.2416  0.1635
  198MOL    C3943773   3.961   2.398   6.580  0.8923  0.5433  0.3653
  198MOL    H4043774   4.327   2.317   6.384 -0.7839  1.9168 -1.2779
  198MOL    H4143775   4.359   2.434   6.502  1.2033 -0.8181 -0.0387
  198MOL    H4243776   4.087   2.355   6.374 -1.0692  2.0861 -1.1117
  198MOL    H4343777   4.003   2.310   6.629 -3.6203 -0.9881  1.7499
  198MOL    H4443778   3.901   2.350   6.503  0.2017 -1.0414  1.8482
  198MOL    H4543779   3.914   2.458   6.657 -1.8207 -2.0809  0.8387
  198MOL    C4643780   4.180   2.533   6.297 -0.4678  0.2861 -0.2905
  198MOL    C4743781   4.271   2.500   6.176  0.4346  0.2826 -0.3209
  198MOL    C4843782   4.218   2.383   6.087 -0.1047  0.3858  0.2934
  198MOL    O4943783   4.104   2.391   6.038 -0.3868  0.4331 -0.9011
  198MOL    C5043784   4.318   2.271   6.051 -0.0156 -0.1060  0.4586
  198MOL    H5143785   4.216   2.624   6.345  0.6855 -0.5367  0.4329
  198MOL    H5243786   4.084   2.571   6.263 -0.1992 -0.2340 -1.6704
  198MOL    H5343787   4.373   2.487   6.213  0.8527  1.2474 -1.1256
  198MOL    H5443788   4.415   2.318   6.036  0.4710 -0.7909  1.3983
  198MOL    H5543789   4.329   2.207   6.139 -0.1192 -0.6967  0.0452
  198MOL    H5643790   4.293   2.213   5.962 -0.7860 -0.6440  1.0133
  198MOL    C5743791   4.297   2.624   6.083 -0.2528 -0.4987  0.1245
  198MOL    C5843792   4.179   2.687   5.999 -0.0201  0.4439  0.3688
  198MOL    C5943793   4.083   2.767   6.095  0.5544  0.7912  0.2514
  198MOL    O6043794   4.118   2.837   6.190  0.2361  0.5859  0.6857
  198MOL    C6143795   3.930   2.751   6.064  0.0644  0.5043  0.3320
  198MOL    H6243796   4.371   2.599   6.007  1.3774 -0.7170  1.7588
  198MOL    H6343797   4.348   2.704   6.137  2.0320 -0.3716 -2.1058
  198MOL    H6443798   4.123   2.607   5.951 -0.5001 -0.6555  2.6727
  198MOL    H6543799   3.868   2.797   6.141  0.1668  1.2910 -0.0470
  198MOL    H6643800   3.926   2.794   5.963  1.8653 -0.2063 -0.0511
  198MOL    H6743801   3.908   2.644   6.059 -0.8888  0.7627 -2.7953
  198MOL    C6843802   4.221   2.776   5.884 -0.2809  0.1404  0.1886
  198MOL    C6943803   4.296   2.720   5.765  0.5042 -1.0953 -0.9314
  198MOL    C7043804   4.361   2.830   5.679  0.1368  0.2216 -0.2969
  198MOL    O7143805   4.318   2.947   5.670 -0.4178  0.7402 -0.6189
  198MOL    C7243806   4.495   2.790   5.610  0.2027  0.4228  0.0815
  198MOL    H7343807   4.129   2.827   5.857 -0.0065 -0.6673 -2.3466
  198MOL    H7443808   4.278   2.857   5.929 -0.2521  1.9045 -2.9207
  198MOL    H7543809   4.388   2.680   5.808  1.2781  1.5231 -0.0708
  198MOL    H7643810   4.578   2.795   5.681  1.0296 -1.9362 -0.6476
  198MOL    H7743811   4.483   2.685   5.583 -0.0601  0.5622 -0.3543
  198MOL    H7843812   4.514   2.857   5.526  0.1677  0.3275 -0.0033
  198MOL    C7943813   4.212   2.622   5.674  0.5125 -0.4186 -0.6069
  198MOL    C8043814   4.285   2.510   5.596 -0.1469 -0.8639 -0.6601
  198MOL    C8143815   4.188   2.435   5.500 -0.0583  0.3315 -0.2767
  198MOL    O8243816   4.208   2.439   5.375 -0.3381  0.5190 -0.1541
  198MOL    C8343817   4.081   2.344   5.567  0.0419  0.0509  0.1323
  198MOL    H8443818   4.143   2.673   5.607  0.3323 -0.5748 -0.5439
  198MOL    H8543819   4.140   2.574   5.741  0.7014 -0.0653 -0.1467
  198MOL    H8643820   4.362   2.554   5.534  1.9060 -0.1720  2.2751
  198MOL    H8743821   3.995   2.326   5.502 -0.0743 -0.7257  0.4943
  198MOL    H8843822   4.051   2.366   5.669 -2.2421 -0.2307 -0.4442
  198MOL    H8943823   4.135   2.249   5.567  0.5057  0.3153  0.1742
  198MOL    C9043824   4.355   2.414   5.699 -0.8791  0.3749  1.5380
  198MOL    C9143825   4.455   2.314   5.633 -0.0083  0.1104  0.1284
  198MOL    C9243826   4.583   2.382   5.595 -0.3096 -0.0547  1.0267
  198MOL    O9343827   4.614   2.491   5.651 -0.0407 -0.1620  0.0051
  198MOL    C9443828   4.676   2.322   5.492  0.3506 -0.3044  0.0105
  198MOL    H9543829   4.401   2.470   5.780 -0.2726  1.2763  0.5832
  198MOL    H9643830   4.276   2.358   5.748 -0.7195  0.4447  1.8774
  198MOL    H9743831   4.409   2.280   5.540 -1.7629  1.7616  0.3667
  198MOL    H9843832   4.639   2.225   5.457 -2.5566  0.6205  0.3257
  198MOL    H9943833   4.684   2.380   5.400  0.6239  0.3838  0.4621
  198MOL   H10043834   4.773   2.297   5.534  1.7328  3.3125 -0.8218
  198MOL   C10143835   4.484   2.186   5.717 -0.0595  0.6505 -0.5274
  198MOL   C10243836   4.530   2.058   5.645  0.5747  0.1526  0.2080
  198MOL   C10343837   4.428   2.007   5.538  0.2639 -1.1245  0.2143
  198MOL   O10443838   4.309   2.015   5.555 -0.0544 -0.4014  0.0181
  198MOL   C10543839   4.481   1.962   5.405  0.6135  0.1932 -0.3243
  198MOL   H10643840   4.548   2.214   5.800  1.7126 -3.1662 -0.4952
  198MOL   H10743841   4.388   2.165   5.763  0.7548 -1.6713  0.1868
  198MOL   H10843842   4.626   2.080   5.598  0.1254  0.0284 -0.7969
  198MOL   H10943843   4.458   2.049   5.343 -0.5774  1.6553  2.0608
  198MOL   H11043844   4.587   1.938   5.412  1.4493  3.7347  0.2699
  198MOL   H11143845   4.427   1.873   5.375  0.6319  0.0153  0.1546
  198MOL   C11243846   4.549   1.939   5.743  0.7881 -0.5874  0.3151
  198MOL   C11343847   4.640   1.962   5.874 -0.0302  0.2150 -0.4152
  198MOL   C11443848   4.787   1.986   5.841  0.7409 -0.2354  0.0095
  198MOL   O11543849   4.874   1.900   5.832  0.1530  0.2841 -0.2412
  198MOL   C11643850   4.821   2.132   5.814 -0.0126 -0.2180  0.6567
  198MOL   H11743851   4.606   1.866   5.686 -1.2912 -1.3393 -0.8627
  198MOL   H11843852   4.455   1.890   5.768 -0.6760  0.8958 -2.0586
  198MOL   H11943853   4.597   2.048   5.925 -0.9349 -0.9678  0.8552
  198MOL   H12043854   4.775   2.194   5.890 -0.5355  2.3192 -1.6680
  198MOL   H12143855   4.928   2.147   5.830  0.1790  0.0695 -0.8872
  198MOL   H12243856   4.802   2.171   5.715  0.3610 -0.4978  0.4707
  198MOL   C12343857   4.628   1.842   5.976 -0.3818  0.0339  0.2614
  198MOL   C12443858   4.721   1.839   6.096  0.6549  0.6346  0.4383
  198MOL   C12543859   4.674   1.711   6.174  0.0431 -0.0002  0.5576
  198MOL   O12643860   4.575   1.711   6.243 -0.5080 -0.4971 -0.4315
  198MOL   C12743861   4.765   1.589   6.175 -0.5141 -0.8362  0.3223
  198MOL   H12843862   4.635   1.751   5.916 -1.2186  0.0802  0.0842
  198MOL   H12943863   4.524   1.843   6.009 -0.3182 -2.4220  0.6097
  198MOL   H13043864   4.825   1.827   6.066  0.5350  1.9867 -0.6066
  198MOL   H13143865   4.782   1.571   6.281  0.1749  0.6897  0.4779
  198MOL   H13243866   4.852   1.609   6.113  0.0308  0.7528  1.5530
  198MOL   H13343867   4.721   1.497   6.137 -2.0445  0.9330 -2.2887
  198MOL   C13443868   4.710   1.974   6.177 -0.1197  0.2730  0.8152
  198MOL   C13543869   4.810   1.989   6.295  0.3791 -0.0589  0.1198
  198MOL   C13643870   4.961   1.986   6.259 -0.2820 -0.0695 -0.5522
  198MOL   O13743871   5.005   2.042   6.162 -0.2616 -0.3373 -0.5859
  198MOL   C13843872   5.057   1.938   6.368 -0.2301  0.3274  0.0782
  198MOL   H13943873   4.608   2.000   6.206 -0.5705  0.6430 -1.0607
  198MOL   H14043874   4.744   2.052   6.109  1.5908 -2.1472 -1.2129
  198MOL   H14143875   4.810   1.894   6.348 -0.1258 -0.3567 -0.3962
  198MOL   H14243876   5.118   2.010   6.423  1.9526 -0.8857 -0.6990
  198MOL   H14343877   5.140   1.878   6.329 -0.8202  0.6984 -1.8268
  198MOL   H14443878   5.005   1.870   6.435 -2.4840  1.4033 -0.5525
  198MOL   C14543879   4.781   2.110   6.387 -0.3741  0.5238  0.3675
  198MOL   C14643880   4.840   2.249   6.346  0.1706 -0.1690 -0.3712
  198MOL   C14743881   4.782   2.310   6.215 -0.7001 -0.2896 -0.0231
  198MOL   O14843882   4.663   2.310   6.191  0.0616  0.4190  0.2109
  198MOL   C14943883   4.879   2.394   6.127  0.5207 -0.5700  0.8618
  198MOL   H15043884   4.814   2.085   6.488  1.6461 -2.0105 -0.8816
  198MOL   H15143885   4.674   2.128   6.398 -0.2797  0.4210  1.5300
  198MOL   H15243886   4.945   2.245   6.319  0.9308 -0.6205  2.5490
  198MOL   H15343887   4.965   2.340   6.089  1.4253  1.0417  0.5610
  198MOL   H15443888   4.830   2.427   6.036  3.9463  0.7114 -0.5802
  198MOL   H15543889   4.921   2.480   6.179  1.1918 -1.2998  1.5338
  198MOL   C15643890   4.819   2.353   6.465 -0.4183 -0.1623  0.1987
  198MOL   C15743891   4.948   2.443   6.503  0.4806  0.6063 -0.5408
  198MOL   C15843892   5.081   2.365   6.536  1.1035 -0.3986 -0.0863
  198MOL   O15943893   5.075   2.243   6.557  0.0479  0.1662  0.0928
  198MOL   C16043894   5.203   2.447   6.539  0.5010  0.3136  0.0437
  198MOL   H16143895   4.732   2.419   6.459 -1.5718 -1.3360  3.3377
  198MOL   H16243896   4.806   2.291   6.554  2.1182 -0.8358  0.1345
  198MOL   H16343897   4.968   2.513   6.423 -2.5188  0.4207 -1.4929
  198MOL   H16443898   5.193   2.510   6.627 -2.1999 -0.7148  0.5404
  198MOL   H16543899   5.215   2.497   6.443 -0.8391 -0.7043 -0.6718
  198MOL   H16643900   5.292   2.385   6.550  0.0223 -0.6192 -1.2359
  198MOL   C16743901   4.907   2.535   6.621  0.3662  0.7673  0.1851
  198MOL   C16843902   4.801   2.640   6.603 -0.0617 -0.8456 -0.0631
  198MOL   C16943903   4.847   2.731   6.481  0.2045  0.5083  0.0261
  198MOL   O17043904   4.928   2.825   6.490  0.9248 -0.0199  0.0351
  198MOL   C17143905   4.793   2.696   6.344 -1.4819 -0.3644 -0.9762
  198MOL   H17243906   4.862   2.461   6.688  1.5821  1.3035  1.6121
  198MOL   H17343907   4.990   2.577   6.678  0.7288 -2.1404  1.9151
  198MOL   H17443908   4.704   2.600   6.574  0.2679 -1.4088 -0.3912
  198MOL   H17543909   4.748   2.597   6.340 -0.6919 -0.8079  0.5073
  198MOL   H17643910   4.876   2.698   6.273  0.2525 -0.6367  1.0040
  198MOL   H17743911   4.718   2.769   6.313 -0.8246  0.8801  0.2830
  198MOL   C17843912   4.787   2.721   6.731 -0.1735 -0.0578  0.7067
  198MOL   C17943913   4.687   2.836   6.742  0.1017 -0.0135  0.3017
  198MOL   C18043914   4.716   2.952   6.849  0.3205  0.0065  0.3159
  198MOL   O18143915   4.746   2.914   6.960 -0.1620 -0.6305 -0.4051
  198MOL   C18243916   4.698   3.092   6.804 -0.6514  0.4434  0.9492
  198MOL   H18343917   4.781   2.654   6.817 -2.8198 -2.2619 -1.0772
  198MOL   H18443918   4.880   2.774   6.748  0.2681 -0.3942 -0.6078
  198MOL   H18543919   4.687   2.888   6.646 -0.2459  0.5667  0.6109
  198MOL   H18643920   4.800   3.129   6.797 -0.5922  0.2908  1.0066
  198MOL   H18743921   4.650   3.148   6.884 -1.1690  2.9974 -1.0979
  198MOL   H18843922   4.640   3.100   6.712  1.2502 -0.2461 -0.3461
  198MOL   C18943923   4.546   2.774   6.759  0.1439  0.2986  0.6611
  198MOL   C19043924   4.440   2.854   6.681 -0.3489 -0.0327 -0.0042
  198MOL   C19143925   4.448   2.828   6.528 -0.3369  0.2845  0.3508
  198MOL   O19243926   4.514   2.733   6.485  0.1916 -0.0451 -0.0723
  198MOL   C19343927   4.348   2.904   6.432  0.0391 -0.2927  0.4200
  198MOL   H19443928   4.538   2.668   6.736 -0.8988  0.0191  2.2384
  198MOL   H19543929   4.527   2.765   6.866 -0.6426  0.0175  0.4998
  198MOL   H19643930   4.443   2.962   6.698  1.3761 -0.3521  1.8739
  198MOL   H19743931   4.406   2.953   6.353 -0.0878 -1.5987 -0.5011
  198MOL   H19843932   4.274   2.838   6.387 -1.6403  0.4743  2.0153
  198MOL   H19943933   4.298   2.980   6.492 -0.0148 -1.1278  1.4344
  198MOL   C20043934   4.300   2.832   6.734  0.7056  0.4807  0.0042
  198MOL   C20143935   4.255   2.901   6.863 -0.1314 -0.5253 -0.7341
  198MOL   C20243936   4.238   3.051   6.854  0.2515  0.3103  0.5574
  198MOL   O20343937   4.333   3.126   6.851  0.1117 -0.3839 -0.5817
  198MOL   C20443938   4.093   3.104   6.848 -1.0282 -0.5153 -0.2052
  198MOL   H20543939   4.231   2.870   6.659  3.9920  2.8362 -1.8990
  198MOL   H20643940   4.289   2.723   6.742  3.0021  0.0674 -1.9752
  198MOL   H20743941   4.157   2.859   6.884 -0.9184  2.0920  1.0718
  198MOL   H20843942   4.017   3.051   6.906 -1.8523 -0.4890 -1.2380
  198MOL   H20943943   4.090   3.208   6.880  1.9983 -0.5133  0.2225
  198MOL   H21043944   4.066   3.118   6.743  1.0856 -1.0926 -0.8515
  198MOL   C21143945   4.328   2.850   6.989  0.8194 -0.0619 -0.4927
  198MOL   C21243946   4.272   2.906   7.120 -0.2078 -0.2563 -0.2576
  198MOL   C21343947   4.139   2.844   7.158  0.5034 -0.1714  0.0496
  198MOL   O21443948   4.117   2.722   7.155  0.0856 -0.0521 -0.8730
  198MOL   C21543949   4.027   2.942   7.185  0.2163 -0.2448  1.2064
  198MOL   H21643950   4.335   2.741   6.984 -0.3132 -0.2656  1.7473
  198MOL   H21743951   4.430   2.887   6.987  0.9610 -0.4762 -0.8644
  198MOL   H21843952   4.260   3.014   7.131  0.0313 -0.5066  2.9011
  198MOL   H21943953   3.936   2.889   7.210 -1.7605  2.7723  0.6027
  198MOL   H22043954   4.043   3.015   7.265 -1.3306  0.6902  0.6790
  198MOL   H22143955   4.006   2.995   7.092  0.5147 -2.2490 -0.0218
  198MOL   H22243956   4.341   2.871   7.197  0.0599 -1.5704 -1.0731
  199MOL     C143957   1.686   2.549   5.595  1.4573  0.2182 -0.2696
  199MOL     C243958   1.743   2.633   5.483 -0.0515 -0.2281  0.4379
  199MOL     C343959   1.893   2.656   5.508 -0.7575 -0.1357  0.0512
  199MOL     O443960   1.964   2.558   5.536 -0.4787 -0.5921 -0.2549
  199MOL     C543961   1.957   2.791   5.474 -0.8058 -0.2221 -0.1817
  199MOL     H643962   1.592   2.513   5.554  0.4630  1.4173  0.9249
  199MOL     H743963   1.679   2.599   5.692 -1.0455 -1.0759  0.2610
  199MOL     H843964   1.694   2.730   5.480  1.7103  0.6525 -2.3077
  199MOL     H943965   1.881   2.868   5.465 -1.5587 -0.9334 -0.0534
  199MOL    H1043966   2.040   2.818   5.539  0.2438  0.2201 -1.6863
  199MOL    H1143967   1.991   2.770   5.372  2.3753  2.5307  0.2579
  199MOL    H1243968   1.756   2.470   5.621  2.0461  1.6967  2.9612
  199MOL    C1343969   1.725   2.561   5.347 -0.2562  0.1146 -0.1837
  199MOL    C1443970   1.773   2.640   5.219 -0.0610  0.1216  0.2968
  199MOL    C1543971   1.664   2.736   5.184  0.2505  0.0590 -0.6547
  199MOL    O1643972   1.589   2.711   5.093  0.0936  0.4003  0.4803
  199MOL    C1743973   1.653   2.866   5.255 -0.4754 -0.0798  0.4587
  199MOL    H1843974   1.771   2.463   5.356 -0.2265  0.1693  0.2645
  199MOL    H1943975   1.620   2.534   5.331  0.3669 -1.0350 -2.6151
  199MOL    H2043976   1.850   2.712   5.244 -1.3100  1.1738  1.1642
  199MOL    H2143977   1.599   2.943   5.200  1.1680  0.6810 -0.1145
  199MOL    H2243978   1.578   2.836   5.329 -0.5401 -1.3546 -0.0987
  199MOL    H2343979   1.747   2.899   5.298 -0.8743  1.8005 -0.0463
  199MOL    C2443980   1.834   2.545   5.114 -0.4787  0.0519 -0.4473
  199MOL    C2543981   1.849   2.605   4.971  0.3207 -0.5831  1.1309
  199MOL    C2643982   1.921   2.736   4.985 -0.8442  0.2255 -0.0150
  199MOL    O2743983   2.018   2.743   5.057 -0.1976 -0.3513  0.3396
  199MOL    C2843984   1.871   2.857   4.904  0.2488  0.1200 -0.7209
  199MOL    H2943985   1.925   2.504   5.156 -0.1837 -0.2280 -1.3518
  199MOL    H3043986   1.768   2.459   5.098  1.1195 -1.6673  1.8620
  199MOL    H3143987   1.757   2.626   4.916  0.9913 -0.0911  0.1688
  199MOL    H3243988   1.957   2.914   4.870  0.4019  0.5199  0.2977
  199MOL    H3343989   1.814   2.813   4.823 -1.4743 -0.8691  0.9693
  199MOL    H3443990   1.808   2.922   4.965  0.5442  0.3335 -0.6426
  199MOL    C3543991   1.925   2.500   4.884  0.3867 -0.0458 -0.0109
  199MOL    C3643992   1.982   2.543   4.743 -0.3702  0.0213 -0.2753
  199MOL    C3743993   2.132   2.576   4.754  0.4476  0.2042  0.4701
  199MOL    O3843994   2.172   2.690   4.744 -0.0226  0.6131  0.1005
  199MOL    C3943995   2.232   2.466   4.793 -0.0088  0.4609  0.0270
  199MOL    H4043996   1.854   2.420   4.865 -1.2121  0.7878  2.1498
  199MOL    H4143997   1.994   2.446   4.949  1.2742 -0.0008 -0.9128
  199MOL    H4243998   1.943   2.643   4.726 -2.6190 -0.5295  1.3741
  199MOL    H4343999   2.178   2.384   4.840 -0.3488  1.1115  0.7767
  199MOL    H4444000   2.306   2.497   4.867  1.8116 -4.0976  0.2838
  199MOL    H4544001   2.288   2.426   4.708 -0.5827  2.1924 -1.1980
  199MOL    C4644002   1.950   2.459   4.617  0.0301 -0.4487  0.1649
  199MOL    C4744003   1.865   2.538   4.511 -0.1072  0.1022  0.5676
  199MOL    C4844004   1.727   2.585   4.561 -0.6666  0.7468  0.3245
  199MOL    O4944005   1.704   2.709   4.567  0.3502  0.2051  0.2790
  199MOL    C5044006   1.630   2.488   4.628  0.1174  0.0726  0.8868
  199MOL    H5144007   1.894   2.371   4.649 -0.9443  0.4828  1.1002
  199MOL    H5244008   2.044   2.422   4.578 -0.4029  0.1743 -1.5084
  199MOL    H5344009   1.842   2.466   4.432  1.7734 -0.6082  0.6480
  199MOL    H5444010   1.636   2.389   4.582 -1.0989 -0.5513  2.0348
  199MOL    H5544011   1.663   2.486   4.732  1.5178  3.1571  0.5543
  199MOL    H5644012   1.526   2.520   4.622  0.2342  0.4610  0.9112
  199MOL    C5744013   1.948   2.653   4.445 -0.1681 -0.6920 -0.2718
  199MOL    C5844014   2.069   2.600   4.368 -0.2920  0.7411  0.1673
  199MOL    C5944015   2.035   2.488   4.266 -0.1453 -0.7077  0.1833
  199MOL    O6044016   1.957   2.520   4.178  0.1128 -0.0904 -0.6901
  199MOL    C6144017   2.099   2.344   4.273  0.0851 -0.2564 -0.7442
  199MOL    H6244018   1.985   2.725   4.518  0.7185  0.2317 -1.6072
  199MOL    H6344019   1.884   2.716   4.383 -1.7038 -1.5949  0.3666
  199MOL    H6444020   2.135   2.551   4.441 -1.9392 -1.6517  0.1232
  199MOL    H6544021   2.208   2.341   4.272  0.0406 -2.9714 -0.8247
  199MOL    H6644022   2.056   2.284   4.353  4.3309 -0.9388  1.1404
  199MOL    H6744023   2.084   2.289   4.180 -2.0834  0.5250 -0.8939
  199MOL    C6844024   2.152   2.718   4.312 -0.7922 -0.4500 -0.1250
  199MOL    C6944025   2.301   2.733   4.354  0.5760  0.6530 -0.2920
  199MOL    C7044026   2.366   2.853   4.282 -0.8845 -0.1363  0.8447
  199MOL    O7144027   2.467   2.846   4.212 -0.0687  0.1350 -0.4214
  199MOL    C7244028   2.304   2.983   4.307 -1.4494 -0.3960 -0.3958
  199MOL    H7344029   2.157   2.706   4.204 -1.4533  0.0795 -0.2167
  199MOL    H7444030   2.105   2.816   4.321  2.0904  1.0967 -1.1323
  199MOL    H7544031   2.304   2.758   4.460  0.4881  0.2951 -0.2076
  199MOL    H7644032   2.369   3.038   4.376 -0.8377 -1.1754 -0.3404
  199MOL    H7744033   2.291   3.029   4.209 -1.8399  0.5881  0.1163
  199MOL    H7844034   2.213   2.981   4.366  0.1776  1.2123  2.3088
  199MOL    C7944035   2.381   2.595   4.326 -0.4895 -0.6173  0.2556
  199MOL    C8044036   2.513   2.580   4.404  0.1429  0.0313 -0.0311
  199MOL    C8144037   2.586   2.458   4.350 -0.5383  0.3445  0.4138
  199MOL    O8244038   2.565   2.346   4.397 -0.4999 -0.1985 -0.2490
  199MOL    C8344039   2.664   2.475   4.217  0.1813  0.4586 -0.4796
  199MOL    H8444040   2.387   2.584   4.217  0.3570 -1.6702  0.4043
  199MOL    H8544041   2.319   2.511   4.358  1.4497 -1.9075  0.6936
  199MOL    H8644042   2.580   2.664   4.387  0.5329 -0.2106  0.3114
  199MOL    H8744043   2.760   2.424   4.211  0.1317  0.3267 -0.1855
  199MOL    H8844044   2.680   2.581   4.199 -0.1956  0.4336 -0.9751
  199MOL    H8944045   2.608   2.437   4.132  0.2424 -0.2659 -0.2029
  199MOL    C9044046   2.501   2.579   4.558 -0.3148  0.0201 -0.2204
  199MOL    C9144047   2.623   2.638   4.632  0.0807  0.1150  0.2872
  199MOL    C9244048   2.626   2.793   4.613  0.2532 -0.0394 -0.0330
  199MOL    O9344049   2.539   2.861   4.552  0.1085 -0.2931  0.5892
  199MOL    C9444050   2.744   2.868   4.667 -0.2888 -0.3869  0.6468
  199MOL    H9544051   2.414   2.641   4.579 -0.5135 -0.3762  0.1449
  199MOL    H9644052   2.475   2.483   4.604 -0.0616 -0.0742 -0.2729
  199MOL    H9744053   2.715   2.605   4.583 -0.4241 -0.1071 -0.5313
  199MOL    H9844054   2.715   2.941   4.743 -1.8870  1.4476 -1.6803
  199MOL    H9944055   2.821   2.801   4.706 -0.1796 -0.8115 -0.2907
  199MOL   H10044056   2.787   2.926   4.585 -2.1922 -0.0973 -0.1546
  199MOL   C10144057   2.644   2.581   4.772 -0.7722  0.4240 -0.1876
  199MOL   C10244058   2.728   2.451   4.773 -0.6802  0.2429 -0.2239
  199MOL   C10344059   2.686   2.360   4.892 -0.9419 -0.0204 -0.3086
  199MOL   O10444060   2.760   2.345   4.986 -0.3571  0.1323  0.0478
  199MOL   C10544061   2.551   2.286   4.884  0.1867 -0.1995 -0.6645
  199MOL   H10644062   2.689   2.652   4.842  2.1037  0.7066 -2.2531
  199MOL   H10744063   2.552   2.555   4.825  0.5270 -2.4315  0.7570
  199MOL   H10844064   2.707   2.388   4.686 -0.1928  0.5013 -0.5309
  199MOL   H10944065   2.533   2.222   4.970 -1.6052 -2.0372 -2.3615
  199MOL   H11044066   2.456   2.337   4.866 -1.4255 -3.0805 -0.5214
  199MOL   H11144067   2.558   2.216   4.801  1.3836 -0.9471  0.0546
  199MOL   C11244068   2.881   2.484   4.780  0.0702 -0.1065 -0.1673
  199MOL   C11344069   2.963   2.358   4.726 -0.5820  0.4527 -0.1673
  199MOL   C11444070   3.090   2.330   4.805  0.5759 -1.0294 -0.2408
  199MOL   O11544071   3.202   2.353   4.765 -0.1606 -0.3071 -0.3940
  199MOL   C11644072   3.078   2.260   4.934  0.1274  0.0377  0.0828
  199MOL   H11744073   2.927   2.509   4.876 -1.5421 -0.6084  0.7504
  199MOL   H11844074   2.897   2.582   4.735 -0.2704 -0.5425 -1.2413
  199MOL   H11944075   2.901   2.269   4.736  1.4571 -0.8206  1.6541
  199MOL   H12044076   3.143   2.315   5.003 -1.4062  1.2771  0.5726
  199MOL   H12144077   2.977   2.260   4.974 -0.2750 -0.8250 -0.8985
  199MOL   H12244078   3.116   2.158   4.926 -0.8331 -0.2439 -1.0175
  199MOL   C12344079   2.991   2.381   4.575 -0.4947  0.1713 -0.0833
  199MOL   C12444080   3.044   2.259   4.502 -0.6994 -0.2858  0.3192
  199MOL   C12544081   3.188   2.290   4.449  0.2121  0.4821 -0.0716
  199MOL   O12644082   3.212   2.378   4.365  0.8773  0.0739 -0.8553
  199MOL   C12744083   3.301   2.201   4.500  0.2170 -0.0521  0.3447
  199MOL   H12844084   3.057   2.467   4.564 -1.2057  0.4490 -2.5058
  199MOL   H12944085   2.897   2.417   4.532 -0.8024 -2.1256 -1.4176
  199MOL   H13044086   3.068   2.189   4.583 -1.5416  1.7046  2.3603
  199MOL   H13144087   3.405   2.222   4.472  0.1677  0.1221  0.2967
  199MOL   H13244088   3.280   2.099   4.467 -0.7704  0.5167 -0.8311
  199MOL   H13344089   3.287   2.200   4.608  1.7176  1.3970  0.5766
  199MOL   C13444090   2.957   2.194   4.390 -0.0756 -0.7237 -0.1686
  199MOL   C13544091   2.910   2.047   4.425  0.4451  0.8594  0.2237
  199MOL   C13644092   2.834   2.043   4.561  0.1935  0.1376 -0.7818
  199MOL   O13744093   2.889   2.027   4.669  0.1468 -0.4421  0.0315
  199MOL   C13844094   2.687   2.093   4.559 -0.4487  0.5789  0.7192
  199MOL   H13944095   3.010   2.192   4.295 -1.0519 -0.7655 -0.7124
  199MOL   H14044096   2.868   2.249   4.358 -0.1620 -0.5657  0.3345
  199MOL   H14144097   2.999   1.987   4.442 -0.5749 -0.7043  0.1294
  199MOL   H14244098   2.661   2.143   4.465 -0.2025 -0.4616  0.0913
  199MOL   H14344099   2.671   2.165   4.640 -0.7244 -0.7431  1.8429
  199MOL   H14444100   2.618   2.013   4.584  0.2511  0.1124  1.1571
  199MOL   C14544101   2.822   1.985   4.308 -0.3588 -0.5384  0.1201
  199MOL   C14644102   2.839   1.831   4.298  0.3047  0.3997  0.3077
  199MOL   C14744103   2.701   1.770   4.262 -0.5184  0.3026  0.2053
  199MOL   O14844104   2.684   1.736   4.141  0.2157 -0.1983  0.2040
  199MOL   C14944105   2.595   1.747   4.364  0.5021 -0.6401 -0.2239
  199MOL   H15044106   2.863   2.022   4.214 -1.8714 -1.5257 -0.9351
  199MOL   H15144107   2.719   2.020   4.308 -0.0262  0.5924 -3.4018
  199MOL   H15244108   2.866   1.788   4.394 -1.0618 -0.1728  0.4494
  199MOL   H15344109   2.623   1.669   4.434  1.4061 -1.1314 -1.1139
  199MOL   H15444110   2.586   1.844   4.413  0.1947 -1.9393  2.3442
  199MOL   H15544111   2.502   1.733   4.308  0.8800  0.3337 -1.1037
  199MOL   C15644112   2.948   1.785   4.196  0.5078  0.1708  0.2272
  199MOL   C15744113   2.978   1.631   4.203 -0.4268  0.3658 -0.0500
  199MOL   C15844114   3.033   1.581   4.339  0.0601 -0.3451 -0.1398
  199MOL   O15944115   3.089   1.653   4.418  0.2644 -0.4214 -0.0895
  199MOL   C16044116   3.009   1.435   4.376  0.3206  0.5005 -0.1547
  199MOL   H16144117   2.906   1.813   4.100  0.2145  1.5180  0.7245
  199MOL   H16244118   3.044   1.835   4.211  1.5300 -1.8233  0.5089
  199MOL   H16344119   2.881   1.581   4.201  0.3808 -1.2989  1.2865
  199MOL   H16444120   2.906   1.417   4.347  1.3914 -2.5198 -2.3699
  199MOL   H16544121   3.014   1.404   4.480  0.6846  0.7705 -0.0913
  199MOL   H16644122   3.070   1.374   4.310 -0.3791  1.5984 -1.8489
  199MOL   C16744123   3.045   1.569   4.073  0.3136 -0.0069 -0.0459
  199MOL   C16844124   3.192   1.604   4.054 -0.4415 -0.0332  0.7565
  199MOL   C16944125   3.213   1.722   3.954  0.7226  0.8646 -0.0984
  199MOL   O17044126   3.247   1.834   3.999 -0.1710  0.3116 -0.3833
  199MOL   C17144127   3.169   1.706   3.809 -0.3111 -0.2066  0.5008
  199MOL   H17244128   3.032   1.462   4.057  1.1098 -0.1696  0.4043
  199MOL   H17344129   2.981   1.611   3.995  0.0927 -1.6588 -0.7732
  199MOL   H17444130   3.242   1.628   4.148  0.1957  0.9304  0.1703
  199MOL   H17544131   3.226   1.628   3.760  0.8856  0.2356  1.1754
  199MOL   H17644132   3.160   1.798   3.751 -0.7558 -0.2081  0.5643
  199MOL   H17744133   3.069   1.661   3.813 -1.2023  1.5623 -1.2385
  199MOL   C17844134   3.267   1.480   4.003 -0.3575  0.3281 -0.0223
  199MOL   C17944135   3.297   1.371   4.108 -0.0341  0.5301 -0.2747
  199MOL   C18044136   3.380   1.410   4.229 -0.1046 -0.3050 -0.1744
  199MOL   O18144137   3.328   1.430   4.340 -0.7112  0.4049 -0.2745
  199MOL   C18244138   3.529   1.424   4.211 -0.5272  0.3870 -0.6916
  199MOL   H18344139   3.218   1.434   3.918  1.0154 -3.7473  1.3000
  199MOL   H18444140   3.365   1.513   3.967 -0.5238  0.3474 -0.4685
  199MOL   H18544141   3.203   1.346   4.157  0.6064 -0.9562  0.2314
  199MOL   H18644142   3.559   1.476   4.302 -1.9842 -1.6017  0.9646
  199MOL   H18744143   3.543   1.495   4.130  0.2380  0.2292 -0.6937
  199MOL   H18844144   3.579   1.331   4.185 -2.3509 -0.9845  0.5697
  199MOL   C18944145   3.342   1.247   4.034  0.1788 -0.2963 -0.1060
  199MOL   C19044146   3.387   1.115   4.097  0.0064 -0.1343  0.5774
  199MOL   C19144147   3.276   1.058   4.194 -0.2267 -0.4194 -0.4171
  199MOL   O19244148   3.155   1.034   4.162  0.5189  0.4813 -0.0972
  199MOL   C19344149   3.319   1.027   4.331  0.5526 -0.4437 -0.6794
  199MOL   H19444150   3.267   1.227   3.957 -0.9150  0.2878  0.7990
  199MOL   H19544151   3.421   1.298   3.977 -0.5757  0.8314 -0.1638
  199MOL   H19644152   3.475   1.135   4.158  0.3538 -3.2788  1.2261
  199MOL   H19744153   3.238   0.984   4.390  1.1034  0.1465  0.5192
  199MOL   H19844154   3.397   0.952   4.319 -0.8817 -1.7994 -1.6842
  199MOL   H19944155   3.354   1.117   4.382  0.2897 -0.1340 -1.0488
  199MOL   C20044156   3.425   1.007   3.990  0.1953  0.4214 -0.7240
  199MOL   C20144157   3.506   0.882   4.043  0.1475  0.6158  0.4281
  199MOL   C20244158   3.651   0.911   4.079 -0.6307 -0.0956  0.0132
  199MOL   O20344159   3.728   0.963   3.997  0.3250  0.1296 -0.5403
  199MOL   C20444160   3.713   0.872   4.222 -0.0469 -0.5145  0.4994
  199MOL   H20544161   3.335   0.973   3.940  0.5045  0.2888 -1.1951
  199MOL   H20644162   3.474   1.058   3.907 -2.8765  2.3825 -1.4386
  199MOL   H20744163   3.454   0.858   4.136  0.7903  0.6864  0.8163
  199MOL   H20844164   3.707   0.951   4.296  1.6897  1.5793 -1.5632
  199MOL   H20944165   3.664   0.788   4.273 -1.6509  0.5721  0.7990
  199MOL   H21044166   3.816   0.842   4.204 -0.6003 -0.9170 -2.2355
  199MOL   C21144167   3.496   0.755   3.958 -0.0630 -0.3886 -0.3704
  199MOL   C21244168   3.540   0.774   3.803  0.2717 -1.0280 -0.2565
  199MOL   C21344169   3.586   0.646   3.744 -0.4104  0.6633  0.1082
  199MOL   O21444170   3.606   0.546   3.812 -0.4806  0.0243  0.1820
  199MOL   C21544171   3.613   0.645   3.592 -0.2038  0.2294 -0.1892
  199MOL   H21644172   3.558   0.679   4.006  0.3524  1.3296  1.8913
  199MOL   H21744173   3.394   0.720   3.947 -0.5528  0.0983  2.4484
  199MOL   H21844174   3.620   0.847   3.796 -0.2626 -0.3164  0.9137
  199MOL   H21944175   3.711   0.685   3.568  0.2022 -0.1354  0.8016
  199MOL   H22044176   3.609   0.548   3.543  0.5796  0.5672 -0.9218
  199MOL   H22144177   3.539   0.707   3.542  0.2937 -0.5108 -1.8776
  199MOL   H22244178   3.456   0.822   3.752 -0.0451 -2.3044 -0.9507
  200MOL     C144179   7.133   3.456   6.785  0.6208  0.0714  0.1319
  200MOL     C244180   7.193   3.386   6.656  0.5889 -0.3810  0.1357
  200MOL     C344181   7.272   3.481   6.575  0.6804 -0.3412  0.3282
  200MOL     O444182   7.394   3.497   6.590  0.1656  0.5204  0.5593
  200MOL     C544183   7.209   3.552   6.452 -0.9958  0.4568  0.1339
  200MOL     H644184   7.206   3.490   6.858  0.1071  0.1268  0.6193
  200MOL     H744185   7.069   3.384   6.836  1.0368 -1.0354 -0.8851
  200MOL     H844186   7.111   3.360   6.590  0.3060 -0.9248  0.6955
  200MOL     H944187   7.103   3.530   6.447 -0.9390  0.1688  0.2129
  200MOL    H1044188   7.231   3.659   6.455 -2.2264  0.7138  0.3144
  200MOL    H1144189   7.251   3.517   6.358  1.7645  1.3176  0.9773
  200MOL    H1244190   7.082   3.550   6.766  3.1511  1.7941  1.5796
  200MOL    C1344191   7.268   3.249   6.687  0.0960  0.1134 -0.0050
  200MOL    C1444192   7.278   3.166   6.555 -0.1522  0.1694 -0.0747
  200MOL    C1544193   7.148   3.108   6.506 -0.9068  0.2958 -0.4289
  200MOL    O1644194   7.073   3.045   6.589 -0.3293  0.3095  0.0730
  200MOL    C1744195   7.112   3.135   6.360  0.7107 -0.0752  1.1559
  200MOL    H1844196   7.369   3.262   6.729 -0.2539 -2.9492  1.9230
  200MOL    H1944197   7.215   3.193   6.764  0.1238  0.7884  0.5107
  200MOL    H2044198   7.310   3.223   6.468 -0.1645 -0.5488 -0.5546
  200MOL    H2144199   7.159   3.052   6.307  0.8474  1.1110 -0.6250
  200MOL    H2244200   7.003   3.136   6.357  0.7190 -0.6551  0.4057
  200MOL    H2344201   7.145   3.232   6.325 -2.3361  0.6078  0.0172
  200MOL    C2444202   7.382   3.056   6.571 -0.5574 -0.2619 -0.1449
  200MOL    C2544203   7.446   2.993   6.442 -0.1773 -0.0712 -0.2563
  200MOL    C2644204   7.509   3.101   6.356 -0.2782 -0.0296 -0.3589
  200MOL    O2744205   7.631   3.128   6.380  0.8921 -0.1192 -0.3596
  200MOL    C2844206   7.440   3.162   6.236  0.5124 -0.0362  0.4993
  200MOL    H2944207   7.461   3.080   6.642  0.2643  1.6815 -1.6602
  200MOL    H3044208   7.336   2.970   6.618  0.0239 -0.9041 -0.7282
  200MOL    H3144209   7.355   2.956   6.394  0.0586  0.0998 -0.8356
  200MOL    H3244210   7.409   3.078   6.173 -0.9589 -0.6803  2.0386
  200MOL    H3344211   7.348   3.210   6.270  0.2986 -1.8059  2.4908
  200MOL    H3444212   7.489   3.239   6.176 -1.9723  0.4110 -1.0339
  200MOL    C3544213   7.546   2.876   6.486 -0.1508 -0.2317 -0.0701
  200MOL    C3644214   7.563   2.750   6.402  0.6944  0.1531  0.4351
  200MOL    C3744215   7.427   2.681   6.378 -0.3608  0.2959 -0.0366
  200MOL    O3844216   7.347   2.719   6.294  0.0305 -0.7754 -0.6086
  200MOL    C3944217   7.404   2.545   6.457  0.2486 -0.0562 -0.5254
  200MOL    H4044218   7.507   2.829   6.577 -1.4772  0.8579 -0.0579
  200MOL    H4144219   7.648   2.906   6.511  0.2416  1.1764 -3.1315
  200MOL    H4244220   7.615   2.675   6.463  0.9571 -0.1878 -0.2045
  200MOL    H4344221   7.308   2.559   6.507  1.1920 -0.3552  1.4188
  200MOL    H4444222   7.475   2.521   6.536 -0.6838  2.3462  1.0878
  200MOL    H4544223   7.387   2.472   6.377  3.1808 -2.1224  0.6578
  200MOL    C4644224   7.648   2.767   6.276  0.2813  0.4894 -0.4862
  200MOL    C4744225   7.800   2.791   6.303  0.4172 -0.3649 -0.3834
  200MOL    C4844226   0.008   2.659   6.363  0.3582  0.9854  0.1826
  200MOL    O4944227   7.808   2.547   6.369  0.0385 -0.2405  0.6708
  200MOL    C5044228   0.151   2.666   6.418 -1.2522 -0.3476  0.0038
  200MOL    H5144229   7.603   2.848   6.217  1.9909  0.8931 -1.2732
  200MOL    H5244230   7.636   2.687   6.203  0.1285  0.8096 -0.8148
  200MOL    H5344231   7.814   2.878   6.366 -0.6840 -0.9547  0.7001
  200MOL    H5444232   0.152   2.685   6.526 -1.0856  1.2205 -0.2592
  200MOL    H5544233   0.202   2.572   6.398  0.1872  0.5669 -0.7004
  200MOL    H5644234   0.209   2.741   6.364 -0.8948 -0.7589 -0.1834
  200MOL    C5744235   0.005   2.836   6.169 -0.2923 -0.1059  0.3611
  200MOL    C5844236   0.015   2.986   6.133  0.4622 -0.3127  0.5284
  200MOL    C5944237   0.112   3.057   6.231  0.2213 -0.1582  0.0734
  200MOL    O6044238   0.214   2.995   6.267 -0.4694 -0.0442 -0.1912
  200MOL    C6144239   0.079   3.202   6.259  0.1820 -0.1517  0.5601
  200MOL    H6244240   7.820   2.780   6.085  1.3673  0.0335 -0.5913
  200MOL    H6344241   0.108   2.801   6.173 -0.5684 -0.8965  0.6175
  200MOL    H6444242   7.771   3.023   6.147  0.7015  0.3220  0.5850
  200MOL    H6544243   0.109   3.219   6.362  1.4507 -3.4196  0.7771
  200MOL    H6644244   0.147   3.259   6.196  1.9714 -3.2952 -0.4725
  200MOL    H6744245   7.832   3.227   6.239  0.5475  1.6548  0.8633
  200MOL    C6844246   0.054   3.010   5.982  0.6363  0.4778 -0.2497
  200MOL    C6944247   0.004   3.146   5.927  0.3085 -0.4187  0.4307
  200MOL    C7044248   7.715   3.156   5.924  0.1915 -0.2838 -0.0383
  200MOL    O7144249   7.661   3.236   6.008 -0.3266 -0.6862  0.2041
  200MOL    C7244250   7.647   3.067   5.823  0.2746 -0.5685 -0.0452
  200MOL    H7344251   0.159   2.994   5.958  0.6675  0.1998  0.0572
  200MOL    H7444252   0.000   2.937   5.920  1.7704  0.4218 -1.1796
  200MOL    H7544253   0.034   3.230   5.990 -1.9487  0.0262  0.9568
  200MOL    H7644254   7.590   3.123   5.748  1.6662  0.4126 -0.3858
  200MOL    H7744255   7.722   3.017   5.761 -0.5145 -0.0933 -1.4108
  200MOL    H7844256   7.583   2.986   5.858  1.3249 -2.2859 -1.9683
  200MOL    C7944257   0.084   3.182   5.793  0.4981 -0.1650 -0.3347
  200MOL    C8044258   0.055   3.324   5.742  0.7958 -0.5459 -0.1148
  200MOL    C8144259   7.802   3.317   5.647  0.4445 -1.2275  0.9192
  200MOL    O8244260   7.692   3.368   5.670  0.0019  0.0397 -0.5175
  200MOL    C8344261   7.829   3.267   5.507  0.2955  0.0267 -0.1683
  200MOL    H8444262   0.059   3.100   5.725  1.8373  0.8173 -2.0631
  200MOL    H8544263   0.189   3.181   5.822 -0.5013 -1.0587  3.5284
  200MOL    H8644264   0.021   3.401   5.812  2.3445 -0.8032  0.9478
  200MOL    H8744265   7.747   3.274   5.436 -1.6015 -3.4565  1.5750
  200MOL    H8844266   7.856   3.162   5.509  0.0289 -0.0288  1.0243
  200MOL    H8944267   0.051   3.322   5.456  0.6878 -1.3998 -1.1152
  200MOL    C9044268   0.196   3.376   5.684  0.2459 -0.2675 -0.7626
  200MOL    C9144269   0.292   3.446   5.789  0.2635 -0.3586 -0.4712
  200MOL    C9244270   0.437   3.428   5.740 -0.0448 -0.4060 -0.3213
  200MOL    O9344271   0.482   3.510   5.657  0.2675 -0.6524 -0.6536
  200MOL    C9444272   0.521   3.314   5.793 -0.3560  0.2438 -0.6022
  200MOL    H9544273   0.239   3.293   5.628 -1.8465 -2.2490  0.4734
  200MOL    H9644274   0.180   3.445   5.601  1.3416  1.4181  0.3841
  200MOL    H9744275   0.275   3.377   5.872  0.6513 -0.1101 -0.1826
  200MOL    H9844276   0.589   3.282   5.714  0.4216  0.0526  0.1377
  200MOL    H9944277   0.579   3.354   5.877 -2.2184  0.6113  0.5451
  200MOL   H10044278   0.461   3.230   5.830  1.1810  0.1248  1.7365
  200MOL   C10144279   0.246   3.590   5.825  0.2569  0.8641  0.3455
  200MOL   C10244280   0.336   3.667   5.925 -0.6943  0.2400 -0.5759
  200MOL   C10344281   0.372   3.591   6.049 -0.3467 -0.5785 -0.3731
  200MOL   O10444282   0.494   3.585   6.077 -0.3493 -0.0742 -0.0494
  200MOL   C10544283   0.262   3.562   6.149  0.3679  0.3747 -0.0091
  200MOL   H10644284   0.227   3.649   5.735  2.2848 -1.6436 -1.8322
  200MOL   H10744285   0.149   3.585   5.874 -0.7447 -2.3818 -1.7658
  200MOL   H10844286   0.434   3.676   5.877  0.1947  1.1299  1.3312
  200MOL   H10944287   0.181   3.501   6.108 -0.5442  1.2330  0.5008
  200MOL   H11044288   0.304   3.504   6.231 -0.8092 -0.0545  0.2967
  200MOL   H11144289   0.219   3.653   6.189  1.0873  1.3891 -1.5113
  200MOL   C11244290   0.279   3.809   5.961  0.2854  0.0761  0.0530
  200MOL   C11344291   0.305   3.917   5.849 -0.2267  0.0031  0.6808
  200MOL   C11444292   0.459   3.934   5.820 -0.0360 -0.3637  0.4620
  200MOL   O11544293   0.541   3.943   5.910  0.0454 -0.5097 -0.0908
  200MOL   C11644294   0.494   3.939   5.670 -0.4480  0.1769 -0.3377
  200MOL   H11744295   0.324   3.851   6.051  1.8337  1.7429 -1.4705
  200MOL   H11844296   0.170   3.807   5.974  0.3535  1.6373  1.0380
  200MOL   H11944297   0.255   3.880   5.760 -0.7117  1.8013  0.1798
  200MOL   H12044298   0.554   4.029   5.656 -0.9189  0.6098  0.3588
  200MOL   H12144299   0.565   3.864   5.635 -1.4673 -1.5248  1.1518
  200MOL   H12244300   0.405   3.948   5.607  1.0705 -1.0732 -2.7139
  200MOL   C12344301   0.243   4.054   5.885 -0.3219  1.0255  0.1572
  200MOL   C12444302   0.261   4.166   5.781  0.4385  0.0894  0.6892
  200MOL   C12544303   0.224   4.295   5.856 -0.4832  0.4974  0.6309
  200MOL   O12644304   0.112   4.339   5.847 -0.2179  0.3023  0.6204
  200MOL   C12744305   0.335   4.359   5.938 -0.0602 -0.2933 -0.0599
  200MOL   H12844306   0.283   4.083   5.982  4.8414 -1.3947 -1.0452
  200MOL   H12944307   0.137   4.028   5.896  0.3461 -1.5574  0.8446
  200MOL   H13044308   0.366   4.167   5.751  1.6211 -2.5186  4.2406
  200MOL   H13144309   0.343   4.467   5.924  1.2985  0.0926  3.2596
  200MOL   H13244310   0.433   4.325   5.906 -1.0665 -1.2446 -2.2343
  200MOL   H13344311   0.322   4.336   6.044  0.8294 -1.9343 -0.3026
  200MOL   C13444312   0.181   4.140   5.654 -0.3116 -0.7415 -0.4125
  200MOL   C13544313   0.180   4.249   5.542 -0.0726  0.1708  0.2706
  200MOL   C13644314   0.323   4.261   5.476  0.5827  0.0456 -0.0724
  200MOL   O13744315   0.409   4.179   5.491 -0.2012  0.6798 -0.1447
  200MOL   C13844316   0.348   4.377   5.389 -0.4264 -0.0703 -0.4160
  200MOL   H13944317   0.075   4.128   5.678 -0.8290  2.0488 -1.1002
  200MOL   H14044318   0.209   4.042   5.615  0.6304 -0.3074 -0.8420
  200MOL   H14144319   0.164   4.349   5.581  0.5988  1.5959 -2.9445
  200MOL   H14244320   0.325   4.356   5.285  1.3456  2.1950 -1.3121
  200MOL   H14344321   0.453   4.405   5.396 -0.8342  1.1869  1.0066
  200MOL   H14444322   0.286   4.458   5.428 -0.5957 -0.9005  1.0509
  200MOL   C14544323   0.075   4.218   5.429  0.2372 -0.8166 -0.5150
  200MOL   C14644324   7.802   4.302   5.448 -0.2071  0.2258 -0.2955
  200MOL   C14744325   7.822   4.439   5.386 -0.3601  0.2906  0.7222
  200MOL   O14844326   7.824   4.461   5.269 -0.3147 -0.4712  0.0260
  200MOL   C14944327   7.844   4.550   5.493  0.7807  1.0297 -0.5597
  200MOL   H15044328   0.061   4.110   5.429 -0.4512 -0.7427  1.6171
  200MOL   H15144329   0.104   4.229   5.324  0.9903 -1.0857 -0.3327
  200MOL   H15244330   7.788   4.313   5.555 -3.6256  4.1202 -1.0209
  200MOL   H15344331   7.795   4.523   5.586  1.1020  1.3077 -0.3062
  200MOL   H15444332   0.088   4.583   5.514  0.4059  2.2950 -0.6879
  200MOL   H15544333   7.789   4.632   5.447  0.3485  2.0274  1.6515
  200MOL   C15644334   7.678   4.231   5.382 -0.0710  0.1192 -0.2723
  200MOL   C15744335   7.545   4.298   5.411 -0.1128  0.0843 -0.5355
  200MOL   C15844336   7.507   4.298   5.562  0.5795  0.2066 -0.7307
  200MOL   O15944337   7.540   4.206   5.635 -0.3104 -0.0548 -0.3830
  200MOL   C16044338   7.414   4.404   5.612 -0.2237  0.6777  0.3847
  200MOL   H16144339   7.691   4.231   5.273 -1.1834 -1.7736 -0.4314
  200MOL   H16244340   7.682   4.130   5.423  1.6821 -0.4427 -1.7448
  200MOL   H16344341   7.551   4.401   5.376 -1.7067  0.6808  0.8717
  200MOL   H16444342   7.318   4.355   5.632 -0.1137  0.9774  1.7521
  200MOL   H16544343   7.402   4.483   5.538 -0.1947  1.1811  0.9101
  200MOL   H16644344   7.438   4.445   5.711  2.2703 -1.7042  0.8148
  200MOL   C16744345   7.424   4.223   5.337 -0.8055  0.5292 -0.2887
  200MOL   C16844346   7.416   4.263   5.185  0.0812 -0.1151 -0.4490
  200MOL   C16944347   7.375   4.405   5.165  0.6069 -0.7502 -0.2061
  200MOL   O17044348   7.280   4.449   5.235  0.0627  0.0814  0.1651
  200MOL   C17144349   7.464   4.495   5.086  0.2295  0.2333 -0.6244
  200MOL   H17244350   7.433   4.117   5.357  1.7766  1.1552  2.2429
  200MOL   H17344351   7.323   4.240   5.373 -1.4939 -1.1467 -1.3967
  200MOL   H17444352   7.514   4.249   5.140  0.4902  2.4215 -0.4237
  200MOL   H17544353   7.568   4.469   5.105 -0.0699  0.7231  1.9642
  200MOL   H17644354   7.430   4.592   5.122  0.1557 -0.7487  2.1106
  200MOL   H17744355   7.435   4.479   4.982  0.5076 -1.2224 -0.4888
  200MOL   C17844356   7.324   4.162   5.116 -0.2594 -0.2370 -0.1112
  200MOL   C17944357   7.272   4.192   4.970 -0.5026  0.0874 -0.4473
  200MOL   C18044358   7.134   4.124   4.946 -0.0467  0.3732  0.0036
  200MOL   O18144359   7.118   4.037   4.867 -0.4667  0.1343  0.3075
  200MOL   C18244360   7.015   4.195   5.010  0.0508 -0.4250  0.1990
  200MOL   H18344361   7.390   4.076   5.113  0.2851  0.2000 -0.6975
  200MOL   H18444362   7.241   4.128   5.179  2.1902 -2.7915  1.8448
  200MOL   H18544363   7.252   4.298   4.961 -0.9734  0.0387  0.0060
  200MOL   H18644364   6.985   4.148   5.103 -1.6911  2.6004  1.2275
  200MOL   H18744365   6.930   4.193   4.942  0.9655 -2.8845 -0.9220
  200MOL   H18844366   7.033   4.301   5.027 -2.2180 -0.2831  1.8621
  200MOL   C18944367   7.378   4.149   4.865  0.3182 -0.1045  0.4691
  200MOL   C19044368   7.353   4.193   4.717 -0.2678  0.4796  0.5720
  200MOL   C19144369   7.364   4.337   4.692  0.4842  0.5666 -0.6430
  200MOL   O19244370   7.466   4.386   4.660 -0.0246  0.4884  0.0973
  200MOL   C19344371   7.234   4.417   4.694 -0.6049  0.0991  0.0465
  200MOL   H19444372   7.468   4.198   4.900  0.1188 -0.0542  0.9205
  200MOL   H19544373   7.382   4.040   4.874  0.0389 -0.1970 -0.4958
  200MOL   H19644374   7.250   4.174   4.689 -0.3303  1.0318  0.4158
  200MOL   H19744375   7.237   4.511   4.640 -4.8130 -0.1001 -0.6694
  200MOL   H19844376   7.154   4.358   4.650 -0.9971 -1.0972  2.2472
  200MOL   H19944377   7.200   4.437   4.796 -0.7568 -1.6459  0.3529
  200MOL   C20044378   7.449   4.112   4.625  0.6211  0.0191 -0.3347
  200MOL   C20144379   7.440   4.131   4.471  0.1169 -0.2460  0.6976
  200MOL   C20244380   7.305   4.093   4.420  0.0429 -0.2875  0.0568
  200MOL   O20344381   7.222   4.179   4.383  0.3110 -0.1064  0.2067
  200MOL   C20444382   7.262   3.943   4.418 -0.3566 -0.2804 -0.0027
  200MOL   H20544383   7.549   4.135   4.663  1.0255 -0.4975 -1.0642
  200MOL   H20644384   7.434   4.006   4.645 -0.4299  0.3256  0.5311
  200MOL   H20744385   7.451   4.238   4.455 -1.1817 -0.3152 -0.6701
  200MOL   H20844386   7.223   3.902   4.510  0.8751  0.3088  0.7982
  200MOL   H20944387   7.194   3.929   4.334 -1.1615 -1.4800  0.8453
  200MOL   H21044388   7.345   3.877   4.394  1.3551  1.2546  1.5008
  200MOL   C21144389   7.561   4.076   4.392 -0.3123 -0.0049 -0.2262
  200MOL   C21244390   7.592   4.142   4.259 -0.4291  0.2716 -0.3576
  200MOL   C21344391   7.716   4.231   4.253  0.3415 -0.0964  0.3870
  200MOL   O21444392   7.823   4.188   4.221  0.5765 -0.0477  0.2697
  200MOL   C21544393   7.699   4.379   4.274 -0.0658 -0.3119  0.7163
  200MOL   H21644394   7.647   4.073   4.458  0.1323 -0.1386 -0.8114
  200MOL   H21744395   7.539   3.970   4.380 -1.2124  0.1521 -0.0443
  200MOL   H21844396   7.513   4.205   4.220  0.1026  0.6451 -0.8418
  200MOL   H21944397   7.642   4.405   4.363 -0.4834  0.7487  0.1553
  200MOL   H22044398   7.789   4.440   4.286 -1.2273  1.0879  2.5206
  200MOL   H22144399   7.654   4.418   4.183 -0.2971  1.0555  1.4037
  200MOL   H22244400   7.597   4.063   4.185 -1.9821  0.5232 -0.7416
  201MOL     C144401   1.651   2.912   4.195 -0.3790 -0.3515  0.2975
  201MOL     C244402   1.658   3.034   4.111 -0.2466 -0.2107 -0.0845
  201MOL     C344403   1.714   2.994   3.977 -0.2592 -0.5087  0.8091
  201MOL     O444404   1.643   2.969   3.881  0.3153 -0.1580 -0.3347
  201MOL     C544405   1.863   2.991   3.955 -0.5159  0.4929  0.3591
  201MOL     H644406   1.754   2.882   4.211 -0.9504 -2.5145  0.1058
  201MOL     H744407   1.591   2.826   4.165 -2.2485  0.9975  0.0522
  201MOL     H844408   1.717   3.109   4.163  0.2312 -1.1773  0.7648
  201MOL     H944409   1.890   2.929   3.870 -0.5335 -1.6809  1.8697
  201MOL    H1044410   1.909   3.088   3.941 -0.8646  1.0111  2.5497
  201MOL    H1144411   1.913   2.942   4.039 -1.5624 -1.2135  0.0231
  201MOL    H1244412   1.612   2.943   4.292  0.7589  1.4665  0.1820
  201MOL    C1344413   1.517   3.097   4.099  0.0595 -0.4111  0.3056
  201MOL    C1444414   1.505   3.229   4.013 -0.4578 -0.0878  0.5929
  201MOL    C1544415   1.618   3.325   4.052  0.7963 -0.5157  0.7440
  201MOL    O1644416   1.721   3.329   3.981  0.2500  0.2158 -0.4123
  201MOL    C1744417   1.608   3.401   4.183  0.3896  0.0935 -0.0534
  201MOL    H1844418   1.453   3.023   4.051  1.5894 -0.8920 -1.0618
  201MOL    H1944419   1.467   3.117   4.193  0.3165 -2.7136  0.9728
  201MOL    H2044420   1.531   3.203   3.911 -0.8488  0.0598  0.4556
  201MOL    H2144421   1.657   3.498   4.179  1.8913 -0.6650 -0.2631
  201MOL    H2244422   1.501   3.411   4.201  0.3420 -0.7441  0.1382
  201MOL    H2344423   1.668   3.347   4.256  1.0906  0.2833 -0.4875
  201MOL    C2444424   1.362   3.287   4.011  0.4916  0.0301 -0.3035
  201MOL    C2544425   1.338   3.428   3.945 -0.6169  1.0070  0.3020
  201MOL    C2644426   1.355   3.412   3.793 -0.4059 -0.4519 -0.1028
  201MOL    O2744427   1.314   3.313   3.741  0.3674  0.1434 -0.0553
  201MOL    C2844428   1.420   3.526   3.713  0.2050 -0.0893  0.4385
  201MOL    H2944429   1.289   3.217   3.971  2.2630 -1.0663 -1.6753
  201MOL    H3044430   1.332   3.299   4.115  0.6482 -0.5119 -0.1953
  201MOL    H3144431   1.402   3.507   3.983  0.9023 -0.2630  0.4403
  201MOL    H3244432   1.397   3.627   3.746 -0.9958  0.1367 -1.0246
  201MOL    H3344433   1.524   3.528   3.743 -0.0588 -0.6657  1.4284
  201MOL    H3444434   1.399   3.527   3.606  1.4522 -1.1337  0.1786
  201MOL    C3544435   1.193   3.476   3.977 -0.1805 -0.2488 -0.2217
  201MOL    C3644436   1.177   3.633   3.951  0.0431 -0.1218 -0.1320
  201MOL    C3744437   1.037   3.673   3.909  0.0085  0.5948 -0.3065
  201MOL    O3844438   0.943   3.596   3.939 -0.0884  0.1000 -0.1904
  201MOL    C3944439   1.015   3.804   3.833  0.6964  0.3821 -0.8754
  201MOL    H4044440   1.172   3.458   4.083  0.6876  0.8908  0.1542
  201MOL    H4144441   1.124   3.413   3.921 -0.5903  0.3707 -0.4226
  201MOL    H4244442   1.236   3.653   3.861  2.5647 -0.1250  1.4650
  201MOL    H4344443   1.019   3.779   3.727 -2.7296 -2.6161 -0.4083
  201MOL    H4444444   1.089   3.876   3.867 -0.0613  0.7337  0.0301
  201MOL    H4544445   0.917   3.839   3.865  0.2516 -0.7896 -0.9190
  201MOL    C4644446   1.226   3.723   4.070  0.5380  0.4154  0.6715
  201MOL    C4744447   1.120   3.760   4.181  0.2622  0.0710 -0.2966
  201MOL    C4844448   1.082   3.636   4.257 -0.4376  0.1158 -0.2302
  201MOL    O4944449   1.168   3.564   4.306  0.6187  0.1349 -0.4833
  201MOL    C5044450   0.932   3.604   4.269  0.0461  0.2316 -0.1979
  201MOL    H5144451   1.270   3.815   4.031 -0.4200  0.4056 -0.4733
  201MOL    H5244452   1.316   3.676   4.110 -0.7718 -1.8766  1.0200
  201MOL    H5344453   1.028   3.791   4.133  0.6611  0.8951 -0.5467
  201MOL    H5444454   0.917   3.498   4.294 -1.9897  0.1224 -1.7789
  201MOL    H5544455   0.910   3.640   4.370  1.4925  0.4008  0.0658
  201MOL    H5644456   0.864   3.634   4.190  0.2004 -0.3882 -0.5729
  201MOL    C5744457   1.168   3.865   4.278  0.1441  0.0049 -0.5575
  201MOL    C5844458   1.068   3.913   4.384 -0.1839  0.0162  0.5453
  201MOL    C5944459   1.141   3.998   4.489 -0.2617  0.0950 -0.7766
  201MOL    O6044460   1.201   4.099   4.457  0.2872 -0.0628  0.0004
  201MOL    C6144461   1.149   3.926   4.629  0.7345  0.2931  0.6688
  201MOL    H6244462   1.198   3.953   4.221 -0.7441  0.7812  0.1592
  201MOL    H6344463   1.256   3.832   4.333 -0.7425 -1.7476 -0.1503
  201MOL    H6444464   1.026   3.830   4.440  1.5257 -2.6304 -1.9200
  201MOL    H6544465   1.053   3.876   4.642  0.1314  0.7813 -1.6840
  201MOL    H6644466   1.230   3.853   4.629  0.9224  0.4920  1.2612
  201MOL    H6744467   1.162   3.990   4.717 -0.6114  0.9843  0.3812
  201MOL    C6844468   0.957   4.001   4.321  0.0106 -0.3147 -0.3054
  201MOL    C6944469   0.859   4.069   4.421 -0.4403 -0.0874 -0.6160
  201MOL    C7044470   0.763   3.977   4.499  0.3147 -0.1730  0.2738
  201MOL    O7144471   0.761   3.857   4.477  0.1231  0.1757 -0.2778
  201MOL    C7244472   0.665   4.042   4.601  0.3166  0.3176 -0.1609
  201MOL    H7344473   1.010   4.084   4.274  0.0169  1.1112  2.1308
  201MOL    H7444474   0.902   3.948   4.244 -0.9538 -1.6940  1.2905
  201MOL    H7544475   0.912   4.126   4.496 -0.0911  2.1023 -2.4726
  201MOL    H7644476   0.592   3.967   4.628 -0.5217  1.4379  0.7373
  201MOL    H7744477   0.707   4.093   4.688 -1.4234  1.1024  0.2493
  201MOL    H7844478   0.602   4.114   4.548 -0.2037  0.9404  1.2649
  201MOL    C7944479   0.777   4.179   4.355  0.8302  0.3574 -0.0983
  201MOL    C8044480   0.663   4.128   4.263 -0.2880 -0.3630  0.7392
  201MOL    C8144481   0.710   4.096   4.121  0.4064  0.5907 -1.4406
  201MOL    O8244482   0.816   4.140   4.077 -0.0295  0.0020 -0.1333
  201MOL    C8344483   0.618   4.010   4.027 -0.3855 -0.4379  0.9226
  201MOL    H8444484   0.844   4.251   4.307  0.4492  2.3227  2.2226
  201MOL    H8544485   0.742   4.242   4.437 -0.3706  1.5159 -1.4513
  201MOL    H8644486   0.619   4.037   4.304 -1.1511  0.1187  0.8966
  201MOL    H8744487   0.569   3.924   4.072 -2.2329 -0.9596 -1.9511
  201MOL    H8844488   0.668   3.963   3.942 -0.4880 -2.1209  1.7616
  201MOL    H8944489   0.531   4.066   3.993  0.8752  1.4246  0.7007
  201MOL    C9044490   0.550   4.231   4.272  0.3379 -0.2416  0.1380
  201MOL    C9144491   0.408   4.198   4.235 -0.7853 -0.3511 -0.0851
  201MOL    C9244492   0.362   4.058   4.290 -0.4249 -0.1925 -1.1119
  201MOL    O9344493   0.408   4.019   4.401 -0.2738 -0.2104 -0.3546
  201MOL    C9444494   0.276   3.971   4.204  0.5399  0.0124  0.4991
  201MOL    H9544495   0.553   4.273   4.373 -0.3000  1.7244 -0.6328
  201MOL    H9644496   0.585   4.309   4.205  0.3248 -0.7404 -0.4472
  201MOL    H9744497   0.409   4.191   4.126 -1.2060 -1.1742 -0.0380
  201MOL    H9844498   0.324   3.919   4.121 -0.8570  0.8969 -0.8757
  201MOL    H9944499   0.241   3.893   4.271 -0.6464 -2.8407 -3.2990
  201MOL   H10044500   0.188   4.015   4.157  0.7841  2.1069  1.9355
  201MOL   C10144501   0.301   4.297   4.276 -0.1265  0.1486  0.3171
  201MOL   C10244502   0.315   4.443   4.214 -0.5934  0.2193  0.4177
  201MOL   C10344503   0.316   4.553   4.325  0.1042 -0.3089 -0.1783
  201MOL   O10444504   0.224   4.640   4.327 -0.3464 -0.3213 -0.1328
  201MOL   C10544505   0.425   4.543   4.430 -0.2561 -0.0597  0.8607
  201MOL   H10644506   0.209   4.258   4.233  0.7326 -1.6839  0.1182
  201MOL   H10744507   0.280   4.294   4.383  2.6522  0.8124  0.9297
  201MOL   H10844508   0.415   4.437   4.172 -0.9096  0.0302 -0.3124
  201MOL   H10944509   0.410   4.622   4.504  2.1261 -0.2496  1.5847
  201MOL   H11044510   0.429   4.451   4.487 -0.1901 -0.3511  0.3857
  201MOL   H11144511   0.523   4.566   4.387 -0.0735 -1.2256  0.6369
  201MOL   C11244512   0.208   4.467   4.112  0.1426 -0.3568  0.5503
  201MOL   C11344513   0.220   4.587   4.007  0.2027 -0.6588 -0.3298
  201MOL   C11444514   0.088   4.597   3.928 -0.0275 -0.3607 -0.3156
  201MOL   O11544515   0.006   4.506   3.917  0.4993  0.0873 -0.1034
  201MOL   C11644516   0.061   4.718   3.850  0.1028 -0.0774  0.1846
  201MOL   H11744517   0.111   4.481   4.159 -0.4561 -0.0848 -0.7190
  201MOL   H11844518   0.209   4.374   4.056  0.4332 -0.2971  0.4551
  201MOL   H11944519   0.234   4.681   4.061 -0.1843 -0.2837 -0.8711
  201MOL   H12044520   0.094   4.693   3.749  2.5394  0.0642  0.9340
  201MOL   H12144521   7.812   4.742   3.852  0.2591  0.6082  0.6063
  201MOL   H12244522   0.122   4.806   3.872  1.6896 -0.9545 -0.6367
  201MOL   C12344523   0.342   4.582   3.908 -0.1839  0.3393  0.5271
  201MOL   C12444524   0.340   4.491   3.785  0.2794  0.0989 -0.0815
  201MOL   C12544525   0.335   4.343   3.818  0.0992 -0.3629  0.3213
  201MOL   O12644526   0.414   4.288   3.891 -0.6880 -0.4186  0.2066
  201MOL   C12744527   0.207   4.270   3.781 -0.2192 -0.0156 -0.0594
  201MOL   H12844528   0.430   4.566   3.971  1.0328 -1.3882 -1.5286
  201MOL   H12944529   0.342   4.686   3.877  0.6281  0.3266  0.4742
  201MOL   H13044530   0.245   4.509   3.735  0.5185 -3.1251 -1.8400
  201MOL   H13144531   0.183   4.199   3.861  0.1245  0.4153  0.4230
  201MOL   H13244532   0.231   4.217   3.688  2.7387  1.8236 -0.3970
  201MOL   H13344533   0.127   4.340   3.758 -1.5950 -1.5876 -0.2123
  201MOL   C13444534   0.444   4.519   3.675  0.3109  0.4464 -0.7835
  201MOL   C13544535   0.417   4.654   3.607  0.0187  0.5728 -0.7521
  201MOL   C13644536   0.514   4.770   3.651 -0.1114  0.3459 -0.0060
  201MOL   O13744537   0.623   4.750   3.703  0.6193  0.1789  0.1664
  201MOL   C13844538   0.479   4.913   3.620 -0.5923 -0.6806  0.2034
  201MOL   H13944539   0.449   4.437   3.604  0.8600  1.0044 -1.3953
  201MOL   H14044540   0.538   4.533   3.728  0.1038  1.1398 -0.5987
  201MOL   H14144541   0.322   4.691   3.648  0.4115  0.4739  0.2632
  201MOL   H14244542   0.513   4.978   3.700 -3.2947 -3.4716  3.8013
  201MOL   H14344543   0.371   4.925   3.607 -0.3620  2.3253  0.6917
  201MOL   H14444544   0.528   4.947   3.528 -1.2057 -0.7491 -0.1511
  201MOL   C14544545   0.410   4.649   3.457 -0.2505 -0.3861  0.6792
  201MOL   C14644546   0.306   4.551   3.397 -0.1796  0.1054 -0.1867
  201MOL   C14744547   0.186   4.633   3.339  0.5783 -0.0228 -0.2415
  201MOL   O14844548   0.181   4.661   3.222  0.0163  0.5490  0.2924
  201MOL   C14944549   0.081   4.676   3.443  0.4673 -0.3055 -0.0349
  201MOL   H15044550   0.509   4.628   3.415 -1.2269  1.1716 -2.5747
  201MOL   H15144551   0.401   4.750   3.419 -1.6521 -1.1282 -1.0487
  201MOL   H15244552   0.269   4.487   3.477  1.3523 -0.9221 -0.2694
  201MOL   H15344553   7.836   4.679   3.405  0.6180  1.2835 -0.3820
  201MOL   H15444554   0.096   4.620   3.535 -0.5484 -0.3902  0.0860
  201MOL   H15544555   0.097   4.780   3.471  0.0929 -0.4197  0.6226
  201MOL   C15644556   0.361   4.456   3.290 -0.3642  0.3076  0.2368
  201MOL   C15744557   0.273   4.338   3.245  0.3235  0.2999 -0.2630
  201MOL   C15844558   0.245   4.242   3.360  0.6838 -0.0687  0.8309
  201MOL   O15944559   0.312   4.237   3.464 -0.6796  0.5778 -0.4690
  201MOL   C16044560   0.122   4.158   3.353 -0.0154  0.3441 -0.1560
  201MOL   H16144561   0.399   4.505   3.201  0.4489 -1.9177 -0.6788
  201MOL   H16244562   0.439   4.409   3.351 -2.3754 -0.1174  2.5774
  201MOL   H16344563   0.172   4.368   3.218  1.1240  0.7447 -2.8951
  201MOL   H16444564   0.035   4.213   3.316  0.6956  1.0275 -0.8303
  201MOL   H16544565   0.108   4.115   3.452  1.6708 -0.8521 -0.4214
  201MOL   H16644566   0.134   4.081   3.278 -0.9196 -0.2991  0.3517
  201MOL   C16744567   0.329   4.265   3.129 -0.2467  0.0100 -0.0218
  201MOL   C16844568   0.356   4.346   3.001 -0.2253  0.4817  0.3164
  201MOL   C16944569   0.242   4.443   2.961 -0.6756  0.4213  0.3560
  201MOL   O17044570   0.125   4.398   2.964  0.4488  0.0423 -0.3153
  201MOL   C17144571   0.277   4.575   2.900 -0.9264  0.4117  0.7804
  201MOL   H17244572   0.415   4.205   3.156 -0.3395 -1.2299 -2.3351
  201MOL   H17344573   0.260   4.184   3.104 -1.8247  1.3587 -0.1492
  201MOL   H17444574   0.443   4.405   3.032  1.0482 -1.1777 -0.0021
  201MOL   H17544575   0.361   4.547   2.837 -1.3641  2.4484 -0.7624
  201MOL   H17644576   0.306   4.656   2.968  0.2712  0.9729 -0.3917
  201MOL   H17744577   0.194   4.618   2.843 -0.5655 -1.3792 -1.1037
  201MOL   C17844578   0.401   4.258   2.887 -0.8364  0.1634  0.3411
  201MOL   C17944579   0.552   4.210   2.886 -0.3478 -0.3256  0.2306
  201MOL   C18044580   0.648   4.330   2.850 -0.4872 -0.1381 -0.3917
  201MOL   O18144581   0.614   4.445   2.841 -0.1958  0.1492  0.1127
  201MOL   C18244582   0.796   4.299   2.822 -0.2729  0.1970 -0.0195
  201MOL   H18344583   0.336   4.172   2.873 -1.3640  1.1628 -4.1080
  201MOL   H18444584   0.389   4.304   2.790  0.1757  0.0634  0.1595
  201MOL   H18544585   0.583   4.165   2.980 -0.4674  0.4149  0.6302
  201MOL   H18644586   0.817   4.207   2.877 -1.9347  0.0389  0.3531
  201MOL   H18744587   0.859   4.371   2.873  0.1858 -0.2125 -0.0030
  201MOL   H18844588   0.821   4.283   2.717  0.6698  2.2329 -0.1282
  201MOL   C18944589   0.567   4.093   2.785 -0.0553 -0.1494 -0.6704
  201MOL   C19044590   0.520   4.108   2.637 -0.4046 -0.0731  0.4123
  201MOL   C19144591   0.612   4.199   2.556 -0.6301 -0.6683  0.6610
  201MOL   O19244592   0.716   4.155   2.505  0.0311 -0.2050 -0.3800
  201MOL   C19344593   0.566   4.340   2.524 -0.1827  0.1135 -0.0948
  201MOL   H19444594   0.672   4.065   2.784 -0.1167 -0.4688  0.4706
  201MOL   H19544595   0.503   4.022   2.837 -1.5509  1.6687  0.0645
  201MOL   H19644596   0.422   4.157   2.641  0.0358  0.8867 -0.3236
  201MOL   H19744597   0.480   4.375   2.583  0.4882  2.5223 -0.4710
  201MOL   H19844598   0.647   4.407   2.550 -0.3877  0.7129 -0.9682
  201MOL   H19944599   0.548   4.365   2.419 -0.3681  1.1749  0.1866
  201MOL   C20044600   0.508   3.963   2.571 -0.6125  1.0165 -0.8291
  201MOL   C20144601   0.452   3.946   2.426  0.2337 -0.9174  0.2182
  201MOL   C20244602   0.311   4.014   2.412 -0.1711  0.5719 -0.0043
  201MOL   O20344603   0.207   3.953   2.443  0.4108  0.2596  0.6844
  201MOL   C20444604   0.305   4.157   2.358  0.4743  0.1308 -0.2229
  201MOL   H20544605   0.598   3.901   2.574 -0.5732  1.0556 -1.1711
  201MOL   H20644606   0.441   3.901   2.632  1.1173  0.6896  0.7791
  201MOL   H20744607   0.515   4.013   2.368 -2.0544  3.2982  2.3875
  201MOL   H20844608   0.244   4.211   2.431 -1.3066  0.9732 -2.2698
  201MOL   H20944609   0.396   4.213   2.337 -0.5311  2.0510  0.4058
  201MOL   H21044610   0.242   4.148   2.269  0.6135  0.3494 -0.3445
  201MOL   C21144611   0.444   3.799   2.372  0.1918  0.8960 -0.1757
  201MOL   C21244612   0.418   3.783   2.221  0.1906  0.6300  0.6675
  201MOL   C21344613   0.441   3.638   2.178  0.7083  0.2142  0.0933
  201MOL   O21444614   0.362   3.564   2.120 -0.1495  0.3087  0.1965
  201MOL   C21544615   0.591   3.600   2.180  0.4707  0.5773 -0.0067
  201MOL   H21644616   0.543   3.756   2.391 -0.0581  1.3678  2.3612
  201MOL   H21744617   0.375   3.740   2.432 -0.1659  0.4516 -1.0230
  201MOL   H21844618   0.480   3.837   2.150 -0.2351 -1.0257 -1.0081
  201MOL   H21944619   0.607   3.513   2.244 -1.0735 -0.7220 -1.3249
  201MOL   H22044620   0.613   3.568   2.078 -2.3093  1.0184 -0.7961
  201MOL   H22144621   0.649   3.684   2.216  0.2493  0.5462  0.4276
  201MOL   H22244622   0.315   3.812   2.199  0.0854 -0.6915 -0.6750
  202MOL     C144623   1.410   3.452   6.051  0.0643  1.1281  0.2097
  202MOL     C244624   1.361   3.539   6.161  0.0393 -0.2728  0.4660
  202MOL     C344625   1.326   3.454   6.284 -0.0537 -0.4339 -0.2556
  202MOL     O444626   1.312   3.500   6.399  0.3288  0.2247  0.3078
  202MOL     C544627   1.282   3.320   6.256  0.2528  0.0094  0.3669
  202MOL     H644628   1.335   3.393   5.999  0.2502  0.3862  0.7845
  202MOL     H744629   1.496   3.389   6.073 -0.9783  0.0182  1.1238
  202MOL     H844630   1.268   3.590   6.136 -1.1519 -1.5382  2.1681
  202MOL     H944631   1.367   3.262   6.220  0.5396  1.5307 -1.4782
  202MOL    H1044632   1.245   3.281   6.350 -1.8534  0.1388 -0.3783
  202MOL    H1144633   1.209   3.317   6.175  1.2121  2.5558 -0.6602
  202MOL    H1244634   1.458   3.511   5.972  0.7226  0.1463 -0.1317
  202MOL    C1344635   1.462   3.654   6.193 -0.6575 -0.5025  0.0438
  202MOL    C1444636   1.394   3.770   6.276  0.3331 -0.6461  0.0959
  202MOL    C1544637   1.300   3.856   6.192 -0.7905 -0.0260  0.3082
  202MOL    O1644638   1.263   3.813   6.080 -0.5649  0.0257 -0.4170
  202MOL    C1744639   1.239   3.989   6.244  0.1720 -0.8113  0.4094
  202MOL    H1844640   1.537   3.599   6.251  0.4778  1.0175  0.0621
  202MOL    H1944641   1.508   3.690   6.100  0.6928  0.7415  1.1578
  202MOL    H2044642   1.336   3.737   6.362  1.5247  1.4946  1.7909
  202MOL    H2144643   1.300   4.076   6.222 -1.5269 -0.0858 -1.5376
  202MOL    H2244644   1.140   4.001   6.200 -0.3108 -1.8106  1.1757
  202MOL    H2344645   1.230   3.980   6.353  1.6452 -0.1495  0.5870
  202MOL    C2444646   1.502   3.866   6.342  0.3757 -0.2682 -0.6519
  202MOL    C2544647   1.620   3.904   6.254 -0.1519  0.3108  0.2754
  202MOL    C2644648   1.574   4.018   6.159 -0.0303 -0.3550 -0.0876
  202MOL    O2744649   1.554   4.135   6.200 -0.0559  0.1200  0.4094
  202MOL    C2844650   1.572   3.980   6.014  0.0069  0.2198  0.1045
  202MOL    H2944651   1.454   3.952   6.388  1.6361  0.2531 -0.2779
  202MOL    H3044652   1.540   3.809   6.427 -3.1070 -2.4083 -0.4254
  202MOL    H3144653   1.657   3.813   6.207 -1.4708 -0.5888  0.9367
  202MOL    H3244654   1.469   3.974   5.979 -0.4754 -2.5911  1.8889
  202MOL    H3344655   1.627   4.056   5.959  1.0457  0.1465  1.0227
  202MOL    H3444656   1.620   3.884   5.997  0.2721  0.4707 -0.5576
  202MOL    C3544657   1.737   3.959   6.341  0.4997 -0.0042 -0.1723
  202MOL    C3644658   1.886   3.958   6.287  0.3346 -0.5454 -0.3015
  202MOL    C3744659   1.909   3.821   6.228 -0.9574 -0.0888  0.3413
  202MOL    O3844660   1.867   3.800   6.113  0.0136  0.0085 -0.0796
  202MOL    C3944661   1.974   3.715   6.318  0.1431 -0.0012 -0.3778
  202MOL    H4044662   1.744   3.894   6.429 -2.6956 -0.3735 -0.1548
  202MOL    H4144663   1.706   4.057   6.378 -1.3523 -0.2659 -0.9798
  202MOL    H4244664   1.940   3.979   6.379 -0.1483  2.3175 -0.6263
  202MOL    H4344665   1.928   3.619   6.297 -1.2753  0.4330  0.6440
  202MOL    H4444666   1.958   3.723   6.426 -1.8088 -1.0368 -0.5638
  202MOL    H4544667   2.080   3.706   6.297  0.3782  1.2482  0.2073
  202MOL    C4644668   1.903   4.075   6.191  0.0531  0.1163 -0.3758
  202MOL    C4744669   2.043   4.141   6.165  0.1133  0.7958 -0.2279
  202MOL    C4844670   2.108   4.196   6.295  0.5196 -0.0358  0.8665
  202MOL    O4944671   2.200   4.142   6.365  0.3446  0.2787  0.5525
  202MOL    C5044672   2.050   4.331   6.346  0.0656  0.4207 -0.3586
  202MOL    H5144673   1.839   4.159   6.219 -3.5757 -2.6626 -0.0981
  202MOL    H5244674   1.866   4.046   6.093  0.2165  1.5332 -0.8705
  202MOL    H5344675   2.026   4.228   6.102  0.1657  0.5580 -0.5735
  202MOL    H5444676   1.944   4.333   6.322 -0.8763  0.7423  3.6016
  202MOL    H5544677   2.062   4.340   6.454  0.4465  2.5510 -0.5587
  202MOL    H5644678   2.104   4.417   6.305 -0.0985  0.8800  0.3860
  202MOL    C5744679   2.142   4.050   6.093  0.5629  0.0864 -0.5034
  202MOL    C5844680   2.281   4.106   6.049 -0.4823 -1.0344 -0.0416
  202MOL    C5944681   2.388   4.002   6.080 -0.1873 -0.5508  0.4332
  202MOL    O6044682   2.438   3.943   5.988  0.1810  0.0803  0.2872
  202MOL    C6144683   2.425   3.981   6.228  0.5140  0.1128 -0.4384
  202MOL    H6244684   2.096   4.023   5.998  0.3929 -0.1255 -0.3620
  202MOL    H6344685   2.145   3.955   6.147 -0.2114  0.3632  0.0425
  202MOL    H6444686   2.301   4.188   6.117 -1.8037 -0.1710 -0.6869
  202MOL    H6544687   2.427   4.078   6.278  1.4963 -0.5396  0.7915
  202MOL    H6644688   2.353   3.927   6.289  0.4905  1.5396  0.8433
  202MOL    H6744689   2.521   3.931   6.221 -1.0118 -2.8431 -0.6871
  202MOL    C6844690   2.269   4.149   5.902 -0.7659  0.8638 -0.4661
  202MOL    C6944691   2.353   4.270   5.863  0.4548  0.3178  0.4397
  202MOL    C7044692   2.278   4.405   5.903 -0.1305  1.0893 -0.9260
  202MOL    O7144693   2.206   4.462   5.824 -0.1363  0.4449 -0.0068
  202MOL    C7244694   2.310   4.473   6.038  0.1747 -0.4244 -0.0275
  202MOL    H7344695   2.280   4.066   5.832 -1.1720  1.6261 -1.4442
  202MOL    H7444696   2.167   4.178   5.876 -0.2707  1.2924 -2.0007
  202MOL    H7544697   2.440   4.253   5.926  0.4284  2.7464  1.1821
  202MOL    H7644698   2.314   4.399   6.117  1.0458  0.2789  0.6049
  202MOL    H7744699   2.400   4.532   6.017 -1.4444  2.0467 -0.2794
  202MOL    H7844700   2.241   4.551   6.068 -1.3675 -1.1880 -1.4834
  202MOL    C7944701   2.386   4.276   5.712 -0.4655 -0.9239  0.2375
  202MOL    C8044702   2.499   4.182   5.659  0.4099 -0.0633  0.1148
  202MOL    C8144703   2.638   4.233   5.684  0.3671 -0.5648 -0.1260
  202MOL    O8244704   2.660   4.353   5.677 -0.1408 -0.5540 -0.5033
  202MOL    C8344705   2.748   4.135   5.729 -0.5079 -0.7071  0.3286
  202MOL    H8444706   2.399   4.379   5.680  0.0303 -1.6485 -2.0230
  202MOL    H8544707   2.295   4.255   5.655  0.1271  1.2138 -1.5545
  202MOL    H8644708   2.482   4.101   5.731  0.0687  2.0876  2.5108
  202MOL    H8744709   2.708   4.089   5.819 -0.2862  0.1346  0.8693
  202MOL    H8844710   2.835   4.199   5.744 -1.5281  1.4204 -2.3710
  202MOL    H8944711   2.765   4.064   5.649 -0.1242  2.8766 -2.9175
  202MOL    C9044712   2.472   4.139   5.514 -1.0351 -0.3173  0.0745
  202MOL    C9144713   2.365   4.026   5.502 -0.5809 -0.2024 -0.5998
  202MOL    C9244714   2.289   4.052   5.367  0.0400 -0.3705  0.4697
  202MOL    O9344715   2.336   4.052   5.251  0.4118 -0.0350 -0.1324
  202MOL    C9444716   2.141   4.067   5.376 -0.1764 -0.4428  0.0502
  202MOL    H9544717   2.430   4.228   5.468  1.1484  0.4652 -0.4384
  202MOL    H9644718   2.560   4.100   5.463 -1.3881 -0.5936 -0.3352
  202MOL    H9744719   2.292   4.034   5.583 -1.1009 -0.6261 -1.0276
  202MOL    H9844720   2.091   4.004   5.450  1.9526 -0.2642  1.6936
  202MOL    H9944721   2.124   4.165   5.420  1.9559 -0.0168  0.0166
  202MOL   H10044722   2.103   4.044   5.277  2.5600 -2.1458 -0.6721
  202MOL   C10144723   2.421   3.876   5.518  0.1679 -1.0387 -0.5053
  202MOL   C10244724   2.323   3.760   5.531  0.7689 -0.2926  0.2936
  202MOL   C10344725   2.294   3.721   5.679 -0.4659 -0.0354 -0.3064
  202MOL   O10444726   2.364   3.648   5.745 -0.0688  0.5626  0.1843
  202MOL   C10544727   2.197   3.812   5.752 -0.0987  0.3464  0.1727
  202MOL   H10644728   2.481   3.861   5.428  1.5023  3.7513 -0.5112
  202MOL   H10744729   2.504   3.866   5.588  2.6951  2.4588 -2.8546
  202MOL   H10844730   2.224   3.795   5.501  0.8112  0.5170  1.0794
  202MOL   H10944731   2.125   3.744   5.798  0.2520 -0.3456 -0.2942
  202MOL   H11044732   2.251   3.871   5.826 -0.7377 -1.1051  1.8210
  202MOL   H11144733   2.152   3.883   5.682  0.1016  1.8356  1.5215
  202MOL   C11244734   2.348   3.637   5.436  0.6821  0.8511  0.2986
  202MOL   C11344735   2.300   3.666   5.295 -0.3444 -0.3726 -0.2070
  202MOL   C11444736   2.148   3.634   5.296  0.8434 -0.8427  0.2838
  202MOL   O11544737   2.104   3.531   5.349 -0.8971 -0.6030  0.5712
  202MOL   C11644738   2.055   3.733   5.223  0.2088  0.2516  0.2952
  202MOL   H11744739   2.308   3.548   5.484  0.1325  1.2169  0.5313
  202MOL   H11844740   2.454   3.615   5.427  0.5036 -0.3998  1.1376
  202MOL   H11944741   2.319   3.773   5.290 -1.1841 -0.3154 -2.3242
  202MOL   H12044742   1.995   3.671   5.157  0.7501  0.3979 -0.3424
  202MOL   H12144743   1.975   3.776   5.285 -0.4517  1.0878 -1.1034
  202MOL   H12244744   2.094   3.825   5.179  1.8254 -0.1805  0.8050
  202MOL   C12344745   2.390   3.594   5.190  0.0769 -0.9032  0.2885
  202MOL   C12444746   2.351   3.601   5.039  0.0526  0.8394 -0.0717
  202MOL   C12544747   2.451   3.515   4.957 -0.1881 -0.7018  0.1578
  202MOL   O12644748   2.541   3.562   4.891  0.1907 -0.3800  0.3096
  202MOL   C12744749   2.438   3.368   4.976 -0.2375 -0.4093 -0.1845
  202MOL   H12844750   2.420   3.495   5.223  1.8231  0.0915  1.8095
  202MOL   H12944751   2.486   3.647   5.192 -0.1127 -0.5362 -0.0913
  202MOL   H13044752   2.247   3.570   5.027 -0.1544  0.8891  1.5740
  202MOL   H13144753   2.533   3.318   4.961  0.2864  0.6161 -0.3502
  202MOL   H13244754   2.385   3.329   4.889 -2.4104 -1.5191  1.5694
  202MOL   H13344755   2.387   3.326   5.063 -1.4272  1.4296  0.0391
  202MOL   C13444756   2.357   3.752   4.986 -0.0964  0.6349  0.1910
  202MOL   C13544757   2.313   3.781   4.836 -0.7393 -0.1568 -0.3237
  202MOL   C13644758   2.161   3.751   4.822 -0.6956 -0.7111  0.6510
  202MOL   O13744759   2.089   3.716   4.917  0.1589 -0.3611 -0.0708
  202MOL   C13844760   2.107   3.755   4.680 -0.5316 -0.0684 -0.9942
  202MOL   H13944761   2.453   3.800   4.999 -0.0623  1.7099 -3.5879
  202MOL   H14044762   2.292   3.811   5.051  0.3297  0.9027  0.3720
  202MOL   H14144763   2.352   3.719   4.755  0.1332 -1.9919  1.4469
  202MOL   H14244764   2.008   3.710   4.677  0.6442 -2.9771  1.6733
  202MOL   H14344765   2.166   3.683   4.623  0.6553  0.0302  0.0907
  202MOL   H14444766   2.113   3.857   4.642  0.0204  0.4608  0.4662
  202MOL   C14544767   2.343   3.932   4.798 -1.0086  0.4016  0.1991
  202MOL   C14644768   2.490   3.973   4.792  0.4233 -0.3152  0.1128
  202MOL   C14744769   2.582   3.886   4.708  0.4729 -0.2639  0.4029
  202MOL   O14844770   2.570   3.882   4.582 -0.3591 -0.1215 -0.2075
  202MOL   C14944771   2.692   3.813   4.783  0.1993 -0.1280  0.3496
  202MOL   H15044772   2.283   3.990   4.868 -1.1725 -0.4618  0.7732
  202MOL   H15144773   2.290   3.950   4.705  0.6150 -1.5797 -1.1555
  202MOL   H15244774   2.533   3.975   4.892 -1.2378 -1.4152  0.8874
  202MOL   H15344775   2.718   3.722   4.728  0.1090 -0.0858  0.2362
  202MOL   H15444776   2.775   3.883   4.787 -0.6750  0.9469 -0.2286
  202MOL   H15544777   2.664   3.784   4.884  1.3344  1.4658  1.1394
  202MOL   C15644778   2.489   4.121   4.740 -0.0782  0.2150 -0.5046
  202MOL   C15744779   2.459   4.225   4.847  0.4004 -0.1767  0.1929
  202MOL   C15844780   2.317   4.280   4.855 -0.2694  0.2707  0.3363
  202MOL   O15944781   2.253   4.324   4.758 -0.1620  0.6383  0.0821
  202MOL   C16044782   2.247   4.271   4.995 -0.4282  0.7718  0.1284
  202MOL   H16144783   2.587   4.144   4.697 -0.2397  0.9973 -0.4617
  202MOL   H16244784   2.432   4.144   4.650 -0.9334 -0.3651 -0.1178
  202MOL   H16344785   2.452   4.173   4.942 -0.7514 -0.2047  0.0937
  202MOL   H16444786   2.329   4.261   5.065 -0.0127  0.8570 -0.3416
  202MOL   H16544787   2.182   4.183   4.996  1.8336 -0.9277  1.1736
  202MOL   H16644788   2.186   4.355   5.027 -0.4839  0.2265  1.4629
  202MOL   C16744789   2.571   4.328   4.872 -0.0227  0.5644  0.3907
  202MOL   C16844790   2.606   4.417   4.745 -0.1426  0.3229 -0.3044
  202MOL   C16944791   2.729   4.363   4.675 -0.6184 -0.6711 -0.6211
  202MOL   O17044792   2.837   4.361   4.729 -0.0661 -0.7027 -0.2560
  202MOL   C17144793   2.723   4.324   4.528  0.4896  0.0374  0.3716
  202MOL   H17244794   2.542   4.391   4.956 -0.0944 -0.5929  1.2343
  202MOL   H17344795   2.662   4.272   4.891 -0.9777 -1.6135 -1.2065
  202MOL   H17444796   2.524   4.406   4.674 -2.2278 -0.4031  2.1333
  202MOL   H17544797   2.825   4.344   4.495  1.1310  1.5192  3.1143
  202MOL   H17644798   2.653   4.386   4.471  0.1770 -2.0473 -1.5632
  202MOL   H17744799   2.685   4.223   4.516 -3.1526  1.5104 -1.4325
  202MOL   C17844800   2.627   4.562   4.778 -0.2427  0.8950  0.4067
  202MOL   C17944801   2.491   4.636   4.795 -0.2269  0.6114 -0.1711
  202MOL   C18044802   2.445   4.713   4.668 -0.3881 -0.2396 -0.4846
  202MOL   O18144803   2.517   4.734   4.570  0.1004  0.0282  0.6135
  202MOL   C18244804   2.293   4.742   4.668 -0.9130 -0.0136  0.6542
  202MOL   H18344805   2.691   4.575   4.866  3.0621 -0.5803 -1.6487
  202MOL   H18444806   2.687   4.613   4.703 -0.8012  0.7103 -0.1664
  202MOL   H18544807   2.405   4.576   4.824 -0.0355  0.6571  0.5140
  202MOL   H18644808   2.285   4.826   4.599  1.6783  1.1423  1.6742
  202MOL   H18744809   2.267   4.756   4.773  0.6147  0.5389  0.9846
  202MOL   H18844810   2.229   4.666   4.624  0.4547  0.4351 -2.2386
  202MOL   C18944811   2.511   4.744   4.904  0.4769  0.3244  0.3931
  202MOL   C19044812   2.526   4.689   5.049  0.0117  0.2357 -0.2024
  202MOL   C19144813   2.590   4.794   5.136 -0.1512  0.0747  0.2282
  202MOL   O19244814   2.699   4.769   5.199 -0.1406  0.2566  0.0520
  202MOL   C19344815   2.525   4.934   5.142  0.0986  0.3537 -0.3199
  202MOL   H19444816   2.596   4.809   4.882  1.1524  0.2825  2.7955
  202MOL   H19544817   2.422   4.807   4.907  1.6657  2.3014 -2.9480
  202MOL   H19644818   2.597   4.606   5.036  0.6470  1.0557 -2.1156
  202MOL   H19744819   2.423   4.925   5.177  0.5712  0.6537  1.1719
  202MOL   H19844820   2.581   5.007   5.201 -1.0629  0.6692  0.4050
  202MOL   H19944821   2.518   4.973   5.040 -1.8304  2.1275  0.4695
  202MOL   C20044822   2.396   4.626   5.113 -0.4859 -0.4373  0.2794
  202MOL   C20144823   2.395   4.579   5.260  0.1935 -0.2756 -0.3717
  202MOL   C20244824   2.497   4.471   5.284  0.8741  0.7507  0.3942
  202MOL   O20344825   2.527   4.385   5.202  0.5963 -0.5696  0.4088
  202MOL   C20444826   2.571   4.476   5.415  0.3448 -0.4663  0.3978
  202MOL   H20544827   2.308   4.687   5.094  0.2986  1.6282  2.9391
  202MOL   H20644828   2.386   4.535   5.053 -1.1820 -2.2878  3.1213
  202MOL   H20744829   2.406   4.660   5.332  0.1413 -1.0112  0.4675
  202MOL   H20844830   2.650   4.401   5.414 -0.2912 -1.1496 -2.2048
  202MOL   H20944831   2.608   4.579   5.408 -0.8747 -0.1300 -1.6485
  202MOL   H21044832   2.495   4.469   5.492  0.1376  2.0481  0.4610
  202MOL   C21144833   2.253   4.513   5.284 -0.4041 -0.2894  0.2574
  202MOL   C21244834   2.207   4.505   5.429 -0.3521 -1.0000  0.4664
  202MOL   C21344835   2.060   4.533   5.436  0.1749  0.2604 -0.2904
  202MOL   O21444836   1.979   4.441   5.399  0.4120 -0.3436 -0.1295
  202MOL   C21544837   2.017   4.658   5.509  0.8133 -0.0181  0.3303
  202MOL   H21644838   2.183   4.565   5.218 -1.0325  1.5893  2.3681
  202MOL   H21744839   2.244   4.411   5.246 -2.0841 -0.0574 -0.0271
  202MOL   H21844840   2.264   4.582   5.479  0.5909  0.2594 -2.4413
  202MOL   H21944841   1.910   4.642   5.503  0.9901 -1.5067  0.9207
  202MOL   H22044842   2.057   4.629   5.606  0.1332 -0.7123  0.4075
  202MOL   H22144843   2.056   4.751   5.468 -1.6582  1.9898  2.3578
  202MOL   H22244844   2.233   4.410   5.476 -1.4199 -0.9881  1.0926
  203MOL     C144845   2.134   6.531   3.623  0.3526 -0.5944 -0.8068
  203MOL     C244846   2.176   6.548   3.484 -0.1265 -0.2782  0.6988
  203MOL     C344847   2.326   6.547   3.479 -0.1920 -1.0396  0.4732
  203MOL     O444848   2.383   6.446   3.442  0.1603  0.5072 -0.1855
  203MOL     C544849   2.393   6.672   3.531  0.3838  0.2574 -0.0853
  203MOL     H644850   2.161   6.609   3.695  0.7001 -0.4959 -1.0454
  203MOL     H744851   2.171   6.439   3.668 -0.8507 -0.6688  0.0637
  203MOL     H844852   2.158   6.651   3.454  2.8718 -0.3322 -1.5616
  203MOL     H944853   2.318   6.751   3.536 -0.0892 -0.2130  0.1679
  203MOL    H1044854   2.430   6.655   3.632 -2.6825 -0.3514  0.9725
  203MOL    H1144855   2.478   6.705   3.470  1.8456  0.6194  2.0845
  203MOL    H1244856   2.026   6.548   3.629  0.0778 -2.3638 -0.2619
  203MOL    C1344857   2.106   6.444   3.391  0.3244  0.8259 -0.3584
  203MOL    C1444858   1.950   6.461   3.366  0.3503 -0.5478  0.5027
  203MOL    C1544859   1.888   6.345   3.283  0.5569 -0.1627 -0.4309
  203MOL    O1644860   1.922   6.332   3.171 -0.7343 -0.7863 -0.1614
  203MOL    C1744861   1.792   6.245   3.354 -0.2764  0.1326 -0.0353
  203MOL    H1844862   2.165   6.449   3.299 -1.2933  0.8543 -1.4119
  203MOL    H1944863   2.142   6.349   3.430 -0.9846  0.0368 -1.0382
  203MOL    H2044864   1.910   6.466   3.467  0.5195 -0.0018  0.5490
  203MOL    H2144865   1.821   6.250   3.460  2.6852 -1.9104 -0.6967
  203MOL    H2244866   1.688   6.269   3.331  0.1893  1.9852 -0.2758
  203MOL    H2344867   1.822   6.145   3.325 -0.1706 -0.6185  2.5538
  203MOL    C2444868   1.922   6.594   3.297 -0.2135 -0.1489 -0.9460
  203MOL    C2544869   1.766   6.629   3.277  0.6725 -0.2068  0.2260
  203MOL    C2644870   1.685   6.628   3.407 -0.2936  0.0515 -0.2390
  203MOL    O2744871   1.749   6.643   3.513 -0.0640  0.5099  0.7800
  203MOL    C2844872   1.538   6.603   3.407  0.3581  0.3829  0.3615
  203MOL    H2944873   1.977   6.671   3.351 -1.2398  0.3120 -0.5549
  203MOL    H3044874   1.971   6.598   3.199  1.0043  1.2320 -0.2984
  203MOL    H3144875   1.707   6.555   3.223 -2.3550  1.9525  0.4898
  203MOL    H3244876   1.492   6.634   3.500  1.4829  0.9629  0.7334
  203MOL    H3344877   1.503   6.648   3.314 -0.9875 -3.4028 -1.0735
  203MOL    H3444878   1.523   6.496   3.388 -1.3128  0.8725 -1.3151
  203MOL    C3544879   1.743   6.761   3.200 -0.8796 -0.0170 -0.0928
  203MOL    C3644880   1.789   6.752   3.049  0.2210 -0.7119  0.3836
  203MOL    C3744881   1.707   6.644   2.974  0.0748  0.0106  0.0421
  203MOL    O3844882   1.588   6.630   2.996 -0.1926 -0.4884  0.6786
  203MOL    C3944883   1.776   6.557   2.869 -0.1347  0.3815 -0.5427
  203MOL    H4044884   1.800   6.835   3.256  2.2185 -2.2961 -0.1116
  203MOL    H4144885   1.639   6.796   3.202 -1.4755 -1.6561 -1.0238
  203MOL    H4244886   1.889   6.709   3.049  0.8763  0.6653  3.5041
  203MOL    H4344887   1.780   6.459   2.916 -1.8899  0.2607 -0.6390
  203MOL    H4444888   1.877   6.586   2.838 -0.3055  1.0161 -0.5193
  203MOL    H4544889   1.716   6.568   2.779 -1.0332  0.6037  0.0839
  203MOL    C4644890   1.781   6.890   2.984  0.3711 -0.6212 -0.0266
  203MOL    C4744891   1.817   6.908   2.837 -0.4051  0.1388  0.8128
  203MOL    C4844892   1.759   7.043   2.793 -0.2246  0.0783 -0.1776
  203MOL    O4944893   1.826   7.141   2.783 -0.6278  0.5807  0.9644
  203MOL    C5044894   1.617   7.043   2.747 -0.3707  0.2740  0.1034
  203MOL    H5144895   1.839   6.961   3.042  0.7487  2.1772 -3.5985
  203MOL    H5244896   1.674   6.908   2.994  0.2173 -0.5104 -1.6275
  203MOL    H5344897   1.766   6.834   2.775 -0.8098 -0.6075  2.0144
  203MOL    H5444898   1.545   7.015   2.825 -1.3225  0.7798 -0.5744
  203MOL    H5544899   1.593   7.146   2.719  1.1796  1.6570  3.5456
  203MOL    H5644900   1.603   6.969   2.668  0.2966 -0.4771  0.6904
  203MOL    C5744901   1.967   6.902   2.827 -0.0384  0.8434 -0.1757
  203MOL    C5844902   2.023   6.901   2.685  0.3026  0.3218  0.3205
  203MOL    C5944903   2.109   7.017   2.657  0.0343 -0.1500 -0.2785
  203MOL    O6044904   2.193   7.050   2.736  0.6768 -0.5338 -1.1062
  203MOL    C6144905   2.109   7.091   2.528 -0.4622  0.5552 -0.1528
  203MOL    H6244906   2.012   6.820   2.884  1.1685  0.3908 -1.7395
  203MOL    H6344907   2.007   6.981   2.891 -0.5151 -0.5397  1.8824
  203MOL    H6444908   1.939   6.901   2.616 -0.7196  0.1411  1.5499
  203MOL    H6544909   2.204   7.068   2.479 -1.0661  2.6546 -2.3753
  203MOL    H6644910   2.034   7.045   2.464 -0.8087 -0.3808  0.8934
  203MOL    H6744911   2.095   7.196   2.550 -0.4496  0.4841  0.2095
  203MOL    C6844912   2.095   6.768   2.649  0.4991  0.3103  0.0030
  203MOL    C6944913   2.067   6.728   2.504 -0.2907  0.3242  0.3651
  203MOL    C7044914   1.913   6.704   2.471 -0.0096  0.7127  0.6536
  203MOL    O7144915   1.855   6.626   2.549 -0.8519  0.1155 -0.3107
  203MOL    C7244916   1.847   6.779   2.353  0.0078 -0.3225  0.1803
  203MOL    H7344917   2.203   6.777   2.662  0.3893 -0.6271  1.7342
  203MOL    H7444918   2.072   6.695   2.726 -0.7632  0.9519  0.2577
  203MOL    H7544919   2.100   6.815   2.447  1.5317  0.7744  2.0399
  203MOL    H7644920   1.742   6.755   2.369  0.2861 -0.3407  2.0404
  203MOL    H7744921   1.858   6.887   2.359 -2.6726  0.0339 -0.5438
  203MOL    H7844922   1.880   6.746   2.254  1.7108  1.3205  0.1839
  203MOL    C7944923   2.164   6.616   2.448 -1.1146 -0.8514  0.4511
  203MOL    C8044924   2.147   6.478   2.504 -0.3393 -0.4971 -0.1634
  203MOL    C8144925   2.205   6.467   2.654  0.6530  0.1272 -0.8542
  203MOL    O8244926   2.304   6.530   2.700  0.1439  0.5148 -0.2778
  203MOL    C8344927   2.130   6.368   2.742  0.0873 -0.0022  0.4722
  203MOL    H8444928   2.264   6.655   2.462 -1.0531 -1.2510  1.1785
  203MOL    H8544929   2.152   6.620   2.340  0.7661  2.4153  0.3335
  203MOL    H8644930   2.041   6.455   2.514 -0.1957 -1.5163 -0.9366
  203MOL    H8744931   2.192   6.279   2.734 -1.7421 -1.1892 -1.0091
  203MOL    H8844932   2.030   6.348   2.703 -0.8698  0.6775  2.4887
  203MOL    H8944933   2.131   6.399   2.847 -2.3245  0.2645  0.4491
  203MOL    C9044934   2.218   6.368   2.407  0.4152 -0.3453 -0.0232
  203MOL    C9144935   2.174   6.223   2.434  0.4760  0.4743  0.1366
  203MOL    C9244936   2.039   6.186   2.372 -0.1162  0.1320  0.4798
  203MOL    O9344937   2.033   6.096   2.288  0.2908 -0.0134  0.1837
  203MOL    C9444938   1.911   6.251   2.422  0.0885 -0.4229  0.3221
  203MOL    H9544939   2.196   6.399   2.304 -1.1369  0.1036  0.4283
  203MOL    H9644940   2.324   6.382   2.424  0.2520  1.1189 -0.1638
  203MOL    H9744941   2.170   6.203   2.541  2.3479 -0.7489  0.0018
  203MOL    H9844942   1.868   6.308   2.340  0.1616 -0.4155  0.2887
  203MOL    H9944943   1.835   6.177   2.447 -2.6532  2.0231 -0.5081
  203MOL   H10044944   1.924   6.316   2.508  1.8224 -3.1649  2.2435
  203MOL   C10144945   2.288   6.134   2.383  0.0204  0.1166 -0.1355
  203MOL   C10244946   2.291   5.990   2.425  0.4980 -0.0483 -0.0037
  203MOL   C10344947   2.403   5.960   2.525  0.6835  0.2055  0.8975
  203MOL   O10444948   2.503   5.901   2.488 -0.2507 -0.1723  0.1486
  203MOL   C10544949   2.387   6.012   2.668  0.6160  0.3188 -0.2008
  203MOL   H10644950   2.300   6.146   2.275 -2.9677  2.9065 -0.2307
  203MOL   H10744951   2.372   6.193   2.420 -2.0652  2.4913  0.9359
  203MOL   H10844952   2.194   5.969   2.469 -0.7863  0.3453 -2.5643
  203MOL   H10944953   2.283   5.995   2.698  1.0947 -0.8423  0.8447
  203MOL   H11044954   2.451   5.971   2.746 -1.2547 -1.6088  0.4049
  203MOL   H11144955   2.401   6.119   2.659 -1.1511  0.4086 -2.2485
  203MOL   C11244956   2.291   5.889   2.305  0.0109  0.8116 -0.1761
  203MOL   C11344957   2.282   5.739   2.331 -0.3114  0.1376  0.1158
  203MOL   C11444958   2.340   5.658   2.213 -0.0951 -0.6606 -0.6853
  203MOL   O11544959   2.309   5.685   2.099  0.7795 -0.4790  0.0349
  203MOL   C11644960   2.454   5.556   2.228 -0.7355  0.4596  0.0244
  203MOL   H11744961   2.384   5.900   2.249  0.6759 -1.9461  0.2968
  203MOL   H11844962   2.213   5.911   2.232 -2.1217 -1.4722  1.3251
  203MOL   H11944963   2.341   5.716   2.419 -2.0555  0.1981  1.3255
  203MOL   H12044964   2.553   5.595   2.253 -0.4112  1.0466 -2.1151
  203MOL   H12144965   2.425   5.489   2.309  0.0129  1.3741  1.0605
  203MOL   H12244966   2.463   5.496   2.137 -0.9275 -0.9358  0.9105
  203MOL   C12344967   2.133   5.700   2.379 -0.0436  0.0125 -0.2847
  203MOL   C12444968   2.120   5.575   2.467 -0.3496  0.7766  0.2627
  203MOL   C12544969   2.118   5.448   2.369  1.0270 -0.1256 -0.2428
  203MOL   O12644970   2.054   5.441   2.266 -0.3957 -0.3745  1.1360
  203MOL   C12744971   2.211   5.337   2.407 -0.0414  0.3743 -0.1956
  203MOL   H12844972   2.072   5.690   2.289  0.9495 -0.7874 -0.8797
  203MOL   H12944973   2.079   5.774   2.438 -0.0555  0.7092 -1.1437
  203MOL   H13044974   2.215   5.578   2.522 -1.0927 -0.9414  1.6805
  203MOL   H13144975   2.164   5.284   2.491 -1.3079  2.7437  0.6399
  203MOL   H13244976   2.314   5.369   2.427  0.5360 -1.4746 -0.1260
  203MOL   H13344977   2.226   5.271   2.322  1.6598 -2.1690  1.9923
  203MOL   C13444978   1.986   5.568   2.546 -0.0954  0.3786  0.1623
  203MOL   C13544979   1.987   5.631   2.684  0.4001  0.0137 -0.4558
  203MOL   C13644980   2.073   5.552   2.789 -0.1378  0.6788  0.2559
  203MOL   O13744981   2.152   5.612   2.860  0.1180 -0.2634 -0.3816
  203MOL   C13844982   2.055   5.400   2.804  0.1877 -0.6274 -0.8100
  203MOL   H13944983   1.969   5.461   2.557  3.3967 -0.2132  0.3300
  203MOL   H14044984   1.908   5.603   2.479  2.1986 -0.3007 -2.9804
  203MOL   H14144985   1.885   5.615   2.718  0.1870 -2.0747 -1.9734
  203MOL   H14244986   1.952   5.384   2.835 -0.3188  2.3034 -0.8334
  203MOL   H14344987   2.127   5.372   2.881  0.9519 -0.5898 -1.4980
  203MOL   H14444988   2.076   5.338   2.717 -0.8069  0.4873 -1.8644
  203MOL   C14544989   2.001   5.780   2.686  0.3899 -0.3178 -0.1260
  203MOL   C14644990   1.960   5.854   2.813 -0.0541  0.5975 -0.5630
  203MOL   C14744991   2.008   6.000   2.803 -0.0317  0.9688 -0.4442
  203MOL   O14844992   2.015   6.062   2.698 -0.8510 -0.1902  0.7409
  203MOL   C14944993   2.080   6.055   2.922 -0.0894 -0.0199 -0.7495
  203MOL   H15044994   1.931   5.797   2.604 -0.4024 -0.9139  0.4278
  203MOL   H15144995   2.100   5.817   2.658  0.5284 -1.3530 -1.0564
  203MOL   H15244996   2.017   5.813   2.896 -0.5289  0.3141 -0.3729
  203MOL   H15344997   2.131   5.976   2.978 -1.5306  0.5357  1.3664
  203MOL   H15444998   2.153   6.116   2.868  2.0260 -0.5391  1.4209
  203MOL   H15544999   2.023   6.114   2.993  1.0257 -1.2565  1.2135
  203MOL   C15645000   1.810   5.841   2.836  0.6665 -0.3663 -0.3214
  203MOL   C15745001   1.758   5.875   2.979  0.8358  0.4290  0.2507
  203MOL   C15845002   1.801   5.770   3.085  0.2642 -0.1937 -0.1861
  203MOL   O15945003   1.729   5.670   3.104 -0.1282  0.3485 -0.2797
  203MOL   C16045004   1.932   5.790   3.171  0.1960 -0.7948  0.2596
  203MOL   H16145005   1.754   5.885   2.753 -2.8046 -0.6835  1.7319
  203MOL   H16245006   1.780   5.736   2.832 -0.9299  0.0553 -0.0134
  203MOL   H16345007   1.789   5.975   3.010 -2.7453  1.6616  0.1090
  203MOL   H16445008   2.026   5.800   3.115 -0.0749 -0.6834 -0.1790
  203MOL   H16545009   1.955   5.721   3.251  0.4878 -1.0010  0.0008
  203MOL   H16645010   1.916   5.886   3.221 -1.8320 -0.3113 -1.2330
  203MOL   C16745011   1.602   5.891   2.974 -0.4797  0.0364 -0.1158
  203MOL   C16845012   1.551   6.033   2.943 -0.0393  0.6303  0.7447
  203MOL   C16945013   1.570   6.129   3.067  0.6173  0.8834 -0.2302
  203MOL   O17045014   1.565   6.088   3.183  0.8247  0.3563 -0.4114
  203MOL   C17145015   1.584   6.274   3.030  0.3133 -0.6612 -0.0416
  203MOL   H17245016   1.569   5.829   2.890  2.6434 -2.1297  0.1368
  203MOL   H17345017   1.552   5.847   3.061 -0.8667  1.0809  0.1882
  203MOL   H17445018   1.621   6.085   2.877  0.6800  1.1778  1.8989
  203MOL   H17545019   1.594   6.335   3.120 -1.9098  2.5898 -1.9013
  203MOL   H17645020   1.507   6.315   2.965  0.5024 -0.0763  0.0912
  203MOL   H17745021   1.679   6.282   2.976 -0.8175  0.2836 -1.9472
  203MOL   C17845022   1.403   6.024   2.890 -0.3081 -0.2469  0.3049
  203MOL   C17945023   1.387   6.015   2.731 -0.1029  0.2923  0.0740
  203MOL   C18045024   1.433   6.136   2.656 -0.2550  0.7359 -0.1427
  203MOL   O18145025   1.390   6.245   2.697 -0.6948  0.0736 -0.3418
  203MOL   C18245026   1.521   6.123   2.539  0.3184  0.7640  0.0485
  203MOL   H18345027   1.342   5.943   2.930  0.0701 -1.7433 -2.0400
  203MOL   H18445028   1.357   6.117   2.922 -1.7889 -1.7740  2.7461
  203MOL   H18545029   1.440   5.924   2.703  0.1564  0.4324  0.1104
  203MOL   H18645030   1.508   6.022   2.500  0.3196  1.1633 -1.0164
  203MOL   H18745031   1.625   6.150   2.555  0.5897 -0.1278 -0.2336
  203MOL   H18845032   1.484   6.189   2.460  1.0657  0.7788 -0.2889
  203MOL   C18945033   1.237   5.978   2.693 -0.1618 -0.1485  0.4250
  203MOL   C19045034   1.220   5.926   2.550  0.3142 -0.2139  0.0646
  203MOL   C19145035   1.314   5.803   2.515 -0.1713 -0.3792 -0.7341
  203MOL   O19245036   1.334   5.714   2.595 -0.1650 -0.3202  0.1077
  203MOL   C19345037   1.358   5.797   2.366  0.3857 -0.3943 -0.9688
  203MOL   H19445038   1.195   5.915   2.771  0.5578 -1.4706 -0.2320
  203MOL   H19545039   1.174   6.066   2.701  1.3264  0.9708  0.2277
  203MOL   H19645040   1.250   6.000   2.475  1.7310 -0.0674  0.7494
  203MOL   H19745041   1.307   5.713   2.320  0.5967 -2.3338  2.1908
  203MOL   H19845042   1.339   5.891   2.315  1.2027 -0.6901 -1.8246
  203MOL   H19945043   1.465   5.777   2.373  0.1384 -1.7106 -0.8126
  203MOL   C20045044   1.077   5.895   2.518 -0.2382 -1.1008  0.4756
  203MOL   C20145045   0.977   6.011   2.499  0.0137 -0.0215 -0.2480
  203MOL   C20245046   0.836   5.979   2.546  0.1718 -0.0832 -0.8304
  203MOL   O20345047   0.767   5.889   2.492  0.0630 -0.0292  0.0786
  203MOL   C20445048   0.781   6.059   2.669 -0.2628 -0.3245 -0.0479
  203MOL   H20545049   1.068   5.838   2.425 -1.2098  1.0802 -0.8184
  203MOL   H20645050   1.055   5.825   2.598 -0.9477 -0.4731  0.8348
  203MOL   H20745051   1.002   6.093   2.565  0.7765 -1.0819  0.8138
  203MOL   H20845052   0.762   6.162   2.638  1.4078 -0.0486 -0.1963
  203MOL   H20945053   0.694   6.014   2.718 -1.2410 -0.1701 -1.6083
  203MOL   H21045054   0.862   6.060   2.741  0.5586 -1.0160 -0.9566
  203MOL   C21145055   0.974   6.053   2.351  0.1618  0.0590  0.2031
  203MOL   C21245056   0.928   6.197   2.317  0.2065  1.0428 -0.4929
  203MOL   C21345057   1.021   6.303   2.376  0.5971  0.1259 -1.0815
  203MOL   O21445058   1.121   6.265   2.434 -0.9160 -0.4659  0.3569
  203MOL   C21545059   0.990   6.453   2.361  1.0110 -0.4035  0.4722
  203MOL   H21645060   1.077   6.041   2.316  0.0595 -0.8884  0.2002
  203MOL   H21745061   0.916   5.989   2.284  1.0932 -0.1977 -0.3573
  203MOL   H21845062   0.833   6.211   2.369  0.0742  2.2698 -1.0418
  203MOL   H21945063   0.936   6.466   2.267 -1.7052  1.0854  2.1722
  203MOL   H22045064   0.920   6.499   2.431  2.7131  1.6751  0.8776
  203MOL   H22145065   1.077   6.517   2.349 -0.6427  2.2650  2.0489
  203MOL   H22245066   0.923   6.214   2.210  2.6262 -0.5041 -0.8988
  204MOL     C145067   6.407   5.368   7.322  0.5482  0.6739 -0.5193
  204MOL     C245068   6.387   5.246   7.231  0.2036 -0.1956 -0.8121
  204MOL     C345069   6.453   5.269   7.092  0.4251 -0.0403  0.1492
  204MOL     O445070   6.503   5.181   7.028 -0.6677  0.6295 -0.1546
  204MOL     C545071   6.450   5.410   7.039  0.1685  0.4009  0.8059
  204MOL     H645072   6.384   5.367   7.428  0.0784  1.4443 -0.6097
  204MOL     H745073   6.353   5.448   7.271  1.8809  1.6982 -0.3546
  204MOL     H845074   6.278   5.238   7.228  0.2847 -1.9624  0.5181
  204MOL     H945075   6.351   5.454   7.049 -0.1385 -0.1783  0.2991
  204MOL    H1045076   6.527   5.472   7.086 -1.8007  2.1035  1.8976
  204MOL    H1145077   6.468   5.404   6.932 -1.2018  0.1546  0.5907
  204MOL    H1245078   6.508   5.409   7.316 -0.1578  2.5637  0.2549
  204MOL    C1345079   6.422   5.109   7.293 -0.3807 -0.2676  0.0264
  204MOL    C1445080   6.335   4.993   7.241  0.5365  0.6550  0.0113
  204MOL    C1545081   6.197   5.002   7.305  0.1123  1.2343 -0.8212
  204MOL    O1645082   6.095   4.998   7.233 -0.1519 -0.4909 -0.0303
  204MOL    C1745083   6.191   4.971   7.456 -0.0467  0.0788 -0.4554
  204MOL    H1845084   6.526   5.101   7.262 -0.7889  0.7763 -1.6745
  204MOL    H1945085   6.413   5.111   7.402  0.3358 -2.1653  0.1291
  204MOL    H2045086   6.315   5.013   7.135 -2.7246 -2.6399 -0.0747
  204MOL    H2145087   6.285   4.983   7.508 -0.4313  0.4728  0.1472
  204MOL    H2245088   6.112   5.025   7.509 -1.0172 -0.9268 -0.8377
  204MOL    H2345089   6.176   4.863   7.464 -1.8256  0.4490  1.4116
  204MOL    C2445090   6.402   4.851   7.263 -0.3284 -0.1604  0.0526
  204MOL    C2545091   6.319   4.736   7.203  0.0358 -0.0964  0.6881
  204MOL    C2645092   6.335   4.712   7.054 -0.6914  0.0357  0.1340
  204MOL    O2745093   6.398   4.625   7.003 -0.2816  0.1819  0.1713
  204MOL    C2845094   6.269   4.813   6.960 -0.2367  0.2774  0.4737
  204MOL    H2945095   6.499   4.861   7.214  0.0146 -0.3628  0.6786
  204MOL    H3045096   6.423   4.839   7.369 -2.0188 -0.3789  0.3771
  204MOL    H3145097   6.215   4.767   7.214  0.2508  0.9336 -0.1256
  204MOL    H3245098   6.334   4.895   6.930 -1.5641  1.7572  1.5792
  204MOL    H3345099   6.229   4.765   6.870  0.4782 -1.2417  0.9430
  204MOL    H3445100   6.185   4.866   7.005  0.7702  2.5361 -0.2186
  204MOL    C3545101   6.336   4.611   7.287 -0.4815  0.1208 -0.1615
  204MOL    C3645102   6.220   4.509   7.292  0.1406  0.2225 -0.2383
  204MOL    C3745103   6.268   4.372   7.333 -0.0011  0.1118  0.6648
  204MOL    O3845104   6.281   4.344   7.456  0.4128  0.3294  0.5512
  204MOL    C3945105   6.282   4.265   7.220 -1.0570  0.3644  0.2221
  204MOL    H4045106   6.348   4.634   7.393 -2.5220 -0.4367  0.2182
  204MOL    H4145107   6.425   4.557   7.254  0.0905 -0.8842  2.8472
  204MOL    H4245108   6.182   4.499   7.191 -1.0513 -1.0588  0.3212
  204MOL    H4345109   6.215   4.181   7.237 -1.1075  0.2604 -0.5031
  204MOL    H4445110   6.382   4.221   7.209 -2.8988 -3.8826 -0.5942
  204MOL    H4545111   6.246   4.293   7.121  2.5993 -0.4177 -1.4418
  204MOL    C4645112   6.096   4.553   7.364 -0.1122 -0.0407  0.2588
  204MOL    C4745113   5.957   4.499   7.318  0.8006  0.7696 -0.2037
  204MOL    C4845114   5.932   4.357   7.353 -0.8532 -0.4190 -1.1601
  204MOL    O4945115   5.913   4.333   7.470 -0.2497 -0.4059 -0.5137
  204MOL    C5045116   5.929   4.250   7.253 -0.4186  0.6361  0.3115
  204MOL    H5145117   6.097   4.662   7.369 -0.7539  0.0415 -1.2384
  204MOL    H5245118   6.106   4.532   7.470  0.5914  0.6603  0.3380
  204MOL    H5345119   5.971   4.482   7.212  0.7707 -1.0825  0.0760
  204MOL    H5445120   5.976   4.163   7.299 -0.5152  0.8289  0.7835
  204MOL    H5545121   5.828   4.222   7.225 -0.3432  1.5184 -0.8897
  204MOL    H5645122   5.987   4.286   7.168  1.5643 -1.3894  0.7451
  204MOL    C5745123   5.838   4.594   7.347 -0.2527 -1.1083 -0.5276
  204MOL    C5845124   5.781   4.609   7.494  0.4590  0.3277  0.2993
  204MOL    C5945125   5.884   4.656   7.599 -0.0967 -0.0651  0.0722
  204MOL    O6045126   5.924   4.774   7.600  0.0947 -0.3339  0.1620
  204MOL    C6145127   5.922   4.562   7.710 -0.1486 -0.2040  0.2255
  204MOL    H6245128   5.754   4.560   7.287 -1.6407 -2.6069  2.1503
  204MOL    H6345129   5.862   4.689   7.300 -1.0359 -0.9506 -0.6134
  204MOL    H6445130   5.748   4.508   7.516  2.5622 -0.3961  0.1676
  204MOL    H6545131   6.028   4.539   7.699  0.3984  2.5600 -0.6447
  204MOL    H6645132   5.901   4.595   7.812  1.0896 -2.3546  1.2183
  204MOL    H6745133   5.865   4.468   7.705  0.5292 -0.4933 -2.5060
  204MOL    C6845134   5.654   4.698   7.492 -0.0359  0.7278  0.2916
  204MOL    C6945135   5.580   4.706   7.628  0.3202 -0.3321  0.1738
  204MOL    C7045136   5.502   4.579   7.666  1.0697 -1.2600  0.4839
  204MOL    O7145137   5.430   4.531   7.579  0.0353 -0.1026  0.5582
  204MOL    C7245138   5.518   4.519   7.799  0.3072  0.2684  0.6695
  204MOL    H7345139   5.676   4.796   7.449  0.5412  0.7967  0.7383
  204MOL    H7445140   5.580   4.662   7.422  2.0134 -2.7755 -0.1823
  204MOL    H7545141   5.658   4.718   7.704 -0.4212 -0.4788  0.9656
  204MOL    H7645142   5.551   4.415   7.795  0.1645  0.2902 -1.8909
  204MOL    H7745143   5.578   4.581   0.008  0.5400 -2.7590  3.4083
  204MOL    H7845144   5.422   4.531   7.850 -0.7063  0.4351 -1.2523
  204MOL    C7945145   5.484   4.829   7.634 -0.2596  0.2252  0.5876
  204MOL    C8045146   5.556   4.959   7.659 -0.2955 -0.3936  0.4621
  204MOL    C8145147   5.619   4.977   7.797  0.2976 -0.3991  0.3302
  204MOL    O8245148   5.596   4.894   0.031 -0.0822 -0.2114  0.1948
  204MOL    C8345149   5.721   5.090   7.819  0.2683  0.4770 -0.0348
  204MOL    H8445150   5.425   4.812   7.723  1.9979 -2.0596  1.7160
  204MOL    H8545151   5.426   4.834   7.541  0.7740  0.9200 -0.0370
  204MOL    H8645152   5.641   4.955   7.592 -0.0399 -0.4525  0.7914
  204MOL    H8745153   5.720   5.123   0.065  1.1870  0.3018  0.0334
  204MOL    H8845154   5.718   5.172   7.747 -0.2777  0.0834 -0.4621
  204MOL    H8945155   5.822   5.049   7.810  0.2285  0.6019 -1.1828
  204MOL    C9045156   5.457   5.078   7.637 -0.2119  0.4688  0.4106
  204MOL    C9145157   5.473   5.151   7.504 -0.2913 -0.7497  0.0472
  204MOL    C9245158   5.363   5.265   7.511 -0.3596  0.4996  0.4560
  204MOL    O9345159   5.395   5.375   7.473  0.3452 -0.3167 -0.2398
  204MOL    C9445160   5.216   5.224   7.534  0.1198 -0.1074  0.0605
  204MOL    H9545161   5.357   5.035   7.639 -0.0611  0.1000  0.1034
  204MOL    H9645162   5.459   5.150   7.718  0.6652 -0.1815  0.9728
  204MOL    H9745163   5.455   5.087   7.417 -0.8791 -1.7363  0.8850
  204MOL    H9845164   5.147   5.309   7.535 -2.8444 -2.4117 -1.1651
  204MOL    H9945165   5.177   5.160   7.455  0.7394 -0.7839  0.2936
  204MOL   H10045166   5.220   5.171   7.629  1.0011  0.1773  0.1851
  204MOL   C10145167   5.615   5.213   7.489 -0.0104  0.5761 -0.3398
  204MOL   C10245168   5.648   5.272   7.350 -0.1846 -0.4511  0.2556
  204MOL   C10345169   5.671   5.174   7.240  0.3394  0.6234  0.0598
  204MOL   O10445170   5.627   5.189   7.132 -0.2185  0.4961  0.3694
  204MOL   C10545171   5.785   5.070   7.255 -0.3127  0.5467  0.4627
  204MOL   H10645172   5.637   5.281   7.570  2.3767  0.8930 -1.2134
  204MOL   H10745173   5.686   5.133   7.509 -2.4329 -1.2960  1.1552
  204MOL   H10845174   5.563   5.332   7.319 -1.8610 -2.6608  0.4984
  204MOL   H10945175   5.803   5.046   7.360  0.1145 -1.4513 -0.0466
  204MOL   H11045176   5.765   4.972   7.210 -2.0589  0.3683  1.6093
  204MOL   H11145177   5.876   5.108   7.209  0.3066 -1.5552 -0.1111
  204MOL   C11245178   5.759   5.373   7.363 -0.1827 -0.5679  0.3021
  204MOL   C11345179   5.767   5.475   7.246  0.7066  0.2913 -0.8326
  204MOL   C11445180   5.917   5.510   7.240 -0.4123  0.1839 -0.5552
  204MOL   O11545181   5.969   5.598   7.306  0.3323  0.0355 -0.4906
  204MOL   C11645182   5.997   5.427   7.139  0.6028  0.1297  0.2512
  204MOL   H11745183   5.851   5.316   7.374  0.2738  0.5327  2.5061
  204MOL   H11845184   5.755   5.425   7.459  1.2979 -1.8429  1.0863
  204MOL   H11945185   5.749   5.420   7.154 -1.8723  1.4928 -1.1000
  204MOL   H12045186   5.973   5.323   7.159 -1.5097  0.6939  0.7979
  204MOL   H12145187   5.962   5.464   7.043 -1.6048  0.4169  1.1241
  204MOL   H12245188   6.105   5.427   7.152  0.3948  1.5405  2.2234
  204MOL   C12345189   5.682   5.613   7.257  0.1132  0.2083 -0.8392
  204MOL   C12445190   5.533   5.597   7.226 -0.4189 -0.4374 -0.4976
  204MOL   C12545191   5.516   5.568   7.078  0.0190  0.3014  0.2844
  204MOL   O12645192   5.542   5.656   6.999 -0.5083 -0.1025  0.0616
  204MOL   C12745193   5.463   5.433   7.036  0.2255  1.0397  1.0334
  204MOL   H12845194   5.726   5.691   7.196 -0.1004 -0.3993 -1.7918
  204MOL   H12945195   5.682   5.640   7.363 -4.6420 -3.6288  0.3474
  204MOL   H13045196   5.501   5.508   7.280  1.7339  0.2958  2.0874
  204MOL   H13145197   5.395   5.455   6.953  2.2953  0.4428 -0.8544
  204MOL   H13245198   5.419   5.380   7.120 -1.4036 -0.6155 -0.8013
  204MOL   H13345199   5.537   5.362   6.999  1.4017  1.1012  3.1831
  204MOL   C13445200   5.448   5.714   7.277  0.3706  0.5173  0.1899
  204MOL   C13545201   5.298   5.684   7.278  0.2599  0.2534 -0.3953
  204MOL   C13645202   5.231   5.742   7.405 -0.6326  0.8863  0.7322
  204MOL   O13745203   5.163   5.845   7.398 -0.4018 -0.5445 -0.1339
  204MOL   C13845204   5.266   5.668   7.529 -0.2246 -0.0214 -0.2679
  204MOL   H13945205   5.460   5.797   7.207 -1.1605 -0.3026 -1.1042
  204MOL   H14045206   5.486   5.742   7.375  0.2565  0.4047  0.2664
  204MOL   H14145207   5.285   5.577   7.296 -0.4189  0.8857  3.0418
  204MOL   H14245208   5.366   5.697   7.559 -0.6094  0.9637  0.0692
  204MOL   H14345209   5.266   5.559   7.521  0.9560 -0.0029 -0.5127
  204MOL   H14445210   5.200   5.701   7.610  1.9059  2.4540  0.5129
  204MOL   C14545211   5.221   5.733   7.147  0.0906 -0.4458 -0.4986
  204MOL   C14645212   5.074   5.698   7.142 -0.0731  0.1897  0.6552
  204MOL   C14745213   5.008   5.775   7.024 -0.7190  0.2170 -0.3043
  204MOL   O14845214   4.992   5.723   6.918  0.0226  0.0517  0.3678
  204MOL   C14945215   4.999   5.928   7.038  0.2232  0.6367  0.1717
  204MOL   H15045216   5.272   5.708   7.054  0.7382  1.4264 -0.6779
  204MOL   H15145217   5.233   5.841   7.150  0.9291 -0.5642  0.5635
  204MOL   H15245218   5.031   5.731   7.237  0.8174  0.7233  0.8825
  204MOL   H15345219   5.074   5.984   6.984 -1.2777  1.8396 -0.7113
  204MOL   H15445220   4.903   5.975   7.017 -0.4008  0.0640  1.6236
  204MOL   H15545221   5.019   5.942   7.145  3.3892  1.0219 -0.4245
  204MOL   C15645222   5.059   5.544   7.121  0.3754  0.3015  0.9738
  204MOL   C15745223   4.914   5.495   7.151  0.0375 -0.5952 -0.5413
  204MOL   C15845224   4.894   5.492   7.302 -0.3662 -0.0703 -0.1400
  204MOL   O15945225   4.986   5.466   7.376 -0.2711 -0.6554  0.1124
  204MOL   C16045226   4.747   5.505   7.349  0.1240 -0.1307  0.0258
  204MOL   H16145227   5.064   5.515   7.016  0.3601 -0.0419  1.0658
  204MOL   H16245228   5.133   5.478   7.166  0.1239  0.1423  1.1586
  204MOL   H16345229   4.855   5.576   7.107 -0.8732 -0.3862  1.0290
  204MOL   H16445230   4.746   5.551   7.447 -2.6039 -0.9356  0.4255
  204MOL   H16545231   4.704   5.408   7.375 -0.3561  0.0954  0.0857
  204MOL   H16645232   4.685   5.570   7.287  1.5624  0.7028 -0.5608
  204MOL   C16745233   4.873   5.367   7.077  0.3283  0.5655  0.8719
  204MOL   C16845234   4.815   5.395   6.944  0.5386 -0.3066  1.1626
  204MOL   C16945235   4.667   5.444   6.952 -0.2204  0.2392  0.4674
  204MOL   O17045236   4.576   5.357   6.945 -0.2189  0.0853 -0.1160
  204MOL   C17145237   4.644   5.599   6.969 -0.3015  0.0587 -0.4987
  204MOL   H17245238   4.959   5.302   7.061  1.4898  2.0880  0.7254
  204MOL   H17345239   4.808   5.302   7.135 -0.2720 -1.5201 -2.0124
  204MOL   H17445240   4.879   5.469   6.896  0.7361 -1.3630 -0.2519
  204MOL   H17545241   4.623   5.609   7.076  1.0481 -1.5217 -0.0529
  204MOL   H17645242   4.555   5.623   6.912 -0.6131 -1.5772 -0.7434
  204MOL   H17745243   4.724   5.664   6.936  1.0311 -0.7427  1.0400
  204MOL   C17845244   4.830   5.274   6.845 -0.3486  0.1228  0.8092
  204MOL   C17945245   4.792   5.305   6.704  0.9623 -0.5111  0.3731
  204MOL   C18045246   4.761   5.175   6.635  0.4401 -0.1795 -0.3150
  204MOL   O18145247   4.838   5.117   6.565 -0.4106 -0.5270  0.5014
  204MOL   C18245248   4.641   5.093   6.682 -0.5719 -0.1260  0.6179
  204MOL   H18345249   4.924   5.218   6.840 -0.8273 -0.7275  1.0834
  204MOL   H18445250   4.774   5.186   6.878  0.8623 -0.9165  0.1778
  204MOL   H18545251   4.694   5.352   6.696  0.6538 -0.9425  1.4920
  204MOL   H18645252   4.676   5.003   6.732  0.3937  0.3192  0.7645
  204MOL   H18745253   4.574   5.062   6.602  0.0296  0.7967 -0.2576
  204MOL   H18845254   4.579   5.140   6.759  0.2746  0.5716  0.8939
  204MOL   C18945255   4.905   5.387   6.632 -0.0646  0.2056  0.0660
  204MOL   C19045256   4.864   5.434   6.489 -0.0831 -0.1153  0.5996
  204MOL   C19145257   4.785   5.568   6.489  0.0229  1.0608  0.4118
  204MOL   O19245258   4.774   5.634   6.587  0.2254  0.1894 -0.1333
  204MOL   C19345259   4.736   5.627   6.362  0.2979  0.1978 -0.0960
  204MOL   H19445260   4.927   5.473   6.696 -0.3428 -1.7172  2.8398
  204MOL   H19545261   4.991   5.320   6.634 -0.2619 -0.1099 -1.6852
  204MOL   H19645262   4.796   5.369   6.435  0.7714 -0.2852 -0.2727
  204MOL   H19745263   4.784   5.610   6.266  1.3654 -2.2401  0.8301
  204MOL   H19845264   4.630   5.604   6.352  0.5645 -0.4121 -1.7617
  204MOL   H19945265   4.734   5.736   6.369 -0.8084  0.0288  2.6192
  204MOL   C20045266   4.984   5.420   6.389  0.0540  0.5548 -0.9653
  204MOL   C20145267   5.094   5.530   6.404  0.0912 -0.3218  0.3363
  204MOL   C20245268   5.157   5.568   6.273 -0.7010  0.9015 -0.9015
  204MOL   O20345269   5.182   5.484   6.186  0.3119  0.1124  0.0046
  204MOL   C20445270   5.201   5.708   6.248 -0.0900 -0.5862  0.1838
  204MOL   H20545271   5.026   5.321   6.400 -1.7844 -0.2478 -0.9587
  204MOL   H20645272   4.944   5.425   6.288 -1.5872  0.4804 -0.3426
  204MOL   H20745273   5.048   5.622   6.442  1.4862  0.5144  0.0472
  204MOL   H20845274   5.111   5.769   6.239  0.6666  0.3088 -1.6114
  204MOL   H20945275   5.267   5.748   6.325 -0.2403  0.9538 -0.4709
  204MOL   H21045276   5.251   5.711   6.151  0.0982 -1.0265  0.2671
  204MOL   C21145277   5.200   5.494   6.517  1.3019 -0.3949 -0.0024
  204MOL   C21245278   5.284   5.371   6.491  0.8674 -0.1681  0.3511
  204MOL   C21345279   5.367   5.332   6.618  0.5545  0.6818  0.6114
  204MOL   O21445280   5.467   5.394   6.653  0.0278 -0.5793  0.5471
  204MOL   C21545281   5.302   5.223   6.705 -0.0358  0.2846  0.6411
  204MOL   H21645282   5.271   5.576   6.529  0.8726 -0.1552  0.9894
  204MOL   H21745283   5.142   5.494   6.609 -0.2661 -1.6080 -0.9725
  204MOL   H21845284   5.354   5.392   6.411 -0.5946  0.7998 -0.7044
  204MOL   H21945285   5.385   5.159   6.735  1.5577  1.2183 -1.6246
  204MOL   H22045286   5.256   5.270   6.791 -0.4659 -0.1893  0.6690
  204MOL   H22145287   5.223   5.163   6.660  1.5221 -1.2267 -0.1337
  204MOL   H22245288   5.215   5.289   6.470  1.5838 -1.1268  1.6732
  205MOL     C145289   5.955   1.878   6.404 -0.3922 -0.1647 -0.0901
  205MOL     C245290   5.950   1.914   6.550 -0.8022 -0.1359  0.3325
  205MOL     C345291   6.001   1.794   6.626  0.0381 -0.2994  0.4466
  205MOL     O445292   6.119   1.786   6.651  0.0385  0.2566 -0.2671
  205MOL     C545293   5.906   1.684   6.673  1.0504 -0.4338 -0.4469
  205MOL     H645294   5.942   1.772   6.382  0.1248 -0.7824  2.4834
  205MOL     H745295   6.051   1.889   6.353 -0.1376 -1.1418  0.1772
  205MOL     H845296   5.849   1.927   6.589 -0.9760 -0.5718  0.0350
  205MOL     H945297   5.801   1.695   6.648  0.9858  0.0962  0.0225
  205MOL    H1045298   5.939   1.583   6.649  1.4849  0.1239 -2.2871
  205MOL    H1145299   5.912   1.680   6.782  0.3151  1.0001 -0.3457
  205MOL    H1245300   5.875   1.927   6.348 -1.8480 -1.2135  1.0350
  205MOL    C1345301   6.029   2.050   6.571 -0.9836  0.4198  0.7870
  205MOL    C1445302   6.021   2.109   6.715 -0.6522  0.4603  0.0749
  205MOL    C1545303   5.885   2.160   6.753  0.5934  0.2561 -0.0565
  205MOL    O1645304   5.852   2.275   6.716  0.1647  0.3208  0.7858
  205MOL    C1745305   5.781   2.063   6.819  0.1131 -0.0360 -0.3619
  205MOL    H1845306   6.132   2.040   6.539 -1.3013 -2.0018  0.4349
  205MOL    H1945307   5.983   2.126   6.507  1.3399  0.1644 -1.2467
  205MOL    H2045308   6.023   2.023   6.783 -0.2563 -0.6508 -1.3276
  205MOL    H2145309   5.769   1.970   6.763 -1.3683  0.7517 -1.3791
  205MOL    H2245310   5.824   2.040   6.917  1.3391  0.1196 -0.8615
  205MOL    H2345311   5.681   2.102   6.837 -0.5928 -1.6046 -0.7878
  205MOL    C2445312   6.125   2.223   6.749 -0.0039 -0.0897  0.2722
  205MOL    C2545313   6.269   2.196   6.795 -0.2881  0.9526 -0.2164
  205MOL    C2645314   6.353   2.155   6.673  0.1132  0.2204 -0.0894
  205MOL    O2745315   6.343   2.224   6.575 -0.2016  0.4003 -0.3611
  205MOL    C2845316   6.446   2.038   6.683  0.3063  0.2845  0.4827
  205MOL    H2945317   6.136   2.284   6.659  0.1649  0.4116  0.6310
  205MOL    H3045318   6.083   2.281   6.831 -0.3921 -0.0007  0.0141
  205MOL    H3145319   6.263   2.114   6.866 -0.6080  2.0006  1.0057
  205MOL    H3245320   6.453   1.994   6.783 -1.3810  0.2963  0.6123
  205MOL    H3345321   6.438   1.959   6.610  0.8604  1.8347 -1.2978
  205MOL    H3445322   6.544   2.080   6.660 -0.2246 -0.6738 -4.0058
  205MOL    C3545323   6.331   2.322   6.852  0.0170  0.2789  0.2894
  205MOL    C3645324   6.320   2.332   7.004 -0.3346  0.5899  0.4129
  205MOL    C3745325   6.406   2.233   7.076  0.5336 -0.5949  0.2768
  205MOL    O3845326   6.369   2.116   7.088 -0.0134 -0.6320 -0.5133
  205MOL    C3945327   6.548   2.274   7.112  0.6433 -0.0077 -0.0074
  205MOL    H4045328   6.290   2.411   6.805  1.9808  2.1140  1.9485
  205MOL    H4145329   6.437   2.323   6.827  0.0946 -0.9274  0.5355
  205MOL    H4245330   6.217   2.309   7.031 -0.7749 -0.6602 -2.1713
  205MOL    H4345331   6.538   2.353   7.185  3.0113  0.9411 -0.6544
  205MOL    H4445332   6.609   2.327   7.038  1.7015 -1.2804 -0.0689
  205MOL    H4545333   6.607   2.187   7.142 -0.2350 -1.9273 -3.4685
  205MOL    C4645334   6.340   2.475   7.063 -0.3075 -0.1502 -0.1992
  205MOL    C4745335   6.243   2.589   7.012 -0.1954 -0.8574  0.3183
  205MOL    C4845336   6.102   2.568   7.056  0.0749 -0.3029 -0.1876
  205MOL    O4945337   6.072   2.507   7.157 -0.4654 -0.1043  0.9605
  205MOL    C5045338   5.993   2.627   6.960  0.4219  0.2361 -0.3735
  205MOL    H5145339   6.442   2.506   7.042  0.3901 -1.0171  1.8185
  205MOL    H5245340   6.338   2.471   7.172 -1.3466  1.5937 -0.1247
  205MOL    H5345341   6.246   2.581   6.903  1.3571 -3.0800  0.4858
  205MOL    H5445342   5.918   2.548   6.952  0.6815  0.0606 -1.0663
  205MOL    H5545343   5.938   2.713   6.998  0.4666  0.6887 -1.3345
  205MOL    H5645344   6.023   2.649   6.858  2.3089 -1.5986 -0.2541
  205MOL    C5745345   6.295   2.724   7.069 -0.4556  0.1775  0.6280
  205MOL    C5845346   6.241   2.858   7.018 -0.3028 -0.5404  0.5889
  205MOL    C5945347   6.308   2.972   7.103 -0.5052  0.0308 -0.4011
  205MOL    O6045348   6.428   2.981   7.134  0.6317 -0.0644 -0.0299
  205MOL    C6145349   6.213   3.081   7.156 -0.2976  0.7824  0.5627
  205MOL    H6245350   6.402   2.739   7.052 -0.7275  1.1871 -0.2654
  205MOL    H6345351   6.273   2.724   7.176 -2.7245  0.2592  0.1855
  205MOL    H6445352   6.139   2.865   7.057  0.3496  2.3748  1.9262
  205MOL    H6545353   6.109   3.077   7.126  0.0769  0.1459 -0.6959
  205MOL    H6645354   6.217   3.082   7.265  3.4580 -2.7538  0.5945
  205MOL    H6745355   6.253   3.174   7.114  0.7630 -0.1502 -0.5286
  205MOL    C6845356   6.264   2.884   6.866  0.3945  0.2487  0.5867
  205MOL    C6945357   6.179   3.003   6.803 -0.0461  0.2548 -0.0429
  205MOL    C7045358   6.026   2.983   6.818  0.4087  0.1222  0.0835
  205MOL    O7145359   5.955   2.915   6.747 -0.2676 -0.3923 -0.4952
  205MOL    C7245360   5.956   3.058   6.935 -0.3078 -0.0183  0.0854
  205MOL    H7345361   6.371   2.901   6.853  0.1678  1.5328  0.3167
  205MOL    H7445362   6.236   2.797   6.807 -2.1300  1.4939 -0.1075
  205MOL    H7545363   6.201   3.092   6.862 -0.6161  0.9682 -0.8964
  205MOL    H7645364   5.852   3.075   6.905 -0.5455 -1.0702  0.2838
  205MOL    H7745365   5.944   2.996   7.024 -1.3335 -2.3352 -1.6010
  205MOL    H7845366   6.003   3.155   6.953 -2.8135  1.5388 -1.5232
  205MOL    C7945367   6.216   3.027   6.652 -0.1240  0.1271 -0.2391
  205MOL    C8045368   6.173   3.152   6.576 -0.3094  0.2147  0.6041
  205MOL    C8145369   6.196   3.282   6.661 -0.4181 -0.1068 -0.0896
  205MOL    O8245370   6.135   3.300   6.765  0.1974 -0.0247  0.3682
  205MOL    C8345371   6.295   3.383   6.607 -0.0181  0.1218 -0.7102
  205MOL    H8445372   6.181   2.941   6.594  0.0161 -0.3991  0.4541
  205MOL    H8545373   6.325   3.029   6.650 -0.1004  1.2619  1.2816
  205MOL    H8645374   6.237   3.154   6.487  0.2618 -1.1955  0.9772
  205MOL    H8745375   6.400   3.361   6.629 -0.2603  0.3648  0.7483
  205MOL    H8845376   6.283   3.477   6.661  2.3038  0.5472 -0.8880
  205MOL    H8945377   6.280   3.414   6.504  0.8025  3.6858  0.1588
  205MOL    C9045378   6.027   3.139   6.524  0.6195  0.1507  0.0727
  205MOL    C9145379   5.984   3.240   6.407 -0.4018 -0.4801  0.2094
  205MOL    C9245380   6.092   3.242   6.290  0.1697 -0.3747  0.1574
  205MOL    O9345381   6.136   3.143   6.230  0.1010  0.3391  0.4911
  205MOL    C9445382   6.139   3.380   6.254 -0.1242 -0.1077  0.3506
  205MOL    H9545383   6.000   3.043   6.482 -2.4792  0.6159  0.8503
  205MOL    H9645384   5.963   3.156   6.611  0.0673 -0.1731 -0.2668
  205MOL    H9745385   5.973   3.339   6.449  0.5744  0.8709 -2.5861
  205MOL    H9845386   6.205   3.375   6.167 -0.6786  0.1835 -0.0896
  205MOL    H9945387   6.047   3.433   6.229  0.5463  1.1214  0.4717
  205MOL   H10045388   6.181   3.443   6.332 -1.0709  0.6301  0.2710
  205MOL   C10145389   5.843   3.203   6.356 -0.1170 -0.1134 -0.9090
  205MOL   C10245390   5.770   3.306   6.259 -0.2533  0.8295  0.1874
  205MOL   C10345391   5.741   3.441   6.330  0.1252 -0.0838 -0.5778
  205MOL   O10445392   5.688   3.443   6.443 -0.0079 -0.1437 -0.0697
  205MOL   C10545393   5.780   3.575   6.261  0.3665  0.1626  0.0640
  205MOL   H10645394   5.842   3.107   6.305  2.1475 -0.2735 -0.7288
  205MOL   H10745395   5.786   3.177   6.445 -0.9525  2.3139 -0.6866
  205MOL   H10845396   5.843   3.319   6.178  1.5098 -0.5429  1.5026
  205MOL   H10945397   5.852   3.548   6.184 -1.2218  1.3299 -1.8868
  205MOL   H11045398   5.690   3.621   6.221  0.4095  1.6462  1.6295
  205MOL   H11145399   5.818   3.646   6.335 -0.1692  1.0055 -0.4595
  205MOL   C11245400   5.636   3.242   6.197  0.4228  0.4832  0.8420
  205MOL   C11345401   5.537   3.330   6.110  1.0986 -0.0677  0.3046
  205MOL   C11445402   5.417   3.386   6.193  0.2796  0.6821 -0.0762
  205MOL   O11545403   5.379   3.332   6.295  0.9658  0.6252 -0.2891
  205MOL   C11645404   5.353   3.519   6.151  0.4885  0.6999 -0.2752
  205MOL   H11745405   5.569   3.198   6.271 -2.9785 -0.7181 -2.8029
  205MOL   H11845406   5.661   3.150   6.144 -0.1095  0.4773  0.5983
  205MOL   H11945407   5.599   3.415   6.084 -0.9239  1.4215  0.2292
  205MOL   H12045408   5.328   3.586   6.233  0.6981  0.1566  0.2302
  205MOL   H12145409   5.416   3.586   6.092 -2.2221  1.6692 -2.1690
  205MOL   H12245410   5.273   3.507   6.077 -0.2666  3.0081  0.1277
  205MOL   C12345411   5.496   3.272   5.974 -0.0532 -0.0383  0.7335
  205MOL   C12445412   5.614   3.262   5.874  0.2985 -0.0444  0.2736
  205MOL   C12545413   5.609   3.360   5.757 -0.1696 -0.2299 -0.0335
  205MOL   O12645414   5.619   3.316   5.645  0.2237 -0.1586 -0.4399
  205MOL   C12745415   5.586   3.501   5.790  0.3624 -0.0947  0.2779
  205MOL   H12845416   5.407   3.317   5.931  1.6509 -0.1587 -3.0786
  205MOL   H12945417   5.456   3.176   6.006  0.9981 -0.4228  0.9381
  205MOL   H13045418   5.705   3.295   5.925  1.4519  0.5209 -2.0826
  205MOL   H13145419   5.644   3.570   5.728 -0.6854  0.6999  0.1679
  205MOL   H13245420   5.609   3.517   5.895  1.8654 -0.4118  0.0007
  205MOL   H13345421   5.482   3.523   5.765  0.3417 -0.6939 -0.1964
  205MOL   C13445422   5.642   3.117   5.826  0.1812 -0.1359 -0.2680
  205MOL   C13545423   5.779   3.090   5.766 -0.4773 -0.9670 -0.7749
  205MOL   C13645424   5.892   3.131   5.862  0.4322 -0.5574 -0.4190
  205MOL   O13745425   5.910   3.066   5.964  0.1154 -0.4207  0.0885
  205MOL   C13845426   5.977   3.253   5.829 -0.4236 -0.1137 -0.2590
  205MOL   H13945427   5.566   3.083   5.756  0.5770 -1.0718 -0.2478
  205MOL   H14045428   5.620   3.045   5.904 -1.1285 -0.4744 -0.9314
  205MOL   H14145429   5.785   3.159   5.682  0.4637  1.2306  1.0386
  205MOL   H14245430   6.052   3.228   5.754  0.3172 -3.6160  1.5227
  205MOL   H14345431   6.016   3.307   5.916  0.6970 -0.0844 -0.7676
  205MOL   H14445432   5.913   3.324   5.777  0.9250  0.7701 -0.7290
  205MOL   C14545433   5.784   2.945   5.716 -0.4773 -0.6631 -0.0907
  205MOL   C14645434   5.907   2.891   5.642 -0.2682  0.3755 -0.6903
  205MOL   C14745435   5.900   2.740   5.631 -1.2082 -0.0556  0.4910
  205MOL   O14845436   5.874   2.687   5.522 -0.3109  0.0207  0.0092
  205MOL   C14945437   5.912   2.652   5.762 -0.1899 -0.3135 -0.1927
  205MOL   H15045438   5.688   2.925   5.668 -0.4015  0.1471 -0.6118
  205MOL   H15145439   5.785   2.889   5.809  0.1404 -0.0459  0.2844
  205MOL   H15245440   5.985   2.909   5.717 -2.7916  2.0829  1.6166
  205MOL   H15345441   5.828   2.582   5.769  0.3387 -0.8309  1.0669
  205MOL   H15445442   6.010   2.605   5.755 -1.2083 -2.2768 -1.7328
  205MOL   H15545443   5.902   2.707   5.855  1.4829  1.5171 -1.0587
  205MOL   C15645444   5.950   2.962   5.513 -0.0650  0.4650 -0.0068
  205MOL   C15745445   6.088   2.911   5.475  0.0626  0.2997  0.2479
  205MOL   C15845446   6.187   2.961   5.580 -0.0216  0.0462 -0.0216
  205MOL   O15945447   6.204   3.080   5.606  0.7193 -0.2123  0.5370
  205MOL   C16045448   6.259   2.859   5.661 -0.1086  0.0942  0.2093
  205MOL   H16145449   5.875   2.934   5.439 -0.3008 -0.1356  0.4476
  205MOL   H16245450   5.958   3.070   5.530  1.0657  0.4839 -0.6553
  205MOL   H16345451   6.102   2.803   5.469  0.6541  0.3093  1.3603
  205MOL   H16445452   6.198   2.770   5.680  0.7839 -0.9353 -1.5722
  205MOL   H16545453   6.316   2.898   5.745 -0.8200  1.4260  0.0889
  205MOL   H16645454   6.349   2.817   5.616  0.2947  0.9199  0.2347
  205MOL   C16745455   6.120   2.955   5.329  0.1669  0.0914  0.2365
  205MOL   C16845456   6.240   2.888   5.259 -0.3661 -0.2760 -0.2520
  205MOL   C16945457   6.215   2.740   5.241  0.9533  0.3283  0.2248
  205MOL   O17045458   6.240   2.656   5.324 -0.6025 -0.3583  0.1700
  205MOL   C17145459   6.138   2.695   5.124 -0.4319  0.6385  0.6108
  205MOL   H17245460   6.036   2.921   5.268 -0.0807 -0.0334  0.6470
  205MOL   H17345461   6.122   3.063   5.313 -0.4104 -0.0208 -0.6219
  205MOL   H17445462   6.223   2.931   5.161 -1.5173  1.8499  0.8242
  205MOL   H17545463   6.032   2.699   5.146 -0.9516 -1.2114 -1.4728
  205MOL   H17645464   6.167   2.594   5.097  0.9770  1.1303  0.1858
  205MOL   H17745465   6.154   2.752   5.032  2.0493  1.6415  1.6149
  205MOL   C17845466   6.381   2.936   5.304  0.8016  0.2332  0.5860
  205MOL   C17945467   6.500   2.881   5.218 -0.1056  0.0895 -0.2497
  205MOL   C18045468   6.630   2.879   5.299  0.2920  0.0043  0.3502
  205MOL   O18145469   6.664   2.978   5.362  0.6024 -0.3214 -0.0146
  205MOL   C18245470   6.705   2.746   5.314 -0.4163  0.1399  0.1731
  205MOL   H18345471   6.394   3.045   5.301 -0.3981  0.3855  0.7901
  205MOL   H18445472   6.391   2.922   5.412 -0.5466 -0.5513  0.6160
  205MOL   H18545473   6.480   2.779   5.185 -1.0226  0.7932 -1.9018
  205MOL   H18645474   6.812   2.770   5.317  0.0890 -2.1742  1.5520
  205MOL   H18745475   6.683   2.689   5.224  0.1299 -0.4185  0.3875
  205MOL   H18845476   6.668   2.697   5.403  2.8757 -0.0824  1.4947
  205MOL   C18945477   6.514   2.972   5.100  0.0965 -0.2870 -0.0183
  205MOL   C19045478   6.567   2.905   4.974 -0.1310  0.3096 -0.1049
  205MOL   C19145479   6.489   2.797   4.905 -0.4837  0.3657 -0.3116
  205MOL   O19245480   6.374   2.773   4.937  0.3289 -0.2145 -0.0245
  205MOL   C19345481   6.564   2.725   4.794  0.3934  0.4090  0.0342
  205MOL   H19445482   6.414   3.003   5.068  0.3894  1.0695  0.3555
  205MOL   H19545483   6.567   3.064   5.124 -0.3259  0.1446 -0.7089
  205MOL   H19645484   6.656   2.854   5.011  0.1108  0.6238 -0.2568
  205MOL   H19745485   6.671   2.728   4.817  0.1358 -0.0467  1.3555
  205MOL   H19845486   6.525   2.624   4.787 -0.4551  0.6773  0.7770
  205MOL   H19945487   6.545   2.785   4.706  0.5859 -1.0216 -0.9978
  205MOL   C20045488   6.613   3.010   4.873  0.3315  0.6165  0.5981
  205MOL   C20145489   6.515   3.121   4.822  0.6581  0.0776  0.2453
  205MOL   C20245490   6.447   3.076   4.690  0.5190  0.7592 -0.6697
  205MOL   O20345491   6.511   3.056   4.588 -0.5287  0.5421 -0.1943
  205MOL   C20445492   6.301   3.031   4.693  0.2334 -0.6526  0.3202
  205MOL   H20545493   6.685   3.057   4.939  1.7329  0.5636 -0.8577
  205MOL   H20645494   6.661   2.971   4.783 -1.2696 -1.1416  0.4697
  205MOL   H20745495   6.433   3.132   4.892  0.1061  1.3414 -0.5861
  205MOL   H20845496   6.306   2.927   4.723 -1.1757 -0.9576 -0.4621
  205MOL   H20945497   6.253   3.085   4.775 -0.9563 -3.2642  1.3742
  205MOL   H21045498   6.252   3.036   4.596  2.7647 -1.2705 -1.0253
  205MOL   C21145499   6.583   3.263   4.797  0.0482  0.4173  0.0650
  205MOL   C21245500   6.622   3.344   4.920 -0.0332 -0.0439 -0.0490
  205MOL   C21345501   6.510   3.423   4.996 -0.2227 -0.7517  0.4409
  205MOL   O21445502   6.437   3.369   5.075  0.3801 -0.3850 -0.2318
  205MOL   C21545503   6.481   3.569   4.958  0.6232  0.0862  0.0586
  205MOL   H21645504   6.672   3.242   4.738  0.1703  1.7948 -0.2419
  205MOL   H21745505   6.523   3.330   4.735  0.8047  0.0876 -1.0217
  205MOL   H21845506   6.700   3.413   4.890  0.0954  0.0098  0.4080
  205MOL   H21945507   6.377   3.585   4.930  0.2077 -1.7918  0.4988
  205MOL   H22045508   6.510   3.629   5.044  0.2117  0.3246  0.0313
  205MOL   H22145509   6.552   3.602   4.882  2.1907 -0.3183  1.3151
  205MOL   H22245510   6.661   3.277   4.996  1.1229 -1.9498 -2.2711
  206MOL     C145511   5.670   0.135   3.606  0.1078  0.1883  0.3380
  206MOL     C245512   5.714   7.850   3.626  0.2138 -0.1992 -0.5589
  206MOL     C345513   5.612   7.764   3.693 -0.3884  0.0024  0.1635
  206MOL     O445514   5.508   7.740   3.636  0.1896  0.3473 -0.0841
  206MOL     C545515   5.628   7.735   3.839 -0.0595 -0.3645  0.2326
  206MOL     H645516   5.741   0.194   3.549 -0.3383 -0.1660 -0.5843
  206MOL     H745517   5.658   0.179   3.705 -3.1967  2.0071 -0.7701
  206MOL     H845518   5.805   7.852   3.686 -0.3958 -1.5593  0.4390
  206MOL     H945519   5.593   7.634   3.862 -1.3004 -0.5745 -2.4667
  206MOL    H1045520   5.736   7.738   3.857  0.6623 -1.4249 -3.5178
  206MOL    H1145521   5.577   7.807   3.903  2.1857  0.1489  1.5098
  206MOL    H1245522   5.573   0.159   3.562 -0.3636 -0.8137  0.8035
  206MOL    C1345523   5.755   7.800   3.485 -0.0216  0.2984  0.0201
  206MOL    C1445524   5.845   7.669   3.484 -0.0323  0.3333  0.2083
  206MOL    C1545525   5.990   7.710   3.514 -0.5235 -0.4027 -0.4413
  206MOL    O1645526   6.076   7.733   3.426  0.1219 -0.1734  0.3961
  206MOL    C1745527   6.023   7.756   3.652 -0.8244 -0.2699 -0.1627
  206MOL    H1845528   5.662   7.777   3.433 -0.2810  1.8697 -0.2238
  206MOL    H1945529   5.807   0.025   3.437  0.0362  0.1607 -0.1557
  206MOL    H2045530   5.809   7.597   3.558 -0.5100 -0.6379 -0.9449
  206MOL    H2145531   5.954   7.723   3.729 -0.8431  0.4336  0.1185
  206MOL    H2245532   6.116   7.703   3.676 -1.0264 -0.2205  0.7423
  206MOL    H2345533   6.035   0.006   3.654  0.4231 -0.3402 -2.2056
  206MOL    C2445534   5.837   7.609   3.343 -0.9230  0.5765  0.2373
  206MOL    C2545535   5.898   7.464   3.322 -0.2551  0.1829 -0.0165
  206MOL    C2645536   5.818   7.363   3.409  0.5136 -0.2102  0.6684
  206MOL    O2745537   5.875   7.286   3.481  0.4987  0.2635  0.1184
  206MOL    C2845538   5.664   7.373   3.407  0.3341  0.6010  0.4759
  206MOL    H2945539   5.732   7.609   3.314 -0.9833  2.4344  0.4044
  206MOL    H3045540   5.886   7.680   3.275 -2.1455  1.1257 -0.0804
  206MOL    H3145541   6.002   7.464   3.354 -0.2872  1.8828  0.1159
  206MOL    H3245542   5.614   7.392   3.312 -0.2006 -0.6237  0.5039
  206MOL    H3345543   5.610   7.284   3.441 -1.4768  0.4699 -2.5853
  206MOL    H3445544   5.640   7.451   3.480 -1.7739  1.8481 -1.5049
  206MOL    C3545545   5.884   7.424   3.171  0.4138  0.0558 -0.9384
  206MOL    C3645546   5.987   7.311   3.113  0.4050 -0.0441  0.7317
  206MOL    C3745547   5.979   7.180   3.197  0.4841  0.3129 -0.1474
  206MOL    O3845548   5.878   7.111   3.183  0.3311 -0.1138  0.4696
  206MOL    C3945549   6.097   7.137   3.279  0.7128 -0.5539  0.1045
  206MOL    H4045550   5.916   7.511   3.114  0.2750 -0.9360 -2.5560
  206MOL    H4145551   5.781   7.403   3.144  0.0146  0.9364 -0.1233
  206MOL    H4245552   6.086   7.355   3.122  1.3943 -2.1448  0.4127
  206MOL    H4345553   6.176   7.208   3.258 -1.6029  1.6400 -1.4562
  206MOL    H4445554   6.131   7.038   3.247  1.8811 -0.2350  0.3343
  206MOL    H4545555   6.072   7.143   3.385  1.1916  1.0513  0.1390
  206MOL    C4645556   5.970   7.283   2.961 -0.1766  0.1888 -0.0860
  206MOL    C4745557   6.069   7.172   2.910  0.0430  0.3319 -0.6831
  206MOL    C4845558   6.006   7.040   2.891 -0.6233  0.3374 -0.2195
  206MOL    O4945559   5.884   7.035   2.873  0.3085  0.2580  0.4073
  206MOL    C5045560   6.093   6.919   2.902  0.0135 -0.6296  0.4187
  206MOL    H5145561   5.986   7.373   2.902  0.4217  0.0475 -0.1397
  206MOL    H5245562   5.863   7.264   2.954 -0.2640  0.4227  0.5676
  206MOL    H5345563   6.150   7.176   2.983  0.3060 -1.0018 -0.9036
  206MOL    H5445564   6.171   6.922   2.827 -1.2425 -1.5260 -0.9611
  206MOL    H5545565   6.145   6.913   2.998  1.0437 -1.9175 -0.2215
  206MOL    H5645566   6.035   6.828   2.887 -0.2372 -0.4367  0.2039
  206MOL    C5745567   6.134   7.200   2.774  0.1117  0.0794 -0.1365
  206MOL    C5845568   6.280   7.150   2.764 -0.2962  0.7024  0.3373
  206MOL    C5945569   6.308   7.074   2.634 -0.5426  0.9276 -0.2982
  206MOL    O6045570   6.334   6.950   2.635 -0.2303 -0.1198 -1.1201
  206MOL    C6145571   6.314   7.155   2.507 -0.1619  0.6590 -0.5414
  206MOL    H6245572   6.136   7.309   2.766 -0.5565  0.3099  2.3851
  206MOL    H6345573   6.078   7.161   2.689  1.7532 -2.1881 -0.2193
  206MOL    H6445574   6.292   7.068   2.835 -0.6095 -1.0463 -1.5860
  206MOL    H6545575   6.280   7.100   2.419  2.3481  0.9973 -1.7580
  206MOL    H6645576   6.239   7.234   2.517 -0.8590 -0.0947  0.4219
  206MOL    H6745577   6.415   7.192   2.496  0.4499 -0.4226  1.2146
  206MOL    C6845578   6.379   7.272   2.804 -0.7178 -0.4404 -0.5448
  206MOL    C6945579   6.523   7.231   2.827  0.2703 -0.4365 -0.4125
  206MOL    C7045580   6.535   7.123   2.926 -0.0421 -0.6274  0.5657
  206MOL    O7145581   6.576   7.011   2.892  0.1093 -0.5216  0.7632
  206MOL    C7245582   6.500   7.153   3.071  0.0394 -0.1333  0.1089
  206MOL    H7345583   6.398   7.330   2.714 -0.4866 -0.0017 -0.2171
  206MOL    H7445584   6.351   7.337   2.886  1.9393  1.4952 -1.1059
  206MOL    H7545585   6.555   7.187   2.732  1.5077 -3.6619  1.4049
  206MOL    H7645586   6.397   7.163   3.102 -0.3681 -0.4877 -1.0894
  206MOL    H7745587   6.538   7.064   3.120 -1.4577 -1.0269 -0.3263
  206MOL    H7845588   6.553   7.235   3.120 -0.9258 -0.2596  1.3851
  206MOL    C7945589   6.617   7.353   2.853 -0.0352 -0.2962 -0.1591
  206MOL    C8045590   6.774   7.320   2.864  0.1615  0.0748  0.3216
  206MOL    C8145591   6.841   7.372   2.990 -0.1567  0.3700  0.1466
  206MOL    O8245592   6.782   7.465   3.056  0.4612  0.3762 -0.2237
  206MOL    C8345593   6.971   7.305   3.030 -0.5807  0.3432  0.1931
  206MOL    H8445594   6.588   7.390   2.951  0.3731  0.7407 -0.4307
  206MOL    H8545595   6.593   7.437   2.788 -1.4755  0.1008  0.8815
  206MOL    H8645596   6.787   7.212   2.860 -0.2527  0.0592 -0.7333
  206MOL    H8745597   7.044   7.377   3.068 -0.4244  0.4802 -0.3555
  206MOL    H8845598   7.016   7.254   2.945  2.1245  2.4547  0.2785
  206MOL    H8945599   6.956   7.229   3.107 -1.6367 -1.5389 -1.8288
  206MOL    C9045600   6.843   7.376   2.742  0.4747 -0.9868  0.7298
  206MOL    C9145601   6.895   7.255   2.650  0.5136  0.1404 -0.1370
  206MOL    C9245602   6.780   7.196   2.574  0.0404  0.1049 -0.0804
  206MOL    O9345603   6.701   7.267   2.509  0.4387 -0.1477  0.8294
  206MOL    C9445604   6.767   7.046   2.562  0.4387 -1.1401  0.3019
  206MOL    H9545605   6.789   7.441   2.673  1.7533 -0.9061 -0.2051
  206MOL    H9645606   6.921   7.444   2.776 -1.5788  1.2928  1.0112
  206MOL    H9745607   6.946   7.187   2.718 -0.4565 -1.0888 -0.6298
  206MOL    H9845608   6.802   6.996   2.653 -3.3390 -1.3957  1.7059
  206MOL    H9945609   6.662   7.030   2.538  0.2805  1.0592 -0.6013
  206MOL   H10045610   6.827   7.019   2.475  0.4831 -0.0744 -0.0130
  206MOL   C10145611   7.003   7.295   2.550  0.2313  0.0777 -0.0407
  206MOL   C10245612   7.128   7.209   2.523 -0.5340 -0.2385  0.0396
  206MOL   C10345613   7.206   7.192   2.656  0.5125  0.3053  0.4525
  206MOL   O10445614   7.238   7.287   2.721 -0.3199 -0.6784 -0.1420
  206MOL   C10545615   7.226   7.052   2.708 -0.2156 -0.1583 -0.6706
  206MOL   H10645616   6.963   7.315   2.450  2.4402 -1.4062 -1.2747
  206MOL   H10745617   7.038   7.391   2.588  0.0437  0.3705 -0.5987
  206MOL   H10845618   7.102   7.109   2.489  0.6452  0.0142 -1.6332
  206MOL   H10945619   7.305   7.057   2.783 -1.8190 -0.0894  1.0470
  206MOL   H11045620   7.132   7.017   2.749  0.9772 -1.1380  1.2888
  206MOL   H11145621   7.255   6.986   2.626  1.6402  1.9174 -1.7588
  206MOL   C11245622   7.232   7.281   2.422 -0.0781  0.5153  0.5628
  206MOL   C11345623   7.283   7.192   2.309  0.2437 -0.2872  0.5366
  206MOL   C11445624   7.169   7.160   2.207 -0.3791 -0.3627 -0.7612
  206MOL   O11545625   7.095   7.066   2.212 -0.2407 -0.0813 -0.1232
  206MOL   C11645626   7.161   7.262   2.101  0.3889  0.7995  0.1863
  206MOL   H11745627   7.314   7.320   2.483  0.6215 -0.0409 -0.0179
  206MOL   H11845628   7.188   7.367   2.372 -0.8644 -0.4413 -0.4244
  206MOL   H11945629   7.352   7.264   2.264  0.7270 -0.8640  0.3527
  206MOL   H12045630   7.125   7.359   2.136 -1.6510  0.6695 -1.4802
  206MOL   H12145631   7.244   7.282   2.033  1.5344 -1.2905  0.9501
  206MOL   H12245632   7.082   7.228   2.033 -0.0584  2.1308  0.0237
  206MOL   C12345633   7.357   7.068   2.363  0.1559 -0.0356  0.2836
  206MOL   C12445634   7.466   7.016   2.254  0.8263 -0.0052 -0.2952
  206MOL   C12545635   7.496   6.864   2.274 -0.1306  0.7810  0.6913
  206MOL   O12645636   7.580   6.825   2.355 -0.3143  0.3319 -0.8568
  206MOL   C12745637   7.422   6.763   2.193  0.3287 -1.0734 -0.3301
  206MOL   H12845638   7.291   6.984   2.384  0.7809 -0.8272 -0.8300
  206MOL   H12945639   7.399   7.085   2.462 -0.1804 -2.1341  0.8115
  206MOL   H13045640   7.420   7.028   2.156  1.5081  2.4119 -0.3404
  206MOL   H13145641   7.319   6.750   2.228 -0.1074  2.3425 -0.1771
  206MOL   H13245642   7.472   6.668   2.215  0.7187 -0.6894  0.4747
  206MOL   H13345643   7.426   6.792   2.088  0.4470  1.3049  0.3004
  206MOL   C13445644   7.604   7.102   2.257 -0.1910  0.0228 -0.5825
  206MOL   C13545645   7.701   7.062   2.148  0.4963 -0.7652  0.4733
  206MOL   C13645646   7.645   7.056   2.011  0.5907  0.2868  0.7054
  206MOL   O13745647   7.624   6.943   1.962  0.6579 -0.4607  0.2944
  206MOL   C13845648   7.574   7.170   1.945  0.0713  0.4469  0.6126
  206MOL   H13945649   7.644   7.090   2.358  0.6083 -1.3718 -1.0473
  206MOL   H14045650   7.581   7.208   2.245  3.2150  0.8460 -0.3842
  206MOL   H14145651   7.710   6.955   2.167  0.0463 -1.0595 -0.8978
  206MOL   H14245652   7.546   7.148   1.842 -0.0619 -1.4695  1.0301
  206MOL   H14345653   7.645   7.252   1.946  0.5970  0.0103 -0.1865
  206MOL   H14445654   7.493   7.199   2.011 -0.2177  2.0467 -0.4255
  206MOL   C14545655   7.836   7.153   2.134 -0.0366 -0.3928 -0.3661
  206MOL   C14645656   0.103   7.115   2.215  0.2413 -0.0707  0.3019
  206MOL   C14745657   0.092   7.099   2.371  0.0738  0.0230  0.6053
  206MOL   O14845658   0.129   7.195   2.445  0.1593 -0.1421 -0.2484
  206MOL   C14945659   0.037   6.972   2.427  0.0618  0.1560  0.3948
  206MOL   H15045660   7.821   7.255   2.167  0.4208 -0.1737 -0.8384
  206MOL   H15145661   0.011   7.163   2.030 -0.9942  1.5040 -0.4851
  206MOL   H15245662   0.156   7.209   2.203  0.0531 -0.0131 -0.0985
  206MOL   H15345663   0.088   6.881   2.394 -1.0054 -0.4315  0.3720
  206MOL   H15445664   0.038   6.964   2.535  2.2124  1.6004  0.5242
  206MOL   H15545665   7.797   6.962   2.381 -0.6022 -1.6862  2.1795
  206MOL   C15645666   0.191   7.009   2.155  0.2790  0.1808  0.2762
  206MOL   C15745667   0.327   6.984   2.229  0.0211  0.0431 -0.2281
  206MOL   C15845668   0.428   7.104   2.237 -0.9427 -0.0871  0.0064
  206MOL   O15945669   0.427   7.193   2.148  0.0766 -0.2841  0.2380
  206MOL   C16045670   0.504   7.128   2.373  0.3378  0.2725  0.0739
  206MOL   H16145671   0.130   6.919   2.165  0.2658  0.2895  1.1714
  206MOL   H16245672   0.199   7.042   2.051  0.0620  0.2396  0.2759
  206MOL   H16345673   0.308   6.953   2.332 -0.0454 -0.1365 -0.2947
  206MOL   H16445674   0.450   7.131   2.468  0.2659  2.5924 -0.0144
  206MOL   H16545675   0.550   7.225   2.356  1.0532 -0.0648  0.0874
  206MOL   H16645676   0.583   7.054   2.387 -0.3649 -0.5891 -0.4577
  206MOL   C16745677   0.394   6.862   2.165 -0.6347 -0.1420 -0.1675
  206MOL   C16845678   0.502   6.777   2.245 -1.1235  0.5338 -0.2124
  206MOL   C16945679   0.625   6.751   2.157 -0.6463 -1.2745  0.8045
  206MOL   O17045680   0.664   6.640   2.118  0.4502  0.1861  0.2228
  206MOL   C17145681   0.693   6.872   2.104  0.4077 -0.4713  0.2078
  206MOL   H17245682   0.307   6.798   2.151 -1.1266  0.2456  1.0315
  206MOL   H17345683   0.413   6.874   2.058  4.1508 -0.3008  0.5180
  206MOL   H17445684   0.541   6.842   2.322  1.8742  0.5417 -1.6691
  206MOL   H17545685   0.667   6.878   1.998  2.3124  2.9050 -0.1410
  206MOL   H17645686   0.802   6.863   2.102  0.3543 -1.1407  0.3556
  206MOL   H17745687   0.660   6.960   2.160 -0.8631  0.2821 -1.6719
  206MOL   C17845688   0.442   6.642   2.297 -0.0798  0.5809  0.2017
  206MOL   C17945689   0.521   6.595   2.420  0.7709  0.5129 -0.5162
  206MOL   C18045690   0.552   6.449   2.429  0.5341  0.1290 -0.0566
  206MOL   O18145691   0.660   6.402   2.466 -0.2198  0.0714 -0.3189
  206MOL   C18245692   0.437   6.354   2.391 -0.5389 -0.0975 -0.5492
  206MOL   H18345693   0.338   6.658   2.326 -0.6790 -0.7282 -1.1849
  206MOL   H18445694   0.447   6.567   2.218  0.8018 -1.0223  1.7595
  206MOL   H18545695   0.622   6.636   2.412  0.4533  1.2978 -0.6433
  206MOL   H18645696   0.449   6.315   2.290 -1.4268  2.0019 -1.4954
  206MOL   H18745697   0.346   6.409   2.413 -1.2323 -0.8951 -1.3846
  206MOL   H18845698   0.445   6.262   2.448  1.2880 -0.4272 -1.2823
  206MOL   C18945699   0.457   6.647   2.552 -0.5341 -0.3205  0.7412
  206MOL   C19045700   0.555   6.642   2.669 -0.1006  0.3904  0.0155
  206MOL   C19145701   0.664   6.753   2.654 -0.5514  0.7830 -0.3156
  206MOL   O19245702   0.668   6.828   2.555 -0.5016 -0.3640 -0.0483
  206MOL   C19345703   0.767   6.770   2.767 -0.1651 -0.4715 -0.4558
  206MOL   H19445704   0.408   6.742   2.532 -0.3021 -0.2768  0.3804
  206MOL   H19545705   0.373   6.581   2.575  0.1384 -0.6545  2.2683
  206MOL   H19645706   0.601   6.544   2.683  0.7198  0.9518  1.2659
  206MOL   H19745707   0.742   6.855   2.830  0.1354  0.0451 -1.0271
  206MOL   H19845708   0.793   6.678   2.819  0.8440 -1.4589 -2.6575
  206MOL   H19945709   0.861   6.804   2.722 -1.1556  1.1203 -1.3927
  206MOL   C20045710   0.467   6.671   2.797  0.0320  0.7885 -0.2781
  206MOL   C20145711   0.525   6.634   2.935  0.4804  0.1910 -0.2908
  206MOL   C20245712   0.547   6.477   2.941 -0.2988 -0.0020 -0.0841
  206MOL   O20345713   0.451   6.405   2.972  0.7410 -0.1240  0.1276
  206MOL   C20445714   0.681   6.419   2.909  0.3697  0.0700 -0.3331
  206MOL   H20545715   0.429   6.773   2.788 -1.9980  0.0029 -0.9289
  206MOL   H20645716   0.374   6.617   2.785  0.3748 -0.0661  0.8527
  206MOL   H20745717   0.618   6.685   2.958  0.8119 -0.9855  1.0589
  206MOL   H20845718   0.713   6.356   2.992  2.6629 -0.0536 -1.2818
  206MOL   H20945719   0.661   6.359   2.820 -0.0502 -1.7886  0.9751
  206MOL   H21045720   0.755   6.499   2.901  0.9188 -0.4349 -0.3481
  206MOL   C21145721   0.428   6.687   3.045 -0.0351 -0.5349 -0.0839
  206MOL   C21245722   0.468   6.651   3.187  0.0898 -0.3503  0.5129
  206MOL   C21345723   0.376   6.715   3.292 -0.0522  0.2524  0.4899
  206MOL   O21445724   0.268   6.766   3.261 -0.2386 -0.8790 -0.1376
  206MOL   C21545725   0.428   6.717   3.431 -0.4404 -0.2480 -0.0344
  206MOL   H21645726   0.407   6.794   3.045  2.1203 -0.0926  0.4975
  206MOL   H21745727   0.330   6.643   3.025 -0.8982  0.6976  1.3086
  206MOL   H21845728   0.570   6.685   3.204  0.1712 -0.4398  0.2038
  206MOL   H21945729   0.383   6.638   3.490  0.7730 -1.4403 -0.6904
  206MOL   H22045730   0.535   6.698   3.434 -0.3415 -0.5497 -3.6097
  206MOL   H22145731   0.414   6.819   3.468  1.0620 -0.4133  1.0055
  206MOL   H22245732   0.461   6.543   3.204 -0.1592 -0.2131  1.3245
  207MOL     C145733   2.594   1.570   0.768  0.1964  0.0113 -1.2151
  207MOL     C245734   2.514   1.663   0.862 -0.2525  0.1954  0.0251
  207MOL     C345735   2.552   1.636   1.010  0.2097 -0.2153 -0.3775
  207MOL     O445736   2.594   1.734   1.075 -0.3559 -0.1795  0.0738
  207MOL     C545737   2.516   1.511   1.083  0.0183 -0.1305  0.1197
  207MOL     H645738   2.654   1.624   0.695  0.6401  1.6918  0.3460
  207MOL     H745739   2.524   1.503   0.719 -3.1751  1.4318  1.4976
  207MOL     H845740   2.415   1.626   0.838  1.0988 -0.9554 -4.2581
  207MOL     H945741   2.506   1.425   1.018 -0.7507 -0.7968  1.0946
  207MOL    H1045742   2.602   1.477   1.141  1.0058  0.3491 -1.0348
  207MOL    H1145743   2.425   1.528   1.141  0.5757 -0.1141  0.9990
  207MOL    H1245744   2.656   1.504   0.829  0.1936  0.8926 -0.2368
  207MOL    C1345745   2.535   1.807   0.822 -0.6713 -1.1930  0.2375
  207MOL    C1445746   2.448   1.917   0.889  0.2962 -0.0517  0.4159
  207MOL    C1545747   2.298   1.914   0.838 -0.1138  0.4214 -0.2850
  207MOL    O1645748   2.258   1.995   0.752 -0.0097 -0.2874 -0.5582
  207MOL    C1745749   2.208   1.806   0.891  0.1394  0.1673  0.3567
  207MOL    H1845750   2.636   1.841   0.845 -1.7365  1.6680  0.9519
  207MOL    H1945751   2.529   1.814   0.714  2.1262 -2.5337 -0.0335
  207MOL    H2045752   2.443   1.905   0.997  3.5454  2.0186  0.8601
  207MOL    H2145753   2.107   1.842   0.914 -0.1842  0.1732 -1.0462
  207MOL    H2245754   2.212   1.738   0.806 -0.2056 -0.1511  0.5932
  207MOL    H2345755   2.252   1.765   0.982  0.6861  1.5294  0.7154
  207MOL    C2445756   2.507   2.064   0.861  1.1289  0.8626  0.3216
  207MOL    C2545757   2.464   2.168   0.970  0.4764 -0.9147  0.1069
  207MOL    C2645758   2.574   2.185   1.074 -0.2767  0.3214  0.3587
  207MOL    O2745759   2.678   2.244   1.044 -0.3187  0.3731 -0.5398
  207MOL    C2845760   2.545   2.130   1.208  0.1983 -0.2002  0.0836
  207MOL    H2945761   2.614   2.062   0.840  1.1345  0.8319  0.3530
  207MOL    H3045762   2.474   2.101   0.764 -0.6663  0.1876  0.6622
  207MOL    H3145763   2.378   2.133   1.027  0.4342  1.1792  1.3829
  207MOL    H3245764   2.634   2.142   1.270 -1.3759 -0.8873  2.5662
  207MOL    H3345765   2.471   2.192   1.259  0.5139  0.0244  0.2726
  207MOL    H3445766   2.517   2.025   1.216  2.1410 -0.6905  0.8682
  207MOL    C3545767   2.416   2.303   0.913 -0.4565  0.0692 -0.3320
  207MOL    C3645768   2.342   2.393   1.021 -0.0281 -0.6538 -0.2382
  207MOL    C3745769   2.413   2.523   1.032 -0.2693 -0.0398 -0.0310
  207MOL    O3845770   2.406   2.609   0.948 -0.1048 -0.1031 -0.6318
  207MOL    C3945771   2.507   2.533   1.148  0.3721  0.1670 -0.6180
  207MOL    H4045772   2.337   2.289   0.839  0.7344  0.0580 -1.6054
  207MOL    H4145773   2.491   2.358   0.856  2.4053 -0.8326  2.4211
  207MOL    H4245774   2.340   2.345   1.119  0.0584  0.5146  0.3360
  207MOL    H4345775   2.605   2.490   1.129  0.8253  0.2115  1.4715
  207MOL    H4445776   2.465   2.475   1.230  1.1828  1.0242  0.4247
  207MOL    H4545777   2.515   2.633   1.190  0.5205 -0.4067  0.7424
  207MOL    C4645778   2.192   2.420   1.003 -0.9527 -0.0297 -0.3319
  207MOL    C4745779   2.102   2.295   1.003  0.0524  0.3857  0.7221
  207MOL    C4845780   2.109   2.223   1.138 -0.2928  0.5438  0.0888
  207MOL    O4945781   2.159   2.113   1.152 -0.0764  0.6030 -0.0120
  207MOL    C5045782   2.066   2.312   1.260 -0.2810  0.1853 -0.9677
  207MOL    H5145783   2.174   2.479   0.912 -0.1894  0.2804 -0.2923
  207MOL    H5245784   2.154   2.493   1.074 -0.9086 -1.1568  0.8601
  207MOL    H5345785   2.139   2.225   0.928  1.1640 -0.3824  1.9701
  207MOL    H5445786   2.119   2.287   1.351  1.6810  1.8749 -1.6180
  207MOL    H5545787   2.070   2.421   1.253 -0.6143  0.2731  0.1432
  207MOL    H5645788   1.959   2.304   1.280 -0.1745 -1.3842 -0.9887
  207MOL    C5745789   1.958   2.335   0.970 -0.1659 -0.7482  0.0057
  207MOL    C5845790   1.854   2.218   0.958  0.0838 -0.4181  0.4336
  207MOL    C5945791   1.713   2.278   0.970  0.0656  0.5167  0.4731
  207MOL    O6045792   1.673   2.353   0.881  0.9438  0.0012 -0.3074
  207MOL    C6145793   1.619   2.239   1.081 -0.2250  0.4162  0.3529
  207MOL    H6245794   1.952   2.397   0.881 -1.0982 -1.3175 -0.3414
  207MOL    H6345795   1.925   2.398   1.054 -0.6701 -0.3953 -0.4499
  207MOL    H6445796   1.864   2.164   1.052  0.7787 -0.2262  0.4717
  207MOL    H6545797   1.655   2.152   1.136  2.4393  0.1054 -1.7847
  207MOL    H6645798   1.608   2.309   1.164  2.9083 -0.6182  1.7023
  207MOL    H6745799   1.523   2.215   1.034  0.5342  2.3902 -2.3292
  207MOL    C6845800   1.873   2.103   0.856 -0.1766  0.1957 -0.4125
  207MOL    C6945801   1.830   2.113   0.706  0.9541  0.2704  0.8081
  207MOL    C7045802   1.800   1.976   0.649  0.3339 -0.4176 -0.6030
  207MOL    O7145803   1.870   1.876   0.676 -0.3702  0.0020  0.2928
  207MOL    C7245804   1.679   1.979   0.551  0.4820 -0.2648  1.2075
  207MOL    H7345805   1.975   2.067   0.872 -0.4407  0.2909  1.6283
  207MOL    H7445806   1.825   2.013   0.894  0.6071  0.7147  1.9333
  207MOL    H7545807   1.740   2.174   0.695  1.2186  0.6402  0.6996
  207MOL    H7645808   1.683   2.076   0.500  0.3130 -0.4765  0.7899
  207MOL    H7745809   1.676   1.892   0.485  0.5592  1.5615 -1.3024
  207MOL    H7845810   1.592   1.973   0.617  1.5937 -0.2057  2.6863
  207MOL    C7945811   1.933   2.196   0.617  0.0660 -0.2337  0.0271
  207MOL    C8045812   1.894   2.343   0.594 -0.0459  0.1125  0.0410
  207MOL    C8145813   1.779   2.356   0.489 -0.1559  0.0804 -0.2920
  207MOL    O8245814   1.780   2.297   0.379  0.5229 -0.1062  0.3040
  207MOL    C8345815   1.659   2.437   0.535 -0.7145 -0.2901 -0.1522
  207MOL    H8445816   1.967   2.141   0.529  2.0453  0.2249  0.4774
  207MOL    H8545817   2.029   2.200   0.669 -0.4326 -0.1410  0.9496
  207MOL    H8645818   1.849   2.381   0.685  0.7386 -2.3077  1.4729
  207MOL    H8745819   1.567   2.416   0.481 -0.1792  1.2955 -1.7641
  207MOL    H8845820   1.667   2.546   0.525 -1.3605 -0.3947 -2.0777
  207MOL    H8945821   1.639   2.411   0.639  2.2179  2.4620  1.1934
  207MOL    C9045822   2.004   2.450   0.563 -0.4911  0.4640  0.6092
  207MOL    C9145823   2.106   2.406   0.456 -0.1358 -0.1217  0.7205
  207MOL    C9245824   2.079   2.466   0.318  0.8403  0.4619  0.0326
  207MOL    O9345825   2.066   2.588   0.301 -0.2163  0.1312 -0.2947
  207MOL    C9445826   2.051   2.376   0.199  0.4008  0.6580 -0.2915
  207MOL    H9545827   1.957   2.543   0.532 -0.6765 -0.5142 -2.2412
  207MOL    H9645828   2.064   2.481   0.649  1.1749  0.6613 -0.5954
  207MOL    H9745829   2.095   2.298   0.445  1.1327 -0.3668  1.8029
  207MOL    H9845830   2.148   2.351   0.157  0.1738 -1.7405  0.4977
  207MOL    H9945831   2.007   2.283   0.235  0.7961  1.2830  1.8699
  207MOL   H10045832   1.984   2.418   0.123 -2.8845 -2.1657  0.8848
  207MOL   C10145833   2.249   2.450   0.508  0.1023 -0.1900 -0.4529
  207MOL   C10245834   2.368   2.421   0.419  0.4234  1.0172 -0.5124
  207MOL   C10345835   2.491   2.358   0.502 -0.4196 -0.2098 -0.4156
  207MOL   O10445836   2.582   2.428   0.546 -0.6517  0.6421 -0.4548
  207MOL   C10545837   2.514   2.204   0.500  0.3601 -0.4216  0.0767
  207MOL   H10645838   2.241   2.555   0.536 -0.6241 -0.1385 -0.8501
  207MOL   H10745839   2.258   2.402   0.606 -0.9015  0.6197  0.0571
  207MOL   H10845840   2.337   2.341   0.352  0.8835  0.6161 -0.2534
  207MOL   H10945841   2.432   2.172   0.563  1.4421  0.4796  1.9995
  207MOL   H11045842   2.533   2.154   0.405  1.7186  1.7544 -0.8363
  207MOL   H11145843   2.610   2.174   0.544  2.2557  1.7085 -2.4416
  207MOL   C11245844   2.413   2.537   0.332  0.2499  0.4508 -0.5480
  207MOL   C11345845   2.527   2.510   0.227 -0.2651  0.5386  0.4291
  207MOL   C11445846   2.601   2.637   0.185 -0.0638  0.2152  0.0337
  207MOL   O11545847   2.595   2.688   0.071 -0.1160 -0.1060  0.0785
  207MOL   C11645848   2.676   2.715   0.302  0.2977  0.1379  0.8822
  207MOL   H11745849   2.449   2.619   0.394  2.8492 -0.5504 -0.6402
  207MOL   H11845850   2.329   2.576   0.275  1.5134 -0.0611 -2.8036
  207MOL   H11945851   2.599   2.449   0.281 -0.2544  1.5727  1.6081
  207MOL   H12045852   2.742   2.782   0.247 -0.3056 -1.4981 -1.9616
  207MOL   H12145853   2.607   2.761   0.372 -0.0767  3.7769 -1.7109
  207MOL   H12245854   2.740   2.643   0.353 -0.2428 -0.4582  0.7184
  207MOL   C12345855   2.472   2.429   0.109  0.2412 -0.1116 -0.0013
  207MOL   C12445856   2.582   2.373   0.016 -0.6900  0.5954 -0.1951
  207MOL   C12545857   2.520   2.324   7.745  0.0392 -0.5136  0.0013
  207MOL   O12645858   2.537   2.209   7.705 -0.6672 -0.0731 -0.1834
  207MOL   C12745859   2.465   2.429   7.651  0.1088 -0.0708  0.7509
  207MOL   H12845860   2.403   2.497   0.059  0.3749  1.3374  1.7421
  207MOL   H12945861   2.406   2.350   0.142 -1.6151  2.5132  2.7529
  207MOL   H13045862   2.651   2.452   7.847  0.2596  0.2565  1.1720
  207MOL   H13145863   2.492   2.417   7.547  0.3859 -0.4261  0.8630
  207MOL   H13245864   2.493   2.527   7.689  2.3776 -0.6341  0.6045
  207MOL   H13345865   2.356   2.421   7.661  0.1837 -0.4900  1.3141
  207MOL   C13445866   2.666   2.261   0.091 -0.5676 -0.2640 -0.6873
  207MOL   C13545867   2.808   2.224   0.034 -0.3975  0.2310 -0.1511
  207MOL   C13645868   2.904   2.341   0.036  0.4769  0.5716 -0.4401
  207MOL   O13745869   2.892   2.435   0.113 -0.3620 -0.1178 -0.5595
  207MOL   C13845870   3.011   2.344   7.782 -0.3475 -0.0985  0.4129
  207MOL   H13945871   2.609   2.169   0.085  0.7628 -1.2060  0.6063
  207MOL   H14045872   2.675   2.291   0.196  1.4557  0.1725 -0.9577
  207MOL   H14145873   2.801   2.197   7.787 -2.6671  1.0381 -0.2347
  207MOL   H14245874   2.989   2.273   7.702 -0.5178 -0.0695  0.4347
  207MOL   H14345875   3.108   2.307   7.815  0.0942 -0.2715 -1.0333
  207MOL   H14445876   3.026   2.439   7.730  2.6950 -1.1100 -0.6794
  207MOL   C14545877   2.860   2.110   0.121 -0.3654 -0.1629 -0.0867
  207MOL   C14645878   2.786   1.976   0.117  0.4763 -0.3624 -0.6790
  207MOL   C14745879   2.785   1.916   7.833 -1.1938 -0.0269  0.6855
  207MOL   O14845880   2.893   1.878   7.785  0.0305 -0.3716 -0.1697
  207MOL   C14945881   2.657   1.900   7.758 -0.2816  0.0095  0.8030
  207MOL   H15045882   2.859   2.137   0.227  0.3038  4.7128 -1.2075
  207MOL   H15145883   2.960   2.074   0.097 -0.6607 -0.7849 -0.3961
  207MOL   H15245884   2.685   1.996   0.153  0.1831  0.5804 -1.9810
  207MOL   H15345885   2.643   1.799   7.719  1.2467 -0.8719  2.4322
  207MOL   H15445886   2.566   1.933   7.808 -1.8190 -0.9435 -1.3124
  207MOL   H15545887   2.659   1.957   7.666 -1.9517 -1.8763 -0.4383
  207MOL   C15645888   2.838   1.875   0.219 -0.0903 -0.8808  0.1004
  207MOL   C15745889   2.767   1.739   0.227 -0.3117  0.4265  0.0281
  207MOL   C15845890   2.618   1.766   0.255  0.5483  0.0252 -0.4273
  207MOL   O15945891   2.538   1.753   0.158  0.2919  0.5490 -0.2729
  207MOL   C16045892   2.570   1.817   0.385  0.7461 -0.0066  0.4593
  207MOL   H16145893   2.945   1.864   0.200 -0.0643  0.9587 -1.0145
  207MOL   H16245894   2.830   1.930   0.313 -1.3393 -0.6704 -0.1130
  207MOL   H16345895   2.781   1.688   0.132 -2.3730 -0.3105  0.0940
  207MOL   H16445896   2.487   1.888   0.383 -0.4124 -1.3387  0.7018
  207MOL   H16545897   2.655   1.856   0.442  1.0550  0.9045 -0.5914
  207MOL   H16645898   2.539   1.737   0.451 -2.1646  1.0463  0.4322
  207MOL   C16745899   2.826   1.641   0.340 -0.1030 -0.7911  0.1998
  207MOL   C16845900   2.805   1.489   0.313 -0.5246 -0.7116 -0.1804
  207MOL   C16945901   2.865   1.454   0.176  0.3882  0.2100  0.2765
  207MOL   O17045902   2.799   1.454   0.074  0.4593 -0.0865  0.2060
  207MOL   C17145903   3.013   1.418   0.164 -0.5448 -0.9450 -0.3234
  207MOL   H17245904   2.933   1.664   0.346  0.3157 -2.1428 -1.4764
  207MOL   H17345905   2.793   1.670   0.440 -2.2655 -2.9948  0.1678
  207MOL   H17445906   2.866   1.440   0.389 -1.0055 -1.0813 -0.0369
  207MOL   H17545907   3.071   1.461   0.246  0.0118 -2.0916 -0.1102
  207MOL   H17645908   3.048   1.468   0.073 -1.2720  0.7059  0.2835
  207MOL   H17745909   3.030   1.310   0.164 -0.1275 -0.8801 -0.2605
  207MOL   C17845910   2.661   1.450   0.334  0.2015  0.1668  0.1034
  207MOL   C17945911   2.641   1.303   0.386  0.0437 -0.0754 -0.0536
  207MOL   C18045912   2.492   1.257   0.370 -0.2291  0.5203 -0.6302
  207MOL   O18145913   2.465   1.186   0.276 -0.0555  0.5434  0.1729
  207MOL   C18245914   2.387   1.284   0.476 -0.6278 -1.0462  0.0406
  207MOL   H18345915   2.607   1.522   0.395  1.7878  1.8268 -0.4024
  207MOL   H18445916   2.607   1.468   0.241  1.9164  0.5029 -0.8535
  207MOL   H18545917   2.706   1.238   0.328 -1.3647 -1.5883  0.0171
  207MOL   H18645918   2.421   1.363   0.542 -0.7704  0.3470 -1.5028
  207MOL   H18745919   2.378   1.194   0.536 -1.0530 -0.6620  0.5544
  207MOL   H18845920   2.290   1.300   0.428 -0.1065  2.6219  0.0806
  207MOL   C18945921   2.690   1.287   0.525  0.1892  0.3895 -0.3435
  207MOL   C19045922   2.740   1.151   0.568 -0.1801 -0.1585  0.1484
  207MOL   C19145923   2.875   1.131   0.498  0.2101  0.0674 -0.0398
  207MOL   O19245924   2.937   1.225   0.439  0.4518 -0.0453 -0.4034
  207MOL   C19345925   2.936   0.990   0.496 -0.5884  1.1834  0.4139
  207MOL   H19445926   2.760   1.368   0.543  1.0324 -0.3169 -0.3714
  207MOL   H19545927   2.616   1.313   0.601 -0.9294  2.8136 -2.2170
  207MOL   H19645928   2.668   1.077   0.535  0.0871  0.6665 -2.3716
  207MOL   H19745929   2.858   0.925   0.454  0.4083 -0.5225  1.1648
  207MOL   H19845930   3.020   0.987   0.426 -1.4560 -1.7487 -0.5677
  207MOL   H19945931   2.962   0.959   0.597  0.3841  1.6473  0.3083
  207MOL   C20045932   2.771   1.143   0.725 -0.2776  0.0732  0.4104
  207MOL   C20145933   2.671   1.045   0.801 -0.3250  0.1605  0.5235
  207MOL   C20245934   2.526   1.077   0.777 -0.2765  0.2877  0.5524
  207MOL   O20345935   2.485   1.193   0.794  0.7143  0.1858  0.7264
  207MOL   C20445936   2.434   0.957   0.770 -0.4361 -0.4401  0.0874
  207MOL   H20545937   2.872   1.108   0.744 -0.1058  1.5169  2.2498
  207MOL   H20645938   2.762   1.243   0.766 -2.3700  0.3881 -0.7346
  207MOL   H20745939   2.683   0.947   0.755 -2.5495  0.1199 -0.0459
  207MOL   H20845940   2.408   0.951   0.665  0.1368  0.0922 -0.0891
  207MOL   H20945941   2.500   0.884   0.818 -0.7401 -1.0982 -0.4827
  207MOL   H21045942   2.342   0.967   0.828 -0.8053  1.5407 -0.7980
  207MOL   C21145943   2.714   1.037   0.948  0.4166  1.0011  0.5808
  207MOL   C21245944   2.707   1.165   1.036  0.4143  0.4631  0.4234
  207MOL   C21345945   2.758   1.148   1.177 -0.3209 -0.4083  0.3743
  207MOL   O21445946   2.712   1.066   1.256  0.3997  0.6779 -0.3940
  207MOL   C21545947   2.877   1.233   1.212  0.5878 -0.0741 -0.5384
  207MOL   H21645948   2.643   0.966   0.991  1.3582  0.5688  1.4232
  207MOL   H21745949   2.815   0.998   0.959  0.2144  0.3641  0.1839
  207MOL   H21845950   2.603   1.197   1.031  0.1711 -0.5508 -1.9465
  207MOL   H21945951   2.850   1.329   1.256  2.4133 -0.3578  1.3171
  207MOL   H22045952   2.936   1.176   1.284 -0.5728 -2.1388 -1.1775
  207MOL   H22145953   2.944   1.244   1.126  2.4644 -2.3465  0.5567
  207MOL   H22245954   2.756   1.256   1.000 -2.3445  1.8705  0.1419
  208MOL     C145955   5.150   0.499   6.258  0.0041 -0.4746  0.0704
  208MOL     C245956   5.290   0.557   6.212 -0.1851  0.1106 -0.5186
  208MOL     C345957   5.296   0.710   6.205 -0.5649  0.2248 -0.8638
  208MOL     O445958   5.357   0.756   6.115 -0.2746 -0.1827  0.1519
  208MOL     C545959   5.260   0.795   6.320  0.1059  0.1552  0.0275
  208MOL     H645960   5.147   0.401   6.211  0.3396  0.4384 -1.9117
  208MOL     H745961   5.070   0.556   6.210 -1.1219 -2.9605 -1.0656
  208MOL     H845962   5.311   0.523   6.110  2.6014 -0.2320  0.1328
  208MOL     H945963   5.319   0.769   6.407  1.8975  1.4254 -0.7623
  208MOL    H1045964   5.290   0.896   6.290 -0.6961  1.1250  2.3798
  208MOL    H1145965   5.152   0.796   6.337  0.0488 -0.0282 -0.3235
  208MOL    H1245966   5.137   0.485   6.365 -2.0771  2.1480  0.2101
  208MOL    C1345967   5.398   0.497   6.298 -0.6441  0.6502  0.2519
  208MOL    C1445968   5.536   0.537   6.250 -0.3606  0.4021 -0.2034
  208MOL    C1545969   5.576   0.433   6.145  0.3684 -0.2273  0.1718
  208MOL    O1645970   5.627   0.327   6.177 -0.1860 -0.3064  0.1713
  208MOL    C1745971   5.568   0.485   5.993  0.1192  0.2227 -0.3959
  208MOL    H1845972   5.379   0.532   6.399 -0.8396  0.4045  0.2994
  208MOL    H1945973   5.381   0.390   6.305 -3.6554  0.9136 -1.8421
  208MOL    H2045974   5.541   0.637   6.205  1.7900  1.2169  1.7348
  208MOL    H2145975   5.465   0.517   5.975  0.0780 -0.3222 -1.1734
  208MOL    H2245976   5.628   0.575   5.992 -0.4715  0.6279 -1.9069
  208MOL    H2345977   5.597   0.411   5.919  0.6999 -1.6974  1.7045
  208MOL    C2445978   5.623   0.543   6.376  0.0385  0.4008  0.9459
  208MOL    C2545979   5.770   0.582   6.351  0.0996 -0.2301  0.0313
  208MOL    C2645980   5.781   0.738   6.374  0.2887  0.2748  0.4710
  208MOL    O2745981   5.839   0.779   6.472  0.6558 -0.1481 -0.1948
  208MOL    C2845982   5.739   0.823   6.253 -0.4446 -0.2517  0.0419
  208MOL    H2945983   5.580   0.619   6.441  1.0245  0.8740  1.0553
  208MOL    H3045984   5.613   0.443   6.418  0.2948 -1.2407 -2.6423
  208MOL    H3145985   5.789   0.563   6.245 -0.8025 -2.1908  0.2020
  208MOL    H3245986   5.821   0.869   6.197 -1.6779 -0.1969 -1.7402
  208MOL    H3345987   5.682   0.774   6.176 -0.0854 -1.7147  0.6931
  208MOL    H3445988   5.673   0.901   6.292  1.3569  1.4717 -0.2543
  208MOL    C3545989   5.871   0.509   6.443  0.5284 -0.0058 -0.1532
  208MOL    C3645990   5.873   0.346   6.427  0.1680  0.5929  0.4698
  208MOL    C3745991   5.994   0.298   6.345  0.0234 -0.4087 -0.6383
  208MOL    O3845992   6.096   0.263   6.402  0.5284 -0.2602 -0.0936
  208MOL    C3945993   5.988   0.315   6.195  0.5456  0.0931  0.2788
  208MOL    H4045994   5.842   0.531   6.545 -1.6769 -1.5543 -0.4043
  208MOL    H4145995   5.970   0.553   6.430  0.8789 -0.3360  1.3433
  208MOL    H4245996   5.793   0.306   6.366 -0.3599 -0.8227  2.0453
  208MOL    H4345997   6.071   0.375   6.158  0.4508  0.0541  0.0043
  208MOL    H4445998   5.894   0.354   6.158  0.1306  1.6614  2.8272
  208MOL    H4545999   5.987   0.216   6.150 -0.3790  0.4275 -0.4575
  208MOL    C4646000   5.854   0.280   6.564  0.0039 -0.7483  0.1947
  208MOL    C4746001   5.812   0.131   6.570 -0.3467 -0.9182  0.5352
  208MOL    C4846002   5.710   0.077   6.462 -0.0497  0.2658 -0.3704
  208MOL    O4946003   5.750   0.007   6.366 -0.2405 -0.3385 -0.2746
  208MOL    C5046004   5.561   0.106   6.486 -1.0153  0.2908 -0.5547
  208MOL    H5146005   5.771   0.327   6.617  0.0476  0.2440 -0.5886
  208MOL    H5246006   5.934   0.306   6.634 -0.3614 -1.0213  0.7091
  208MOL    H5346007   5.760   0.127   6.666  0.6393 -0.3817  1.1022
  208MOL    H5446008   5.524   0.174   6.409 -1.5651  0.6147 -0.0023
  208MOL    H5546009   5.490   0.024   6.498 -1.8776  1.0137 -0.7147
  208MOL    H5646010   5.550   0.158   6.581  0.1650 -0.1713 -0.1637
  208MOL    C5746011   5.937   0.038   6.583 -0.6506  0.2884  0.0373
  208MOL    C5846012   5.924   7.738   6.605  0.1261 -0.4306  0.1221
  208MOL    C5946013   6.055   7.664   6.639 -0.4185  0.1206  0.5471
  208MOL    O6046014   6.070   7.590   6.738 -1.0754 -0.0186  0.1866
  208MOL    C6146015   6.179   7.692   6.550 -0.1349 -0.2583 -0.2897
  208MOL    H6246016   6.015   0.073   6.650  0.4913  0.6867 -1.4634
  208MOL    H6346017   5.983   0.057   6.486 -1.9098  0.7589 -0.4880
  208MOL    H6446018   5.892   7.715   6.504  1.8990  0.1800 -0.5964
  208MOL    H6546019   6.271   7.670   6.604  2.2940 -0.6296 -4.3545
  208MOL    H6646020   6.162   7.638   6.456  0.2723 -2.0132  0.6216
  208MOL    H6746021   6.180   7.798   6.526 -1.1366 -0.0234  0.6881
  208MOL    C6846022   5.809   7.704   6.706 -0.1150 -0.4090  0.2493
  208MOL    C6946023   5.746   7.563   6.693 -0.1916  0.0029  0.2728
  208MOL    C7046024   5.645   7.547   6.587 -0.1976 -0.0768  0.1090
  208MOL    O7146025   5.548   7.624   6.581  0.0658 -0.3814  0.6942
  208MOL    C7246026   5.660   7.432   6.485  0.0755  0.1533  0.0799
  208MOL    H7346027   5.835   7.708   6.812 -0.4489 -2.3459  0.4111
  208MOL    H7446028   5.724   7.769   6.685  2.1299  3.0184  1.3926
  208MOL    H7546029   5.827   7.493   6.675  0.6838  1.1544 -0.3830
  208MOL    H7646030   5.668   7.337   6.538  0.2567  1.0399  1.6724
  208MOL    H7746031   5.567   7.423   6.428 -0.2865 -1.7939  0.9358
  208MOL    H7846032   5.747   7.449   6.422 -1.7260  1.1807 -2.1928
  208MOL    C7946033   5.680   7.512   6.828 -0.4789 -0.2750 -0.4085
  208MOL    C8046034   5.785   7.481   6.935 -0.1542  0.3783 -0.2152
  208MOL    C8146035   5.848   7.346   6.908  0.7685 -0.3317  0.8784
  208MOL    O8246036   5.770   7.258   6.860 -0.0126  0.2795 -0.1773
  208MOL    C8346037   6.000   7.327   6.916  0.0257 -0.0471 -0.2257
  208MOL    H8446038   5.605   7.435   6.807 -2.6354  0.9374  2.5649
  208MOL    H8546039   5.618   7.594   6.865 -1.4768 -1.4721  0.6092
  208MOL    H8646040   5.868   7.552   6.945  0.6389 -0.4870 -0.6224
  208MOL    H8746041   6.025   7.407   6.986 -1.6407  1.3239 -1.1556
  208MOL    H8846042   6.046   7.329   6.818 -1.5352  0.2614 -0.9659
  208MOL    H8946043   6.026   7.234   6.966 -1.1548 -0.6705 -0.7373
  208MOL    C9046044   5.716   7.476   7.070  0.2691  0.0311 -0.4323
  208MOL    C9146045   5.802   7.480   7.202  0.0005  1.0018  0.6987
  208MOL    C9246046   5.917   7.583   7.197 -0.1717  0.4285  0.1811
  208MOL    O9346047   6.034   7.553   7.171 -0.0865 -0.0065  0.3905
  208MOL    C9446048   5.881   7.726   7.207  0.4279  0.1155  0.6817
  208MOL    H9546049   5.648   7.561   7.076 -1.1553 -1.2343  2.7932
  208MOL    H9646050   5.649   7.390   7.076  0.2740  0.1073  0.7988
  208MOL    H9746051   5.852   7.383   7.211 -1.1546  0.2277 -1.1095
  208MOL    H9846052   5.919   7.775   7.118 -1.5452  0.0387 -0.2361
  208MOL    H9946053   5.773   7.741   7.202  0.1142  0.1547  5.0375
  208MOL   H10046054   5.921   7.777   7.294  0.2928  1.1318  0.1501
  208MOL   C10146055   5.707   7.508   7.322  0.3218 -0.3362  0.3091
  208MOL   C10246056   5.773   7.477   7.455  0.1105 -0.1594  0.1347
  208MOL   C10346057   5.808   7.332   7.465 -0.6137  0.1260  0.9510
  208MOL   O10446058   5.725   7.243   7.448  0.9460  0.3875 -0.4050
  208MOL   C10546059   5.952   7.298   7.514 -0.2838 -0.0297 -0.1244
  208MOL   H10646060   5.658   7.605   7.315  1.2046  0.0892 -0.0742
  208MOL   H10746061   5.624   7.438   7.312  1.1574 -1.0451 -2.0387
  208MOL   H10846062   5.869   7.526   7.461  0.5391 -1.0995  1.1172
  208MOL   H10946063   5.962   7.192   7.539 -2.4093 -0.2198 -0.0066
  208MOL   H11046064   6.030   7.323   7.443 -0.8732  1.1926 -0.3544
  208MOL   H11146065   5.992   7.352   7.600 -0.7890  0.5932 -0.2774
  208MOL   C11246066   5.683   7.522   7.578  0.0117 -0.8260 -0.0567
  208MOL   C11346067   5.756   7.515   7.717  0.2385  0.5224 -0.6339
  208MOL   C11446068   5.639   7.525   7.826 -0.2720 -0.0642  0.4554
  208MOL   O11546069   5.529   7.579   7.809 -0.1903 -0.2241  0.2374
  208MOL   C11646070   5.670   7.453   0.094  0.4960  0.3499 -0.4461
  208MOL   H11746071   5.592   7.462   7.587 -2.0446  2.2898  0.5916
  208MOL   H11846072   5.641   7.622   7.568 -1.0701 -0.9618  2.6842
  208MOL   H11946073   5.804   7.417   7.721  2.5888  1.6651  0.0311
  208MOL   H12046074   5.599   7.370   0.097  1.6231 -0.6283 -0.3361
  208MOL   H12146075   5.768   7.407   0.105  0.3625  0.7094  3.0502
  208MOL   H12246076   5.666   7.529   0.173  2.1197 -1.4446  1.4373
  208MOL   C12346077   5.872   7.618   7.740 -0.1646  0.2508 -0.5802
  208MOL   C12446078   5.833   7.762   7.755 -0.1291  0.0140 -0.2444
  208MOL   C12546079   5.813   7.836   7.618  0.0136 -0.5147  0.3654
  208MOL   O12646080   5.893   7.845   7.526  0.5538  0.3734  0.1300
  208MOL   C12746081   5.678   0.046   7.591  0.1004 -0.1542  0.7131
  208MOL   H12846082   5.945   7.602   7.661 -0.1636  2.4133 -1.0335
  208MOL   H12946083   5.927   7.580   7.826 -1.8446 -1.8461 -0.3692
  208MOL   H13046084   5.743   7.772   7.816 -0.0789  0.2165 -0.2053
  208MOL   H13146085   5.662   0.091   7.493 -1.3228 -1.2297  0.4221
  208MOL   H13246086   5.653   0.128   7.658  1.0982  1.2898 -0.6698
  208MOL   H13346087   5.603   7.826   7.610 -2.1015  1.6513 -0.3449
  208MOL   C13446088   5.945   7.830   7.830 -0.0519  0.1729  0.5119
  208MOL   C13546089   5.935   0.127   7.856 -0.3867  0.1377  0.2604
  208MOL   C13646090   5.812   0.162   0.083  0.3346 -0.2699 -0.0903
  208MOL   O13746091   5.770   0.090   0.174  0.0887 -0.2631 -0.3602
  208MOL   C13846092   5.752   0.296   0.054  0.3548  0.0323  0.1152
  208MOL   H13946093   6.028   7.806   7.764 -0.5894 -1.3293  0.3506
  208MOL   H14046094   5.963   7.766   0.059  2.3738 -0.6668 -0.5499
  208MOL   H14146095   5.892   0.169   7.765 -2.7794 -3.3133 -0.2554
  208MOL   H14246096   5.677   0.293   7.833  1.2777 -2.8648 -0.7283
  208MOL   H14346097   5.829   0.362   0.013  0.0006  0.0130 -0.5995
  208MOL   H14446098   5.705   0.341   0.141 -4.5360 -1.5138 -1.5954
  208MOL   C14546099   6.067   0.192   0.036 -0.1966  0.0873  0.3504
  208MOL   C14646100   6.106   0.310   7.797  0.1353 -0.1296 -0.1455
  208MOL   C14746101   6.242   0.379   7.837 -0.2202 -0.2699  0.1844
  208MOL   O14846102   6.344   0.313   7.850 -0.3833  0.4955  0.5150
  208MOL   C14946103   6.233   0.530   0.000 -0.2319  0.1387  0.3391
  208MOL   H15046104   6.151   0.122   0.036 -1.5890 -1.6863 -3.0902
  208MOL   H15146105   6.055   0.229   0.138 -2.5687 -0.0933  0.1624
  208MOL   H15246106   6.028   0.385   7.805 -0.8820 -1.1912  0.0348
  208MOL   H15346107   6.315   0.569   0.061 -1.1451  0.6537  1.2492
  208MOL   H15446108   6.246   0.575   7.760 -1.7839  1.0381  0.5384
  208MOL   H15546109   6.142   0.567   0.047  0.1124 -1.2209  2.1274
  208MOL   C15646110   6.116   0.268   7.643 -0.0891  0.3305 -0.3230
  208MOL   C15746111   6.057   0.371   7.537 -0.3762  0.0310  0.4059
  208MOL   C15846112   5.909   0.423   7.556  0.5453 -0.7797  0.6826
  208MOL   O15946113   5.819   0.353   7.605 -0.1513  0.3207  0.1160
  208MOL   C16046114   5.884   0.567   7.523 -0.1101  0.1576 -0.1991
  208MOL   H16146115   6.217   0.233   7.623  0.3201 -0.0665  2.3183
  208MOL   H16246116   6.049   0.183   7.628  1.5224 -0.8807 -0.8227
  208MOL   H16346117   6.126   0.455   7.541 -1.3213  0.8832 -0.7907
  208MOL   H16446118   5.963   0.623   7.573  1.3784 -2.4079  0.3659
  208MOL   H16546119   5.785   0.593   7.561 -0.3861 -0.4651 -0.4947
  208MOL   H16646120   5.871   0.581   7.415  0.0002  1.2442 -0.0796
  208MOL   C16746121   6.070   0.313   7.397  0.3779 -0.4998 -0.5579
  208MOL   C16846122   6.213   0.267   7.345  0.5329  0.4470 -0.3813
  208MOL   C16946123   6.306   0.387   7.350  0.0112 -0.4375  0.2058
  208MOL   O17046124   6.292   0.487   7.278 -0.1660 -0.2293 -0.2254
  208MOL   C17146125   6.414   0.371   7.462 -0.6522  0.2490 -0.0415
  208MOL   H17246126   6.008   0.223   7.391 -1.4025  0.8268 -2.6731
  208MOL   H17346127   6.025   0.382   7.326  0.5849 -1.5888 -1.7669
  208MOL   H17446128   6.239   0.186   7.414 -0.3673 -2.5252 -3.3881
  208MOL   H17546129   6.365   0.382   7.559 -1.2831 -1.3385 -0.1633
  208MOL   H17646130   6.489   0.448   7.451  0.3322 -0.6485  0.2982
  208MOL   H17746131   6.456   0.271   7.455  0.1136  0.5853 -0.2755
  208MOL   C17846132   6.194   0.208   7.205  0.1659 -0.2502 -0.1227
  208MOL   C17946133   6.310   0.124   7.144  0.0249 -0.0344 -0.0817
  208MOL   C18046134   6.297   0.117   6.990 -0.1897 -0.2044 -0.1341
  208MOL   O18146135   6.225   0.186   6.923  0.0687 -0.1269  0.7996
  208MOL   C18246136   6.398   0.030   6.918 -0.5751  0.3237 -0.9873
  208MOL   H18346137   6.104   0.147   7.204 -1.4212  1.9322  2.7784
  208MOL   H18446138   6.183   0.283   7.127  3.2272 -1.0349 -1.4052
  208MOL   H18546139   6.404   0.174   7.165  0.2261  0.2106 -1.4699
  208MOL   H18646140   6.505   0.047   6.933 -0.3249 -1.7597 -0.1835
  208MOL   H18746141   6.390   0.038   6.810  1.9612 -1.6172 -1.3675
  208MOL   H18846142   6.381   7.784   6.947 -0.1759 -0.0190 -1.9695
  208MOL   C18946143   6.304   7.846   7.211 -0.1020  0.5505  0.7042
  208MOL   C19046144   6.445   7.797   7.256  0.0005  0.8636  0.0805
  208MOL   C19146145   6.475   7.833   7.397 -0.1302 -0.2338 -0.0821
  208MOL   O19246146   6.390   7.857   7.483  0.2045 -0.0886 -0.5113
  208MOL   C19346147   6.622   7.833   7.440  0.1125 -0.4801  0.0413
  208MOL   H19446148   6.248   0.006   7.303  1.0625  1.7315  1.2133
  208MOL   H19546149   6.257   7.780   7.139 -2.5542  2.3161  0.6309
  208MOL   H19646150   6.519   7.854   7.199 -1.4183  1.3246 -1.3128
  208MOL   H19746151   6.626   0.034   7.532 -0.7335 -0.0427 -0.2052
  208MOL   H19846152   6.649   7.730   7.465 -2.1864 -0.7952  1.3700
  208MOL   H19946153   6.691   0.028   7.374 -1.2373 -0.3528 -1.2918
  208MOL   C20046154   6.480   7.653   7.219 -0.1613  0.3594  0.2245
  208MOL   C20146155   6.374   7.550   7.256  0.2450 -0.2490  0.6855
  208MOL   C20246156   6.377   7.516   7.411  1.2967 -0.2899 -0.0601
  208MOL   O20346157   6.473   7.455   7.458 -0.5686 -0.4583 -0.0556
  208MOL   C20446158   6.250   7.549   7.488 -0.7805  0.6988  0.1930
  208MOL   H20546159   6.489   7.652   7.110 -2.2704  2.0868 -0.0117
  208MOL   H20646160   6.579   7.624   7.253 -0.7588 -0.3015  1.4184
  208MOL   H20746161   6.276   7.586   7.228  0.2111 -1.3279 -0.6182
  208MOL   H20846162   6.269   7.594   7.585  2.7532 -0.0600 -0.0773
  208MOL   H20946163   6.201   7.633   7.439 -1.2253 -0.8799 -2.1513
  208MOL   H21046164   6.180   7.465   7.489 -0.4006  0.3644 -0.8579
  208MOL   C21146165   6.385   7.417   7.177 -0.2741 -0.2822 -0.6316
  208MOL   C21246166   6.324   7.415   7.034 -0.2473  0.1432  0.9543
  208MOL   C21346167   6.412   7.450   6.917  0.1197 -0.0287 -0.5238
  208MOL   O21446168   6.534   7.424   6.924 -0.2250 -0.3174 -0.4976
  208MOL   C21546169   6.347   7.498   6.785  0.1683  0.5070  0.1578
  208MOL   H21646170   6.490   7.391   7.176  0.0554  1.0263 -0.4756
  208MOL   H21746171   6.344   7.335   7.236 -2.1126  1.1765  0.2221
  208MOL   H21846172   6.237   7.481   7.030  0.1514  0.6165 -0.0793
  208MOL   H21946173   6.276   7.417   6.768 -0.1993  0.8692 -0.0455
  208MOL   H22046174   6.294   7.591   6.804  0.7751  0.7921  0.4704
  208MOL   H22146175   6.428   7.511   6.713 -1.0407  1.3727 -1.0590
  208MOL   H22246176   6.294   7.313   7.013  1.5293 -0.1054 -0.4770
  209MOL     C146177   4.754   1.598   4.101  0.1656 -0.0003 -0.1260
  209MOL     C246178   4.745   1.753   4.127  0.1281  0.5963 -0.0693
  209MOL     C346179   4.624   1.790   4.211  0.6358  0.4512  0.0161
  209MOL     O446180   4.618   1.783   4.334  0.3357 -0.1698 -0.3514
  209MOL     C546181   4.499   1.832   4.130 -0.1409 -0.0036 -0.0989
  209MOL     H646182   4.805   1.549   4.183  0.6354  3.2598  1.5879
  209MOL     H746183   4.801   1.579   4.005  1.5965  3.4978 -0.1807
  209MOL     H846184   4.737   1.798   4.028 -1.8659  1.2187  0.3557
  209MOL     H946185   4.463   1.741   4.082 -2.3939  0.4382  0.6870
  209MOL    H1046186   4.421   1.871   4.195 -1.2389  0.8389 -1.8942
  209MOL    H1146187   4.530   1.897   4.048  0.3262 -0.5955 -0.3960
  209MOL    H1246188   4.657   1.548   4.103 -0.1832  0.5754 -1.7295
  209MOL    C1346189   4.877   1.803   4.200  0.4970  0.0292 -0.5094
  209MOL    C1446190   4.880   1.964   4.217 -0.1363  0.3023 -0.2040
  209MOL    C1546191   4.912   2.037   4.083  0.5336 -0.4847 -0.0284
  209MOL    O1646192   5.024   2.065   4.048  0.1384 -0.0573  0.1646
  209MOL    C1746193   4.793   2.080   3.994  0.0260 -0.4870 -0.2390
  209MOL    H1846194   4.884   1.756   4.298 -0.0896 -1.0201 -0.9769
  209MOL    H1946195   4.967   1.785   4.141 -0.2145  1.4100 -2.0818
  209MOL    H2046196   4.787   2.004   4.258 -0.8794 -1.6566  0.0922
  209MOL    H2146197   4.707   2.021   4.026  0.1561  0.2690  1.5982
  209MOL    H2246198   4.782   2.185   4.021  0.1594 -0.7909  1.0221
  209MOL    H2346199   4.811   2.049   3.891 -1.6534 -2.6574  0.0837
  209MOL    C2446200   4.986   1.989   4.323 -0.3402  0.7292 -0.1635
  209MOL    C2546201   4.973   2.122   4.406  0.6135 -0.0549  0.1591
  209MOL    C2646202   4.931   2.084   4.546 -0.1923 -0.0455  0.2259
  209MOL    O2746203   5.018   2.071   4.637 -0.1413 -0.0449  0.2436
  209MOL    C2846204   4.785   2.057   4.583 -0.4149  0.1217  0.6778
  209MOL    H2946205   4.984   1.909   4.396 -0.0828  1.8168  1.0479
  209MOL    H3046206   5.089   1.971   4.290 -1.1033 -0.8568 -1.7767
  209MOL    H3146207   4.885   2.175   4.369 -0.4565 -1.4546  0.6571
  209MOL    H3246208   4.735   2.009   4.498 -0.8849 -0.4641  1.2781
  209MOL    H3346209   4.775   1.987   4.666  1.0897  1.1207  1.7099
  209MOL    H3446210   4.741   2.153   4.611  0.1910  0.1074  1.6856
  209MOL    C3546211   5.108   2.202   4.420  0.6021  0.4018  0.5152
  209MOL    C3646212   5.157   2.266   4.293 -0.9486  0.9529 -0.0265
  209MOL    C3746213   5.071   2.372   4.240  0.1728  0.0841  0.2195
  209MOL    O3846214   4.985   2.411   4.319  0.0362 -0.2497 -0.1240
  209MOL    C3946215   5.084   2.426   4.104  0.3651 -0.2120 -0.2726
  209MOL    H4046216   5.183   2.129   4.451  0.4270  1.3658  3.2704
  209MOL    H4146217   5.113   2.276   4.500 -1.1509  0.1085  0.9176
  209MOL    H4246218   5.149   2.185   4.220  2.3668  0.7407 -0.2210
  209MOL    H4346219   5.116   2.344   4.039 -0.7610 -0.5347 -0.4256
  209MOL    H4446220   5.151   2.511   4.096  2.7656 -1.9051  1.0693
  209MOL    H4546221   4.993   2.464   4.058  1.2080 -1.1236 -2.8151
  209MOL    C4646222   5.300   2.309   4.303  0.4183 -0.3791  0.2996
  209MOL    C4746223   5.403   2.202   4.277  0.8619 -0.7708 -0.5753
  209MOL    C4846224   5.398   2.163   4.130 -0.5229  0.3999  0.3905
  209MOL    O4946225   5.377   2.244   4.035 -0.2722  0.5245  0.2636
  209MOL    C5046226   5.422   2.018   4.101  0.4985 -0.2218 -0.1999
  209MOL    H5146227   5.316   2.358   4.399  1.0589 -0.2157  0.1151
  209MOL    H5246228   5.318   2.400   4.246 -0.1612  0.6024  1.6855
  209MOL    H5346229   5.385   2.115   4.340 -0.0290  0.5238  1.0063
  209MOL    H5446230   5.520   1.987   4.066  1.3617  1.1616  0.9502
  209MOL    H5546231   5.388   1.954   4.182 -0.5746  1.6258  0.8386
  209MOL    H5646232   5.355   1.988   4.020 -0.7560 -2.7576  1.7164
  209MOL    C5746233   5.540   2.250   4.314 -0.7679  0.1194  0.4426
  209MOL    C5846234   5.655   2.149   4.304 -0.2710 -0.2121 -0.5497
  209MOL    C5946235   5.787   2.217   4.303  0.4927 -1.0869  0.0704
  209MOL    O6046236   5.854   2.231   4.409  0.4607 -0.0877 -0.0938
  209MOL    C6146237   5.832   2.291   4.177  0.4416 -0.6891 -0.0705
  209MOL    H6246238   5.527   2.283   4.417  0.2455 -1.9608  1.2636
  209MOL    H6346239   5.567   2.346   4.272  4.2873 -0.5863  1.6786
  209MOL    H6446240   5.655   2.096   4.209  1.3584  2.0143 -1.8398
  209MOL    H6546241   5.749   2.311   4.110  0.8043  0.6483 -0.1431
  209MOL    H6646242   5.853   2.392   4.214  0.1257 -0.9636  0.8882
  209MOL    H6746243   5.924   2.244   4.143  1.8067  1.2997  0.7524
  209MOL    C6846244   5.631   2.045   4.419  0.2565  0.0024  0.1820
  209MOL    C6946245   5.734   1.928   4.419  0.3382 -0.3723  0.1356
  209MOL    C7046246   5.737   1.844   4.294 -0.3412  0.3650  0.0319
  209MOL    O7146247   5.626   1.811   4.245 -0.2623 -0.4183 -0.1905
  209MOL    C7246248   5.862   1.780   4.232  0.6594  0.1589 -0.4031
  209MOL    H7346249   5.627   2.097   4.514  0.3782  1.4211 -0.5751
  209MOL    H7446250   5.530   2.003   4.411  0.0804  0.4771 -0.0932
  209MOL    H7546251   5.833   1.972   4.429 -0.2536  0.7384  1.3737
  209MOL    H7646252   5.889   1.841   4.146 -1.0864 -0.4013 -1.3833
  209MOL    H7746253   5.948   1.780   4.299  0.3635  0.6721 -0.0188
  209MOL    H7846254   5.848   1.680   4.192  0.5728  0.8178 -2.0435
  209MOL    C7946255   5.732   1.832   4.538  0.1311 -0.4562 -0.2933
  209MOL    C8046256   5.730   1.889   4.680  0.2200  0.6026 -0.3473
  209MOL    C8146257   5.848   1.977   4.707  0.5918  0.1142 -0.0741
  209MOL    O8246258   5.962   1.929   4.707  0.3727  0.1964  0.4424
  209MOL    C8346259   5.820   2.135   4.724 -0.1026  0.4235 -0.4925
  209MOL    H8446260   5.819   1.768   4.526  1.0547  0.6289  0.5123
  209MOL    H8546261   5.646   1.767   4.521  0.4908 -0.8755 -0.5129
  209MOL    H8646262   5.638   1.947   4.686  0.1153  0.4609 -0.5819
  209MOL    H8746263   5.875   2.182   4.805 -0.1642 -0.0957 -0.1469
  209MOL    H8846264   5.712   2.152   4.730  0.4411  4.1901  0.0598
  209MOL    H8946265   5.850   2.184   4.632 -0.3961  1.4364 -0.0551
  209MOL    C9046266   5.717   1.767   4.782  0.2750  0.0922  0.4823
  209MOL    C9146267   5.698   1.795   4.933  0.4378  0.4887  0.1118
  209MOL    C9246268   5.557   1.856   4.958  0.5215 -0.3889 -0.1383
  209MOL    O9346269   5.464   1.827   4.884  0.6781  0.4839 -0.3610
  209MOL    C9446270   5.537   1.962   5.063 -0.0452  0.7056 -0.3575
  209MOL    H9546271   5.638   1.702   4.743 -0.4482  0.9642  0.4657
  209MOL    H9646272   5.812   1.715   4.776 -0.4758 -1.3773  1.0210
  209MOL    H9746273   5.765   1.869   4.976 -0.6847 -0.2415  3.2116
  209MOL    H9846274   5.439   2.010   5.062 -1.1193 -1.3125  2.3351
  209MOL    H9946275   5.549   1.907   5.156  3.5359  1.7271 -0.1565
  209MOL   H10046276   5.610   2.043   5.066  1.1173 -0.3211 -0.3804
  209MOL   C10146277   5.685   1.669   5.014  0.4071  0.3854 -0.3620
  209MOL   C10246278   5.793   1.633   5.116 -0.2345  0.3915  0.0994
  209MOL   C10346279   5.793   1.727   5.234 -0.4621  0.8036 -0.6081
  209MOL   O10446280   5.868   1.823   5.238  0.4047 -0.2814  0.1290
  209MOL   C10546281   5.698   1.708   5.352 -0.0518 -0.0336  0.2491
  209MOL   H10646282   5.594   1.653   5.073 -0.3191  1.2520 -1.2339
  209MOL   H10746283   5.674   1.591   4.938  0.2886 -0.6367  0.6918
  209MOL   H10846284   5.765   1.534   5.153  0.9322 -0.2022 -0.5933
  209MOL   H10946285   5.659   1.607   5.356 -0.1275  0.0067  0.6121
  209MOL   H11046286   5.750   1.731   5.446  0.7478 -2.0405  0.3132
  209MOL   H11146287   5.612   1.775   5.349  0.4690  0.6557  0.3510
  209MOL   C11246288   5.930   1.612   5.046 -0.8020 -0.0473 -0.0090
  209MOL   C11346289   5.950   1.476   4.967 -0.1229 -0.3733 -0.5362
  209MOL   C11446290   5.936   1.358   5.064  0.0711 -0.2280 -0.0405
  209MOL   O11546291   6.013   1.338   5.158  0.4892  0.0816  1.1083
  209MOL   C11646292   5.817   1.271   5.036 -0.1455 -0.5858 -0.1579
  209MOL   H11746293   6.016   1.623   5.113  0.7926  2.1709 -2.3390
  209MOL   H11846294   5.948   1.693   4.976 -0.7031 -1.0997 -1.2225
  209MOL   H11946295   5.874   1.468   4.889 -0.2314  0.2647 -0.4976
  209MOL   H12046296   5.732   1.321   4.990  1.0938  2.4683  0.7191
  209MOL   H12146297   5.853   1.188   4.974 -0.0576  0.4847 -1.5578
  209MOL   H12246298   5.789   1.218   5.128 -1.5353  1.2229  0.4927
  209MOL   C12346299   6.074   1.461   4.883  0.3276 -1.1091  0.5466
  209MOL   C12446300   6.075   1.351   4.767  0.3962  0.0605  0.0658
  209MOL   C12546301   6.145   1.222   4.817  0.3472 -0.1833 -0.0685
  209MOL   O12646302   6.236   1.235   4.898 -0.0056  0.1571 -0.1800
  209MOL   C12746303   6.096   1.084   4.777 -0.1859  0.2873 -0.2380
  209MOL   H12846304   6.166   1.459   4.940 -0.0843  3.3950  1.5185
  209MOL   H12946305   6.092   1.559   4.840 -4.1777  1.2233  3.5455
  209MOL   H13046306   5.969   1.339   4.744 -0.4373  4.9271  0.7345
  209MOL   H13146307   6.038   1.051   4.863 -0.9559  1.2644 -0.3782
  209MOL   H13246308   6.175   1.009   4.771  1.2610  1.5323  2.5635
  209MOL   H13346309   6.052   1.088   4.677  0.0488 -0.8337 -0.3925
  209MOL   C13446310   6.143   1.404   4.647 -0.1417 -0.2610 -0.2318
  209MOL   C13546311   6.073   1.507   4.552 -0.2882 -0.7865  0.7756
  209MOL   C13646312   6.172   1.616   4.504  0.3446 -0.1863 -0.5738
  209MOL   O13746313   6.234   1.594   4.398  0.5625 -0.1355  0.1312
  209MOL   C13846314   6.173   1.750   4.572  0.5949  0.2904  0.1015
  209MOL   H13946315   6.178   1.325   4.581 -0.2645 -0.3077 -0.2413
  209MOL   H14046316   6.228   1.447   4.700 -1.6672  1.0906  1.1850
  209MOL   H14146317   6.016   1.577   4.614  0.7349  2.1932 -1.5383
  209MOL   H14246318   6.223   1.821   4.506 -2.9600  3.5759  0.8273
  209MOL   H14346319   6.200   1.752   4.678  0.6456 -1.7908  0.1539
  209MOL   H14446320   6.079   1.804   4.564 -0.8583 -1.2793  4.7859
  209MOL   C14546321   5.987   1.448   4.431 -0.5530 -0.0201  0.1040
  209MOL   C14646322   5.883   1.338   4.461  0.3961 -0.6494  0.1632
  209MOL   C14746323   5.773   1.381   4.555 -0.6534 -0.1531  0.5786
  209MOL   O14846324   5.730   1.492   4.559  0.3241 -0.3535 -0.2107
  209MOL   C14946325   5.709   1.277   4.649 -0.4086 -0.3124 -0.3292
  209MOL   H15046326   6.052   1.404   4.355 -1.5077  0.4017 -0.9789
  209MOL   H15146327   5.934   1.533   4.388 -0.0658 -0.2992 -1.0608
  209MOL   H15246328   5.937   1.255   4.506 -0.0643 -0.3119  1.3513
  209MOL   H15346329   5.611   1.246   4.614 -0.8684  1.5234 -0.7139
  209MOL   H15446330   5.776   1.192   4.663  0.1237 -0.0885 -1.4534
  209MOL   H15546331   5.698   1.320   4.749 -0.8273  0.0503 -0.5340
  209MOL   C15646332   5.797   1.290   4.334 -0.5221  0.1049 -0.1923
  209MOL   C15746333   5.877   1.217   4.222 -0.6550  0.4591  0.0817
  209MOL   C15846334   5.790   1.168   4.107  0.3002 -0.6263 -0.2236
  209MOL   O15946335   5.741   1.058   4.103 -0.1661 -0.1527 -0.0871
  209MOL   C16046336   5.774   1.265   3.995  0.3719 -0.3453 -0.4206
  209MOL   H16146337   5.723   1.217   4.367 -1.4822  1.4795  0.7352
  209MOL   H16246338   5.746   1.380   4.301  0.3781  0.5931 -0.2699
  209MOL   H16346339   5.937   1.290   4.168  0.2942  0.3734  1.0047
  209MOL   H16446340   5.795   1.366   4.031 -0.6598 -1.0779  2.3468
  209MOL   H16546341   5.674   1.264   3.952 -0.0022  0.9211  0.3911
  209MOL   H16646342   5.857   1.249   3.926  1.0100 -2.6116  0.8494
  209MOL   C16746343   5.975   1.108   4.274 -0.8590  0.5093 -0.6033
  209MOL   C16846344   6.056   1.042   4.162  0.9367  0.8831  0.4726
  209MOL   C16946345   6.150   0.940   4.241  1.0374 -0.0304  0.2205
  209MOL   O17046346   6.248   0.979   4.311  0.1119  0.5228 -0.4679
  209MOL   C17146347   6.127   0.796   4.206 -0.3916 -0.2485 -0.0252
  209MOL   H17246348   6.041   1.153   4.348 -1.3387 -0.4347  0.4205
  209MOL   H17346349   5.913   1.038   4.330 -1.4184  0.2246 -1.5573
  209MOL   H17446350   5.985   0.989   4.098 -0.4833  2.5973  0.5757
  209MOL   H17546351   6.020   0.777   4.202 -0.4490 -0.9450  3.0876
  209MOL   H17646352   6.172   0.725   4.275 -0.1229 -1.7813 -1.7353
  209MOL   H17746353   6.163   0.771   4.107 -0.8397  0.6635 -0.4242
  209MOL   C17846354   6.139   1.129   4.069  0.1902  1.2591 -0.2632
  209MOL   C17946355   6.182   1.056   3.939 -0.4752 -0.2963 -0.2180
  209MOL   C18046356   6.292   1.135   3.868 -0.5209  0.7898  0.1725
  209MOL   O18146357   6.406   1.089   3.842  0.0463  0.0308 -0.0672
  209MOL   C18246358   6.263   1.286   3.845 -0.1816  0.0016  0.6745
  209MOL   H18346359   6.082   1.215   4.036  0.5773  1.2748 -0.9037
  209MOL   H18446360   6.225   1.168   4.124 -0.1437  0.4668  0.8412
  209MOL   H18546361   6.229   0.960   3.960 -0.5924 -0.1743  0.6234
  209MOL   H18646362   6.175   1.303   3.781  0.6813  1.5584 -0.1254
  209MOL   H18746363   6.346   1.339   3.798 -1.1033  1.8177  1.0165
  209MOL   H18846364   6.253   1.345   3.936  0.8513  2.0405 -0.4972
  209MOL   C18946365   6.070   1.015   3.838 -0.2519  0.4289  0.4070
  209MOL   C19046366   6.111   0.901   3.742 -0.4354  0.0441 -0.4300
  209MOL   C19146367   6.143   0.773   3.825  0.3278 -0.7104 -0.6063
  209MOL   O19246368   6.056   0.722   3.890 -0.0625 -0.2462  0.2734
  209MOL   C19346369   6.285   0.714   3.835 -0.4894 -0.0920 -0.0695
  209MOL   H19446370   5.978   0.990   3.892  0.1439 -0.4717  0.6634
  209MOL   H19546371   6.050   1.113   3.794  1.3592  0.5045 -0.1738
  209MOL   H19646372   6.202   0.933   3.692 -0.1288 -0.4857 -0.2100
  209MOL   H19746373   6.321   0.704   3.937  0.0559 -1.4741 -0.3891
  209MOL   H19846374   6.279   0.610   3.802  2.6364 -0.8820  1.6101
  209MOL   H19946375   6.347   0.782   3.777  0.4520 -0.7703  0.1297
  209MOL   C20046376   6.011   0.876   3.628 -0.8147 -0.0385 -0.4625
  209MOL   C20146377   6.036   0.759   3.519 -0.0211  0.1013 -0.4254
  209MOL   C20246378   6.158   0.775   3.429 -0.5088  0.0463 -0.6184
  209MOL   O20346379   6.142   0.862   3.342 -0.0590  0.2180  0.0198
  209MOL   C20446380   6.288   0.702   3.456 -0.4914  0.4071  0.0811
  209MOL   H20546381   5.908   0.865   3.662 -0.3961  1.4535  1.4295
  209MOL   H20646382   6.003   0.970   3.573  1.7015  0.6459  0.2798
  209MOL   H20746383   6.045   0.675   3.588 -0.9242  1.2172  1.0794
  209MOL   H20846384   6.299   0.605   3.408  1.9642  0.0094  1.3915
  209MOL   H20946385   6.377   0.759   3.431 -1.0927 -0.3628 -4.1143
  209MOL   H21046386   6.291   0.678   3.562 -0.3663 -2.5733 -0.5579
  209MOL   C21146387   5.910   0.739   3.430 -0.3928  0.1807  0.2779
  209MOL   C21246388   5.911   0.633   3.320  0.3500  0.1218  0.4071
  209MOL   C21346389   5.915   0.486   3.374  0.3437 -0.0343  0.6259
  209MOL   O21446390   5.992   0.446   3.459  0.4900 -0.4105 -0.2989
  209MOL   C21546391   5.823   0.386   3.307 -0.4349 -0.0045 -0.8281
  209MOL   H21646392   5.832   0.704   3.497 -1.2803 -2.5878 -2.0883
  209MOL   H21746393   5.874   0.826   3.374  0.0366  0.4935  0.4818
  209MOL   H21846394   5.978   0.654   3.237 -0.2762 -1.1453 -0.4389
  209MOL   H21946395   5.724   0.430   3.299 -0.4106  0.2603  0.2012
  209MOL   H22046396   5.870   0.347   3.217  1.5583  1.9949 -0.6940
  209MOL   H22146397   5.826   0.300   3.375  1.3837  1.3423  0.8954
  209MOL   H22246398   5.811   0.647   3.277 -0.2169 -2.3214  0.8441
  210MOL     C146399   0.412   2.300   6.034  0.1090  0.2415  0.4664
  210MOL     C246400   0.341   2.279   6.168 -0.1499  0.5113  0.3463
  210MOL     C346401   0.244   2.165   6.162 -0.3449  0.2640 -0.4094
  210MOL     O446402   0.283   2.055   6.113  1.1995 -0.0977 -0.0682
  210MOL     C546403   0.097   2.190   6.214 -0.3143 -0.0860 -0.4321
  210MOL     H646404   0.497   2.232   6.021 -0.4265 -0.4334  0.4883
  210MOL     H746405   0.433   2.401   5.999 -1.9580  0.6926  0.4802
  210MOL     H846406   0.275   2.366   6.177 -0.7506 -0.0768  1.7598
  210MOL     H946407   0.093   2.288   6.260 -0.5249 -0.1946 -0.2181
  210MOL    H1046408   0.035   2.186   6.124 -0.2602  0.3249 -0.4875
  210MOL    H1146409   0.062   2.111   6.281  0.6184 -0.7128 -0.6722
  210MOL    H1246410   0.350   2.276   5.948 -1.5302 -0.3699  1.7913
  210MOL    C1346411   0.442   2.265   6.292  0.2917 -0.4671  0.3446
  210MOL    C1446412   0.555   2.378   6.319 -0.3752  0.3835 -0.9162
  210MOL    C1546413   0.495   2.507   6.343  0.5893  0.3901  0.1041
  210MOL    O1646414   0.440   2.570   6.254 -0.3632 -0.3777  0.2421
  210MOL    C1746415   0.482   2.571   6.479 -0.0354  0.5127  0.6632
  210MOL    H1846416   0.388   2.261   6.386  2.2250  2.2898  1.6510
  210MOL    H1946417   0.501   2.174   6.277  1.4462  0.4683 -1.0781
  210MOL    H2046418   0.592   2.352   6.419 -1.7816  0.4756 -0.3650
  210MOL    H2146419   0.510   2.676   6.469  3.1031 -0.3299  0.1010
  210MOL    H2246420   0.376   2.558   6.503 -0.5098 -0.0507 -1.6520
  210MOL    H2346421   0.535   2.527   6.564  0.2236  0.0624  0.2703
  210MOL    C2446422   0.665   2.386   6.213  0.2970 -0.4530  0.6190
  210MOL    C2546423   0.806   2.393   6.280  0.5204  0.2031 -0.0993
  210MOL    C2646424   0.861   2.257   6.333  0.8785 -0.3247 -0.5900
  210MOL    O2746425   0.889   2.154   6.267 -0.8153  0.0041  0.5542
  210MOL    C2846426   0.880   2.264   6.481  0.4751 -0.9760 -0.4295
  210MOL    H2946427   0.655   2.302   6.145  0.8696  2.2959 -3.0624
  210MOL    H3046428   0.645   2.469   6.145  0.5303 -1.7105 -1.0263
  210MOL    H3146429   0.785   2.449   6.371 -0.2756 -0.6762  0.2683
  210MOL    H3246430   0.889   2.163   6.522 -0.7947  0.4169  3.5178
  210MOL    H3346431   0.969   2.322   6.504 -1.0390  1.5284 -0.6811
  210MOL    H3446432   0.794   2.313   6.527 -0.3806 -0.3320 -2.6656
  210MOL    C3546433   0.912   2.456   6.196  0.5697 -0.5313  0.3196
  210MOL    C3646434   0.883   2.601   6.143 -0.2522 -0.3995  0.3850
  210MOL    C3746435   0.814   2.690   6.247  0.0733 -0.0229  0.2136
  210MOL    O3846436   0.853   2.689   6.360 -0.1848 -0.2824 -0.0176
  210MOL    C3946437   0.701   2.772   6.199 -0.5035 -0.3549  0.6194
  210MOL    H4046438   0.933   2.392   6.110 -1.2386 -0.0513 -0.4979
  210MOL    H4146439   1.005   2.450   6.253  0.5879 -0.6527  0.2762
  210MOL    H4246440   0.825   2.595   6.051 -1.7836  1.0419  1.2404
  210MOL    H4346441   0.606   2.744   6.246 -2.4743  1.1172 -2.3594
  210MOL    H4446442   0.695   2.764   6.091  0.9621 -0.8285  0.5596
  210MOL    H4546443   0.722   2.875   6.225 -0.4736  0.2535 -1.7088
  210MOL    C4646444   1.001   2.688   6.098 -0.1532  0.2199 -0.0797
  210MOL    C4746445   1.127   2.675   6.185 -0.8458 -0.4373 -0.4061
  210MOL    C4846446   1.217   2.554   6.159 -0.0081 -0.3223  0.9306
  210MOL    O4946447   1.221   2.515   6.048 -0.2979  0.0152 -0.2159
  210MOL    C5046448   1.317   2.504   6.261  0.1513 -0.2693  0.1107
  210MOL    H5146449   0.967   2.789   6.075  1.1369  0.8661  0.8120
  210MOL    H5246450   1.032   2.661   5.997  0.0262  0.5752 -0.1170
  210MOL    H5346451   1.100   2.649   6.287 -0.2701  2.7360  0.5765
  210MOL    H5446452   1.349   2.408   6.218 -2.1023 -1.8873  1.9662
  210MOL    H5546453   1.401   2.573   6.272  0.6333 -1.0858  1.7265
  210MOL    H5646454   1.276   2.481   6.359  1.7358 -0.8580  0.6600
  210MOL    C5746455   1.203   2.813   6.197  0.3077  0.1780 -0.7090
  210MOL    C5846456   1.285   2.865   6.075 -0.0559  0.0111  0.3469
  210MOL    C5946457   1.195   2.914   5.956 -0.7172  0.4505 -0.0465
  210MOL    O6046458   1.134   3.017   5.966  0.2180 -0.7577  0.7528
  210MOL    C6146459   1.195   2.825   5.826  0.2546 -0.7196  0.1696
  210MOL    H6246460   1.274   2.796   6.278  2.0418 -0.1538 -2.2732
  210MOL    H6346461   1.139   2.887   6.245 -1.1571 -1.0510 -0.7373
  210MOL    H6446462   1.333   2.773   6.040 -1.0264 -0.4237  0.1343
  210MOL    H6546463   1.099   2.823   5.775  0.0583  0.7289  0.4665
  210MOL    H6646464   1.260   2.870   5.751  1.1680 -0.9884  0.7876
  210MOL    H6746465   1.242   2.730   5.851  2.7949  0.2690 -0.6247
  210MOL    C6846466   1.392   2.968   6.120 -0.1242 -0.7324 -0.2767
  210MOL    C6946467   1.504   3.003   6.020 -0.1097  0.8070  0.2133
  210MOL    C7046468   1.568   2.875   5.970  0.0887  1.1569  0.4520
  210MOL    O7146469   1.646   2.805   6.036  0.1982  0.3094 -0.5483
  210MOL    C7246470   1.533   2.836   5.826 -0.4156 -0.5001 -0.2427
  210MOL    H7346471   1.348   3.062   6.153  0.3652 -0.9375  1.0334
  210MOL    H7446472   1.431   2.926   6.213  2.9774  0.4766 -0.9545
  210MOL    H7546473   1.463   3.059   5.936  0.7052  0.8458 -0.1674
  210MOL    H7646474   1.613   2.775   5.784 -0.4447 -0.7193  0.0182
  210MOL    H7746475   1.450   2.767   5.806 -1.2411  0.0976  1.0532
  210MOL    H7846476   1.521   2.916   5.754 -0.5811 -0.6905 -0.4292
  210MOL    C7946477   1.611   3.099   6.085  0.1081  0.4326  0.4092
  210MOL    C8046478   1.722   3.157   5.999  0.8791  0.7912 -0.3310
  210MOL    C8146479   1.780   3.274   6.084 -0.2641  0.3140  0.2494
  210MOL    O8246480   1.761   3.389   6.065 -0.3122  0.4328 -0.2311
  210MOL    C8346481   1.883   3.236   6.184 -0.5426 -0.1689  0.2959
  210MOL    H8446482   1.664   3.055   6.169  1.4846 -1.6013 -1.4447
  210MOL    H8546483   1.546   3.180   6.117 -3.0500 -2.3085  1.2455
  210MOL    H8646484   1.791   3.076   5.976  0.0609 -0.3758  1.2242
  210MOL    H8746485   1.829   3.222   6.278 -0.2627 -1.0436  0.3298
  210MOL    H8846486   1.955   3.318   6.195 -2.0985  1.4853 -1.4332
  210MOL    H8946487   1.934   3.147   6.150  0.2624  0.4742 -0.2114
  210MOL    C9046488   1.676   3.212   5.865  0.5732 -0.6073  0.1870
  210MOL    C9146489   1.787   3.269   5.778 -0.2140 -0.2607  0.4441
  210MOL    C9246490   1.901   3.170   5.742  0.1535 -0.4057  0.1129
  210MOL    O9346491   1.891   3.094   5.649  0.8717 -0.4701  0.7338
  210MOL    C9446492   2.027   3.180   5.818  0.0316  0.1745 -0.1705
  210MOL    H9546493   1.609   3.150   5.806 -0.6514  1.6361 -0.8657
  210MOL    H9646494   1.599   3.286   5.888  1.2727  1.1890 -2.8890
  210MOL    H9746495   1.821   3.359   5.829 -0.5010  0.3431 -0.4142
  210MOL    H9846496   2.094   3.106   5.774 -1.0013 -1.8932  1.5994
  210MOL    H9946497   2.072   3.278   5.806  0.0385  0.1445 -0.3918
  210MOL   H10046498   2.019   3.156   5.924  1.6444  0.2965 -0.0127
  210MOL   C10146499   1.721   3.318   5.643  0.1255  0.1514  0.0119
  210MOL   C10246500   1.819   3.384   5.543  0.3935 -0.3511 -0.3667
  210MOL   C10346501   1.873   3.522   5.601 -0.9431  0.8440  0.2479
  210MOL   O10446502   1.988   3.524   5.634  0.2099  0.3388  0.4199
  210MOL   C10546503   1.771   3.635   5.641  0.1554  0.0595  0.1020
  210MOL   H10646504   1.680   3.225   5.603  2.0632 -0.7464  0.0891
  210MOL   H10746505   1.626   3.372   5.652 -0.8574 -1.7321  1.2138
  210MOL   H10846506   1.900   3.320   5.508  0.7161 -0.5930  0.8099
  210MOL   H10946507   1.670   3.594   5.646  0.4515 -0.4879  2.3923
  210MOL   H11046508   1.780   3.679   5.740 -0.6923 -1.1239  0.7323
  210MOL   H11146509   1.779   3.713   5.566  0.4455 -1.5809 -1.5972
  210MOL   C11246510   1.747   3.430   5.416  0.2027  0.6271 -0.7291
  210MOL   C11346511   1.704   3.313   5.326  0.0239  0.6689 -0.0090
  210MOL   C11446512   1.560   3.256   5.345 -0.3434  0.3872 -0.7508
  210MOL   O11546513   1.546   3.136   5.381  0.0489  0.0498  0.0151
  210MOL   C11646514   1.441   3.341   5.327 -0.4137  0.1039 -0.0203
  210MOL   H11746515   1.801   3.503   5.354  1.8604  0.6107  0.6729
  210MOL   H11846516   1.655   3.487   5.432 -0.6930 -0.6956 -1.0752
  210MOL   H11946517   1.706   3.365   5.230 -0.3277  1.3904  0.3645
  210MOL   H12046518   1.441   3.424   5.398 -2.6489 -1.2881  1.6789
  210MOL   H12146519   1.436   3.377   5.225  1.2022  1.6984  0.4421
  210MOL   H12246520   1.351   3.287   5.358 -0.4505 -0.4242 -1.0371
  210MOL   C12346521   1.807   3.195   5.307 -0.4996 -0.0475  0.4146
  210MOL   C12446522   1.942   3.228   5.257 -0.6613  0.0633 -0.1877
  210MOL   C12546523   1.942   3.274   5.101  0.5279 -0.3020 -0.2690
  210MOL   O12646524   1.936   3.191   5.010 -0.0773 -0.1084  0.5288
  210MOL   C12746525   1.946   3.424   5.054 -0.1317  0.2088 -0.6686
  210MOL   H12846526   1.767   3.118   5.241  2.4078  1.2030 -3.0245
  210MOL   H12946527   1.813   3.152   5.406  0.7169 -2.2579 -0.5901
  210MOL   H13046528   1.976   3.310   5.322  0.0319  0.0898 -0.5859
  210MOL   H13146529   1.884   3.485   5.120 -0.4647  0.5999 -1.3413
  210MOL   H13246530   1.915   3.422   4.949  1.5497 -0.1980 -1.1723
  210MOL   H13346531   2.042   3.475   5.059 -0.9578  1.8181 -0.5927
  210MOL   C13446532   2.031   3.094   5.277 -0.3909  1.0197  0.3910
  210MOL   C13546533   2.186   3.115   5.270 -0.4800 -0.5076 -1.4225
  210MOL   C13646534   2.253   3.213   5.366 -0.3419 -0.2855  0.4333
  210MOL   O13746535   2.338   3.298   5.334  0.3164  0.0225  0.3414
  210MOL   C13846536   2.201   3.192   5.513 -0.2422  0.3117 -0.5162
  210MOL   H13946537   2.014   3.033   5.188 -0.3942  1.4599  0.0879
  210MOL   H14046538   2.008   3.038   5.367  3.5290 -0.4338  0.6051
  210MOL   H14146539   2.209   3.152   5.170  0.0122 -2.2680 -1.9710
  210MOL   H14246540   2.257   3.109   5.555 -1.1991 -0.5819 -0.9696
  210MOL   H14346541   2.093   3.175   5.506 -0.1049 -0.8112  0.0772
  210MOL   H14446542   2.210   3.284   5.572 -1.9061  0.9049 -1.1514
  210MOL   C14546543   2.257   2.978   5.285  0.3260 -0.0194 -0.0858
  210MOL   C14646544   2.393   2.966   5.217  0.3167  0.1695  1.1041
  210MOL   C14746545   2.386   2.985   5.069  0.5901 -0.7714 -0.0371
  210MOL   O14846546   2.470   3.054   5.013  0.0459  0.6869 -0.1739
  210MOL   C14946547   2.268   2.929   4.989  0.1865 -0.1877 -0.1138
  210MOL   H15046548   2.199   2.896   5.241  0.7168 -0.0821 -0.4966
  210MOL   H15146549   2.246   2.946   5.388 -0.6260 -2.0558 -0.7802
  210MOL   H15246550   2.411   2.859   5.219  0.3467  0.1002 -1.6863
  210MOL   H15346551   2.242   2.825   5.011  2.1971 -0.6534  0.1689
  210MOL   H15446552   2.188   2.995   5.023  0.4159 -1.3052  2.7759
  210MOL   H15546553   2.275   2.941   4.881  2.2069 -0.3798 -0.0186
  210MOL   C15646554   2.510   3.037   5.295  0.6693 -0.1875  0.4890
  210MOL   C15746555   2.652   2.981   5.262 -0.3200 -0.1639 -0.4038
  210MOL   C15846556   2.660   2.833   5.235 -0.3102  0.2205 -0.3212
  210MOL   O15946557   2.613   2.756   5.321  0.0656 -0.7669  0.1203
  210MOL   C16046558   2.705   2.789   5.099  0.4486  0.1661 -0.0349
  210MOL   H16146559   2.508   3.145   5.280  1.1790 -0.2998 -0.4459
  210MOL   H16246560   2.489   3.016   5.400 -0.3049  0.9629  0.5379
  210MOL   H16346561   2.703   3.035   5.182  0.6325 -2.0324 -1.0992
  210MOL   H16446562   2.779   2.857   5.057 -0.2984  1.5759  0.8932
  210MOL   H16546563   2.622   2.782   5.028 -0.4214  1.5037  0.8145
  210MOL   H16646564   2.766   2.699   5.102 -0.2304 -0.3391 -1.2073
  210MOL   C16746565   2.745   3.011   5.384 -0.3133  0.3893  0.2768
  210MOL   C16846566   2.755   3.161   5.430 -0.2510 -0.1249 -0.2563
  210MOL   C16946567   2.786   3.255   5.314  0.6272  0.3146 -0.7793
  210MOL   O17046568   2.886   3.231   5.244  0.4060  0.0697  0.2600
  210MOL   C17146569   2.692   3.367   5.279 -0.4068 -0.2256 -0.0804
  210MOL   H17246570   2.727   2.948   5.471 -2.5278  2.4636  1.3739
  210MOL   H17346571   2.846   2.976   5.359 -1.4249 -1.9038 -1.1069
  210MOL   H17446572   2.655   3.187   5.464  0.4265  0.9592  0.9587
  210MOL   H17546573   2.717   3.472   5.296  0.9674 -0.7100  1.0252
  210MOL   H17646574   2.602   3.346   5.337  0.1709 -2.4719  0.0368
  210MOL   H17746575   2.676   3.354   5.172  1.4112  1.8657 -0.6528
  210MOL   C17846576   2.855   3.187   5.548 -0.9370 -0.5110 -0.5265
  210MOL   C17946577   2.833   3.324   5.619  0.1145  0.0773  0.5129
  210MOL   C18046578   2.963   3.364   5.681 -0.0801 -0.0614  0.1708
  210MOL   O18146579   3.018   3.286   5.759  0.1482 -0.0087  0.2625
  210MOL   C18246580   3.028   3.490   5.625 -0.6963  0.0226 -0.0775
  210MOL   H18346581   2.824   3.111   5.620 -2.1391  0.3928 -0.0585
  210MOL   H18446582   2.958   3.186   5.514 -0.3803 -4.7665  0.9964
  210MOL   H18546583   2.801   3.391   5.539 -0.3199 -0.5725  0.1330
  210MOL   H18646584   3.002   3.508   5.521  1.2590  0.7593 -0.4530
  210MOL   H18746585   3.133   3.494   5.651 -0.4561  2.8406 -1.2253
  210MOL   H18846586   2.988   3.579   5.675 -0.9874 -0.0362 -0.2012
  210MOL   C18946587   2.716   3.313   5.716 -0.2576 -0.2758 -0.4132
  210MOL   C19046588   2.693   3.437   5.798 -0.1853 -0.2961 -0.2419
  210MOL   C19146589   2.670   3.566   5.710  0.6834  0.2384 -0.3622
  210MOL   O19246590   2.612   3.554   5.602 -0.2769  0.3253  0.4982
  210MOL   C19346591   2.715   3.698   5.764  0.7806 -0.5263  0.1293
  210MOL   H19446592   2.633   3.283   5.651 -0.2589 -0.2866 -0.4058
  210MOL   H19546593   2.731   3.234   5.789  0.4529  1.8403  1.8177
  210MOL   H19646594   2.783   3.460   5.856  0.0023  0.6404 -0.9001
  210MOL   H19746595   2.727   3.767   5.679  0.8353 -0.7655 -0.0582
  210MOL   H19846596   2.639   3.734   5.833  1.4688 -0.2274  0.7366
  210MOL   H19946597   2.814   3.689   5.808  0.7014  0.1179  0.4466
  210MOL   C20046598   2.584   3.409   5.911 -0.3940  0.1141 -0.8569
  210MOL   C20146599   2.553   3.518   6.026 -0.2901  0.6061 -0.0481
  210MOL   C20246600   2.678   3.578   6.087  0.3460  0.1426 -0.2064
  210MOL   O20346601   2.767   3.502   6.119 -0.1223  0.0070  0.1334
  210MOL   C20446602   2.685   3.726   6.111  0.0471  0.7318 -0.3648
  210MOL   H20546603   2.492   3.426   5.855 -1.2222  0.5069  0.5746
  210MOL   H20646604   2.597   3.307   5.949  1.5645 -0.3040 -2.5907
  210MOL   H20746605   2.511   3.600   5.969  0.5463 -0.0516 -1.6651
  210MOL   H20846606   2.745   3.738   6.202 -0.6917 -0.6097  0.3182
  210MOL   H20946607   2.724   3.797   6.038 -0.3490 -0.8819 -2.1814
  210MOL   H21046608   2.581   3.751   6.131 -0.0805 -0.3936  0.3977
  210MOL   C21146609   2.464   3.465   6.132 -0.4640 -0.2538  0.4683
  210MOL   C21246610   2.317   3.449   6.075  0.0602  0.2808 -0.0710
  210MOL   C21346611   2.232   3.579   6.079  0.6741 -1.0647 -0.3557
  210MOL   O21446612   2.259   3.685   6.144  0.0720  0.6515  0.1378
  210MOL   C21546613   2.089   3.571   6.025  0.1914  0.5129  0.2150
  210MOL   H21646614   2.514   3.377   6.174  1.4066 -0.0487 -1.2932
  210MOL   H21746615   2.476   3.526   6.222  2.4082  1.8949 -1.2960
  210MOL   H21846616   2.271   3.359   6.116 -0.0986 -0.2830 -1.4756
  210MOL   H21946617   2.071   3.506   5.939 -0.9490 -2.3805  2.5708
  210MOL   H22046618   2.022   3.549   6.108 -0.6342  0.4258 -0.4668
  210MOL   H22146619   2.055   3.671   5.997  0.3107  0.4948 -0.0015
  210MOL   H22246620   2.325   3.417   5.971 -1.0731  0.5254 -0.2306
  211MOL     C146621   4.805   2.104   5.159 -0.3100 -0.1705  0.1358
  211MOL     C246622   4.806   2.223   5.060 -0.5093 -0.2319 -0.7080
  211MOL     C346623   4.665   2.235   5.004 -0.3167  0.3510 -0.1492
  211MOL     O446624   4.573   2.279   5.077 -0.0552  0.0405 -0.0147
  211MOL     C546625   4.635   2.193   4.864  0.4646  0.3185 -0.1406
  211MOL     H646626   4.734   2.124   5.240  0.7548  2.2216  0.5120
  211MOL     H746627   4.903   2.088   5.203  1.0234  1.4455 -2.1540
  211MOL     H846628   4.876   2.193   4.982  0.7252 -1.0443  0.7024
  211MOL     H946629   4.529   2.204   4.841  0.2682 -1.3253 -0.1435
  211MOL    H1046630   4.685   2.259   4.794  0.6096  1.8474  1.3762
  211MOL    H1146631   4.657   2.086   4.852  1.4397  0.5720 -0.6361
  211MOL    H1246632   4.767   2.014   5.110  0.8152 -1.4308  1.5133
  211MOL    C1346633   4.843   2.348   5.131 -0.0902  0.2640  0.5757
  211MOL    C1446634   5.000   2.363   5.134 -0.4175  0.9591  0.3783
  211MOL    C1546635   5.045   2.414   5.267 -0.1303 -0.0118  0.0865
  211MOL    O1646636   4.987   2.515   5.314  0.0168 -0.7181  0.2146
  211MOL    C1746637   5.160   2.349   5.341 -0.7897 -0.7031  0.2266
  211MOL    H1846638   4.805   2.443   5.092  0.8968  0.6860  0.6175
  211MOL    H1946639   4.816   2.344   5.237  1.7193  0.3220  1.0473
  211MOL    H2046640   5.040   2.262   5.126 -2.2896  0.1177  1.1411
  211MOL    H2146641   5.212   2.275   5.280 -0.4737  1.2347 -1.9359
  211MOL    H2246642   5.230   2.428   5.366 -1.2833 -0.7617  1.8451
  211MOL    H2346643   5.117   2.302   5.429 -2.5903  3.0152  1.4405
  211MOL    C2446644   5.047   2.449   5.014  0.9454  0.6258 -0.6581
  211MOL    C2546645   5.200   2.430   4.990 -0.6419 -0.2284  0.3799
  211MOL    C2646646   5.250   2.288   4.956  0.3413 -1.3094  0.3190
  211MOL    O2746647   5.321   2.235   5.044 -0.3148  0.7737  0.0358
  211MOL    C2846648   5.211   2.210   4.822  0.4461  0.1241  0.8572
  211MOL    H2946649   4.988   2.424   4.926  2.4820 -1.2657 -1.1874
  211MOL    H3046650   5.031   2.555   5.030  2.5273  0.8719 -0.6165
  211MOL    H3146651   5.259   2.456   5.078  1.0704 -0.3632 -0.7097
  211MOL    H3246652   5.119   2.151   4.828  0.1779  0.1185 -2.4273
  211MOL    H3346653   5.184   2.276   4.741 -3.5688 -2.2431  0.1250
  211MOL    H3446654   5.296   2.143   4.804  0.1647 -0.3309  1.1960
  211MOL    C3546655   5.246   2.533   4.885 -0.2067 -0.1981  0.2233
  211MOL    C3646656   5.398   2.576   4.880 -0.3277  0.1189 -0.3401
  211MOL    C3746657   5.481   2.468   4.807 -0.1397  0.2619 -0.1465
  211MOL    O3846658   5.458   2.432   4.696  0.4235 -0.4098 -0.0198
  211MOL    C3946659   5.583   2.407   4.896 -0.0069 -0.5743 -0.5041
  211MOL    H4046660   5.191   2.627   4.890 -2.0552 -1.1940 -0.8113
  211MOL    H4146661   5.223   2.501   4.783 -0.4106 -0.7677  0.4460
  211MOL    H4246662   5.415   2.573   4.988 -0.0036  0.4794 -0.3801
  211MOL    H4346663   5.602   2.470   4.983  2.3122  0.6326 -1.8587
  211MOL    H4446664   5.680   2.400   4.847  0.0024  2.8047 -1.0710
  211MOL    H4546665   5.554   2.306   4.927  0.2189 -0.2171  0.8974
  211MOL    C4646666   5.409   2.724   4.811 -0.3985 -0.2152  0.1717
  211MOL    C4746667   5.504   2.836   4.873 -0.1142  0.2723 -0.1604
  211MOL    C4846668   5.654   2.792   4.851 -0.2701  0.1036  0.1097
  211MOL    O4946669   5.722   2.841   4.759 -0.3398  0.3522  0.0723
  211MOL    C5046670   5.712   2.694   4.957 -0.3125 -0.1035  0.3171
  211MOL    H5146671   5.318   2.772   4.774 -1.3418 -1.0916  1.3151
  211MOL    H5246672   5.448   2.706   4.711 -2.1355  0.7177 -0.6915
  211MOL    H5346673   5.461   2.841   4.973 -2.8808  1.0019 -1.3360
  211MOL    H5446674   5.769   2.616   4.908 -1.6457 -0.7803 -0.1801
  211MOL    H5546675   5.778   2.747   5.026  2.1518 -2.5133 -0.0977
  211MOL    H5646676   5.636   2.657   5.027 -0.1768  0.0736  0.5576
  211MOL    C5746677   5.475   2.978   4.815 -0.7136  0.4527  0.2497
  211MOL    C5846678   5.557   3.090   4.880  0.5834 -0.2536  0.0142
  211MOL    C5946679   5.540   3.215   4.793 -0.3098  0.4497  0.0213
  211MOL    O6046680   5.428   3.251   4.753  0.0156 -0.0026  0.1139
  211MOL    C6146681   5.669   3.287   4.745  0.3520 -0.5080  0.6513
  211MOL    H6246682   5.367   2.994   4.822 -0.5183  2.0527 -0.1754
  211MOL    H6346683   5.492   2.978   4.708  0.8509 -2.4214  0.4425
  211MOL    H6446684   5.664   3.066   4.881  0.8314  0.8448  1.3493
  211MOL    H6546685   5.760   3.229   4.758  1.0376  0.6244  1.0498
  211MOL    H6646686   5.668   3.308   4.638  0.2282 -0.8891  0.5766
  211MOL    H6746687   5.679   3.393   4.771 -1.2146 -0.3319  0.5939
  211MOL    C6846688   5.510   3.109   5.032  0.5412 -0.7845  0.4009
  211MOL    C6946689   5.608   3.189   5.124  0.0342  0.1561  0.0258
  211MOL    C7046690   5.755   3.125   5.131 -0.2624  0.0628 -0.4467
  211MOL    O7146691   5.758   3.005   5.124  0.3149 -1.0800 -0.1346
  211MOL    C7246692   5.876   3.207   5.162  0.2250  0.2144 -0.3152
  211MOL    H7346693   5.412   3.156   5.033  0.1530 -1.5814  3.0420
  211MOL    H7446694   5.492   3.013   5.080 -2.1134 -0.1105  0.8252
  211MOL    H7546695   5.621   3.285   5.074  1.4748 -0.8077 -1.4999
  211MOL    H7646696   5.868   3.247   5.263  0.2694 -2.1584  0.6545
  211MOL    H7746697   5.961   3.140   5.150 -1.4284 -1.6641 -1.7981
  211MOL    H7846698   5.890   3.286   5.089 -0.5728 -0.9104 -1.7021
  211MOL    C7946699   5.550   3.218   5.261 -0.1029  0.7107  0.3254
  211MOL    C8046700   5.489   3.358   5.274 -0.5038 -0.5739 -0.2612
  211MOL    C8146701   5.592   3.466   5.276 -0.0107  0.2295 -0.4059
  211MOL    O8246702   5.698   3.456   5.347  0.6015  0.1700  0.1276
  211MOL    C8346703   5.564   3.596   5.203  0.7328 -0.2083 -0.4446
  211MOL    H8446704   5.631   3.211   5.333 -0.1952  1.1233  0.4716
  211MOL    H8546705   5.484   3.142   5.303 -0.5451  1.3313  0.7611
  211MOL    H8646706   5.434   3.390   5.186 -0.1340  1.3888  0.1896
  211MOL    H8746707   5.541   3.576   5.098  0.4926 -2.0209 -0.0583
  211MOL    H8846708   5.642   3.671   5.210  1.4004 -0.7648 -1.7485
  211MOL    H8946709   5.474   3.636   5.250  1.2398 -0.4213  0.7039
  211MOL    C9046710   5.385   3.356   5.393  0.3419 -0.8172 -0.3086
  211MOL    C9146711   5.292   3.475   5.419 -0.2314  0.2317  0.1856
  211MOL    C9246712   5.168   3.420   5.485  0.3708  0.3691 -0.1056
  211MOL    O9346713   5.138   3.431   5.602 -0.8682 -0.2600  0.4641
  211MOL    C9446714   5.076   3.343   5.393  0.5020 -0.0382 -0.6287
  211MOL    H9546715   5.333   3.260   5.386 -0.0715 -0.7705  2.0077
  211MOL    H9646716   5.451   3.331   5.476 -1.3641 -0.5922  1.1541
  211MOL    H9746717   5.268   3.503   5.317  2.3226  0.7660 -0.3107
  211MOL    H9846718   5.048   3.242   5.423  0.1554 -0.3859 -2.0778
  211MOL    H9946719   4.991   3.409   5.381  1.1170  1.0925  1.0757
  211MOL   H10046720   5.126   3.343   5.296  0.1596  1.3676 -0.8265
  211MOL   C10146721   5.351   3.592   5.502  0.1145 -0.0039 -0.1080
  211MOL   C10246722   5.270   3.721   5.504 -0.3611  0.3872  0.1134
  211MOL   C10346723   5.224   3.774   5.365 -0.2284 -0.1477 -0.3014
  211MOL   O10446724   5.279   3.742   5.256  0.1649 -0.4060  0.0078
  211MOL   C10546725   5.093   3.853   5.359  0.3911  0.7896  0.2187
  211MOL   H10646726   5.367   3.551   5.602 -1.9418 -0.8949 -0.1159
  211MOL   H10746727   5.452   3.614   5.466  1.0941  1.9633  3.6174
  211MOL   H10846728   5.179   3.701   5.561 -1.6291  2.6406 -1.0596
  211MOL   H10946729   5.049   3.876   5.456 -0.0365 -0.5147  0.3351
  211MOL   H11046730   5.122   3.942   5.303  0.0157  0.1299 -1.0284
  211MOL   H11146731   5.019   3.792   5.308 -0.9949  2.7748 -0.2123
  211MOL   C11246732   5.353   3.829   5.581 -0.5400 -0.6726  0.4822
  211MOL   C11346733   5.338   3.823   5.730  0.0152  1.1714 -0.1253
  211MOL   C11446734   5.191   3.829   5.783  0.0411  1.1508 -0.0652
  211MOL   O11546735   5.145   3.931   5.835 -0.1380 -0.5431 -0.2264
  211MOL   C11646736   5.110   3.695   5.808 -0.3555 -0.1850 -0.2110
  211MOL   H11746737   5.324   3.929   5.548 -0.2302 -0.7879 -0.1538
  211MOL   H11846738   5.459   3.825   5.553 -1.4435 -1.9196 -2.9099
  211MOL   H11946739   5.370   3.726   5.769 -0.7853  1.1905  0.5950
  211MOL   H12046740   5.069   3.710   5.908  3.2652 -0.9370  1.4636
  211MOL   H12146741   5.022   3.702   5.745 -0.3977 -1.1087 -0.2649
  211MOL   H12246742   5.151   3.596   5.788 -0.0393  0.2469 -1.8029
  211MOL   C12346743   5.428   3.927   5.802  0.6580 -1.2759  0.0370
  211MOL   C12446744   5.576   3.891   5.804 -0.0377 -0.6567 -0.1997
  211MOL   C12546745   5.626   3.877   5.948  0.1796 -0.4006 -0.3548
  211MOL   O12646746   5.638   3.769   5.999 -0.1096 -0.0468 -0.0439
  211MOL   C12746747   5.672   3.999   6.017  0.1376 -0.1827 -0.3443
  211MOL   H12846748   5.393   3.937   5.905 -0.8340  1.0055 -0.6582
  211MOL   H12946749   5.410   4.027   5.764 -1.1865 -1.8693 -0.7129
  211MOL   H13046750   5.588   3.793   5.759  0.7258  0.0449 -1.5458
  211MOL   H13146751   5.610   4.084   5.989  0.8931  1.0541  1.6269
  211MOL   H13246752   5.777   4.021   5.999  0.9205 -1.9181  1.8351
  211MOL   H13346753   5.653   3.986   6.123  0.8059 -0.8143 -0.2940
  211MOL   C13446754   5.671   3.982   5.719  0.3242  0.6894 -0.3957
  211MOL   C13546755   5.815   3.923   5.710 -0.1086 -0.3679 -0.1153
  211MOL   C13646756   5.825   3.781   5.651  0.0719  0.7593 -0.0398
  211MOL   O13746757   5.878   3.690   5.718 -0.1212  0.3247  0.6072
  211MOL   C13846758   5.753   3.739   5.523  0.2426 -0.0004 -0.4213
  211MOL   H13946759   5.668   4.083   5.759  0.0328  0.6520 -0.3177
  211MOL   H14046760   5.628   3.980   5.619  1.6175  0.8574 -0.9528
  211MOL   H14146761   5.851   3.919   5.813  0.0600 -0.5960 -0.1835
  211MOL   H14246762   5.834   3.686   5.472  0.7625  1.3827 -1.0698
  211MOL   H14346763   5.734   3.831   5.467 -1.6311 -0.6416 -0.8940
  211MOL   H14446764   5.667   3.673   5.526  0.5095 -0.3540 -0.5216
  211MOL   C14546765   5.902   4.025   5.628  0.3670  0.4612  0.0511
  211MOL   C14646766   5.945   4.159   5.706 -0.0748  0.4995 -0.2578
  211MOL   C14746767   6.046   4.131   5.820 -0.0475 -0.0222 -0.1850
  211MOL   O14846768   6.007   4.152   5.934  0.3520  0.1371  0.3549
  211MOL   C14946769   6.195   4.100   5.797  0.8668 -0.2172  0.6842
  211MOL   H15046770   5.853   4.036   5.531  1.2726  0.9754 -0.3567
  211MOL   H15146771   5.996   3.977   5.597  0.4459  0.9155 -0.4090
  211MOL   H15246772   5.856   4.206   5.747 -0.3213  1.4182 -1.8242
  211MOL   H15346773   6.238   4.165   5.721  0.1598 -0.1758  0.3162
  211MOL   H15446774   6.256   4.110   5.887  1.4876  0.0556  0.2383
  211MOL   H15546775   6.195   3.997   5.761  1.3846  0.1063 -0.2462
  211MOL   C15646776   5.994   4.264   5.614  0.2921 -0.1208 -0.2791
  211MOL   C15746777   6.020   4.412   5.663  0.4756  0.1371 -0.5135
  211MOL   C15846778   5.892   4.495   5.664 -0.0850 -0.6110  0.2788
  211MOL   O15946779   5.821   4.502   5.566  0.4298  0.1146 -0.1145
  211MOL   C16046780   5.860   4.574   5.792  0.1254 -0.3560  0.5351
  211MOL   H16146781   6.077   4.234   5.551  0.6136  1.0208 -0.4139
  211MOL   H16246782   5.917   4.273   5.538 -0.5160  0.0816  0.5448
  211MOL   H16346783   6.056   4.397   5.765 -0.6719  0.3002 -0.0861
  211MOL   H16446784   5.833   4.501   5.869 -0.6991 -0.0731  0.5180
  211MOL   H16546785   5.789   4.654   5.773  0.0638 -0.8166 -1.2600
  211MOL   H16646786   5.947   4.630   5.827 -0.9577  1.4698  0.3553
  211MOL   C16746787   6.138   4.476   5.590 -0.0652 -0.3144 -0.0813
  211MOL   C16846788   6.213   4.590   5.659  0.3612  0.7898  0.1510
  211MOL   C16946789   6.279   4.681   5.559 -0.1329 -0.5328  0.1652
  211MOL   O17046790   6.384   4.647   5.507  0.1995 -0.7483  0.2863
  211MOL   C17146791   6.220   4.822   5.527  0.0405  0.0221 -0.7786
  211MOL   H17246792   6.209   4.401   5.555  1.4613  0.5502  1.0751
  211MOL   H17346793   6.097   4.518   5.499 -1.6035  0.9163  1.1676
  211MOL   H17446794   6.136   4.651   5.706 -1.4621 -1.7320  0.4991
  211MOL   H17546795   6.301   4.893   5.508 -0.7229  1.3172  0.6537
  211MOL   H17646796   6.161   4.855   5.613  0.5849 -0.0196 -0.3839
  211MOL   H17746797   6.153   4.828   5.442  1.2926 -0.8602 -1.8409
  211MOL   C17846798   6.300   4.544   5.780  0.3862  0.3374 -0.5954
  211MOL   C17946799   6.371   4.649   5.854  0.0997 -1.0089 -0.3789
  211MOL   C18046800   6.463   4.574   5.947 -0.1916 -0.0638  1.0829
  211MOL   O18146801   6.582   4.564   5.926 -0.0689 -0.4850  0.2145
  211MOL   C18246802   6.401   4.499   6.064 -0.2205  0.2342 -0.4583
  211MOL   H18346803   6.227   4.479   5.830  1.8521 -0.3188  0.7427
  211MOL   H18446804   6.368   4.472   5.734 -1.8661 -1.6804 -0.9093
  211MOL   H18546805   6.434   4.711   5.789  1.5868  0.8562  2.7276
  211MOL   H18646806   6.455   4.529   6.154  2.8376  0.0221 -2.1708
  211MOL   H18746807   6.392   4.393   6.040  1.0869  0.2052 -0.8398
  211MOL   H18846808   6.296   4.524   6.081 -0.1753  0.9993 -1.3096
  211MOL   C18946809   6.278   4.745   5.934  0.0502 -0.2033 -0.1058
  211MOL   C19046810   6.359   4.864   5.989 -0.2758  0.1726  0.2989
  211MOL   C19146811   6.422   4.944   5.873  0.2706 -0.5422  0.3447
  211MOL   O19246812   6.364   4.962   5.766  0.8352 -0.3572 -0.0373
  211MOL   C19346813   6.567   5.000   5.882  0.3663 -0.0047  0.1268
  211MOL   H19446814   6.198   4.788   5.873  0.5424  0.1529 -0.5013
  211MOL   H19546815   6.230   4.694   6.018 -2.3487  2.9362  0.5409
  211MOL   H19646816   6.437   4.830   6.058  0.7516 -0.6419 -1.2420
  211MOL   H19746817   6.638   4.988   5.800 -1.4588  0.6858 -1.5964
  211MOL   H19846818   6.567   5.109   5.894 -0.8972 -0.0196  0.2919
  211MOL   H19946819   6.622   4.964   5.969  1.3489  1.2198  0.0250
  211MOL   C20046820   6.259   4.959   6.066 -0.2799  0.1975 -0.6109
  211MOL   C20146821   6.195   4.899   6.196  1.2304  0.7163 -0.3640
  211MOL   C20246822   6.041   4.918   6.192  0.8286  0.0542 -0.3524
  211MOL   O20346823   5.992   4.980   6.285 -0.4015 -0.8561 -0.6116
  211MOL   C20446824   5.947   4.856   6.075  0.2525  0.1372  0.3807
  211MOL   H20546825   6.294   5.060   6.085 -0.9708  0.4205 -0.4957
  211MOL   H20646826   6.184   5.000   5.998 -0.2238  0.4816 -0.5019
  211MOL   H20746827   6.225   4.795   6.194  1.4370  0.7783 -0.7231
  211MOL   H20846828   5.860   4.921   6.066  0.4294  0.2786 -0.4096
  211MOL   H20946829   6.002   4.854   5.981 -0.1523 -2.8443  0.1769
  211MOL   H21046830   5.911   4.756   6.098 -1.1603  0.5804  0.1470
  211MOL   C21146831   6.268   4.950   6.316 -0.1197 -0.9618 -0.0221
  211MOL   C21246832   6.234   4.894   6.449  0.4078 -0.8778 -0.0285
  211MOL   C21346833   6.286   4.754   6.466 -0.1030 -0.5784  0.1694
  211MOL   O21446834   6.231   4.657   6.413 -0.9600  1.1687  0.1280
  211MOL   C21546835   6.414   4.736   6.544 -0.4120  0.2515 -0.3410
  211MOL   H21646836   6.375   4.959   6.299 -0.2097  0.3628  0.0464
  211MOL   H21746837   6.233   5.053   6.320 -2.2615 -1.6704 -0.0461
  211MOL   H21846838   6.129   4.905   6.475  0.4246 -0.0657 -0.3052
  211MOL   H21946839   6.390   4.720   6.649 -1.8360  1.6978 -0.4174
  211MOL   H22046840   6.464   4.652   6.498 -0.1028 -0.4183  1.1879
  211MOL   H22146841   6.484   4.819   6.551 -0.6104  0.3553  0.4384
  211MOL   H22246842   6.274   4.960   6.526 -2.8533 -0.6703  1.5864
  212MOL     C146843   1.021   5.522   4.812 -0.2910 -0.5130  0.4459
  212MOL     C246844   0.932   5.477   4.936 -0.2338  0.3294  0.6624
  212MOL     C346845   0.866   5.342   4.916  0.0559  0.2087  1.2692
  212MOL     O446846   0.919   5.234   4.959  0.4709  0.4820 -0.0725
  212MOL     C546847   0.742   5.341   4.828 -0.0815 -0.2060 -0.3668
  212MOL     H646848   1.065   5.621   4.830 -0.3892 -0.2073 -0.9470
  212MOL     H746849   0.960   5.526   4.721 -0.9482  2.5642  0.9336
  212MOL     H846850   0.852   5.551   4.919  0.9285  1.3557 -0.4405
  212MOL     H946851   0.765   5.344   4.721 -0.7163 -1.6201 -0.5499
  212MOL    H1046852   0.680   5.255   4.852 -1.2235  1.0664  1.4047
  212MOL    H1146853   0.678   5.429   4.837 -0.5589 -0.5214 -0.6651
  212MOL    H1246854   1.110   5.460   4.805 -0.5915 -1.0409  1.2823
  212MOL    C1346855   0.988   5.492   5.080 -0.3246  0.2539 -0.4926
  212MOL    C1446856   0.898   5.546   5.194  0.0662 -0.6847  0.0710
  212MOL    C1546857   0.859   5.692   5.174 -0.3176 -0.1389 -0.7265
  212MOL    O1646858   0.753   5.722   5.225 -0.1184  0.1367 -0.7900
  212MOL    C1746859   0.962   5.786   5.108  0.2302  0.1494 -0.2125
  212MOL    H1846860   1.023   5.392   5.106  0.1626  0.7241  0.6967
  212MOL    H1946861   1.078   5.553   5.079 -0.0715 -0.1218 -0.7069
  212MOL    H2046862   0.803   5.495   5.183 -0.8489  0.6118  1.8032
  212MOL    H2146863   0.946   5.886   5.148  0.3143 -0.0223  0.2608
  212MOL    H2246864   1.068   5.764   5.114 -0.4091 -3.4058 -0.5561
  212MOL    H2346865   0.926   5.780   5.005  0.7538 -0.8280 -0.3468
  212MOL    C2446866   0.955   5.519   5.329  0.1488  0.2970 -0.4027
  212MOL    C2546867   0.877   5.567   5.453 -0.6127  0.1657  0.3990
  212MOL    C2646868   0.749   5.484   5.480 -0.4646 -0.0143  0.0178
  212MOL    O2746869   0.743   5.362   5.451  0.5475 -0.1657 -0.1264
  212MOL    C2846870   0.641   5.557   5.547 -0.2908 -0.3798  0.3300
  212MOL    H2946871   0.988   5.416   5.343 -1.2249  0.0731  1.3476
  212MOL    H3046872   1.049   5.575   5.326 -1.5934  3.3215 -0.7359
  212MOL    H3146873   0.860   5.671   5.427  1.0384  0.0484 -1.1922
  212MOL    H3246874   0.649   5.652   5.495  1.3935 -1.6815 -1.8664
  212MOL    H3346875   0.539   5.521   5.543  0.7999 -3.5567 -0.8944
  212MOL    H3446876   0.653   5.576   5.654  0.1989 -2.8517  0.7673
  212MOL    C3546877   0.971   5.565   5.582 -0.0394 -0.2498  0.2751
  212MOL    C3646878   0.931   5.672   5.700 -0.3568  0.1318  0.6995
  212MOL    C3746879   1.018   5.646   5.823 -0.1465 -0.6238 -0.0275
  212MOL    O3846880   1.121   5.582   5.820 -0.8309  0.0947  0.5939
  212MOL    C3946881   0.952   5.671   5.962  0.7472 -0.4328  0.1085
  212MOL    H4046882   1.076   5.581   5.555  0.8944 -2.3276  2.4665
  212MOL    H4146883   0.974   5.466   5.627 -0.4607 -1.5544 -2.4905
  212MOL    H4246884   0.832   5.643   5.737 -0.3297  1.6331  2.0025
  212MOL    H4346885   1.029   5.716   6.026  0.0174 -0.1217  0.7726
  212MOL    H4446886   0.922   5.574   5.999  1.5221 -0.1674  1.4789
  212MOL    H4546887   0.865   5.737   5.960  0.2835 -1.0716 -1.6301
  212MOL    C4646888   0.927   5.824   5.653  0.0545 -0.6357  0.0085
  212MOL    C4746889   1.063   5.903   5.626  0.1585 -0.0948 -0.2092
  212MOL    C4846890   1.139   5.871   5.493  0.1892  0.1075 -0.8210
  212MOL    O4946891   1.076   5.854   5.387 -0.1383 -0.9249  0.4127
  212MOL    C5046892   1.287   5.869   5.489  0.1857 -0.6928 -0.1783
  212MOL    H5146893   0.869   5.876   5.730 -0.9405 -0.7712 -0.6499
  212MOL    H5246894   0.854   5.838   5.574 -1.1272  1.2885  1.4155
  212MOL    H5346895   1.132   5.878   5.707  0.4630 -1.2914 -0.8240
  212MOL    H5446896   1.324   5.813   5.404  1.3849  0.5851 -0.5285
  212MOL    H5546897   1.332   5.967   5.507 -1.5988  0.5224 -2.1901
  212MOL    H5646898   1.311   5.822   5.584  1.0052  1.8808  0.9427
  212MOL    C5746899   1.034   6.057   5.643  0.6390  0.6148 -0.8784
  212MOL    C5846900   0.983   6.134   5.516 -0.2257 -0.2885  0.2928
  212MOL    C5946901   0.832   6.102   5.492  0.3105 -0.0824 -0.8156
  212MOL    O6046902   0.759   6.105   5.596 -0.0472  0.1409  0.1845
  212MOL    C6146903   0.776   6.077   5.355  0.1402 -0.2648  0.2891
  212MOL    H6246904   1.118   6.110   5.688 -2.1252  2.0626  2.8629
  212MOL    H6346905   0.961   6.068   5.722 -1.3547 -0.0666 -2.5684
  212MOL    H6446906   1.038   6.107   5.426 -3.4057  0.4309 -1.9338
  212MOL    H6546907   0.670   6.102   5.355  0.7540  2.5622  0.6145
  212MOL    H6646908   0.838   6.149   5.301 -1.7690  1.5457  0.4362
  212MOL    H6746909   0.792   5.976   5.320  1.8391 -0.0788  0.4533
  212MOL    C6846910   1.000   6.290   5.540  0.6999 -0.4411 -0.7894
  212MOL    C6946911   0.962   6.378   5.421 -0.4897  0.1254 -1.0602
  212MOL    C7046912   1.062   6.369   5.303  0.3154 -0.5542  0.4353
  212MOL    O7146913   1.021   6.339   5.185  0.1864  0.3890  0.3627
  212MOL    C7246914   1.213   6.392   5.337 -0.2174 -0.1035 -0.1447
  212MOL    H7346915   0.934   6.316   5.623 -0.6613 -0.2877 -1.8880
  212MOL    H7446916   1.103   6.319   5.562  0.5564  0.3733 -1.1827
  212MOL    H7546917   0.871   6.339   5.375  0.5625 -3.2912 -0.3667
  212MOL    H7646918   1.219   6.456   5.425  3.4827 -0.0185 -0.4048
  212MOL    H7746919   1.269   6.304   5.367  2.1902  1.7324  0.8841
  212MOL    H7846920   1.262   6.436   5.250  1.2507 -0.7325  0.3505
  212MOL    C7946921   0.950   6.534   5.452 -0.5549 -0.5846 -0.1032
  212MOL    C8046922   0.836   6.579   5.548 -0.2223  0.3272  0.0660
  212MOL    C8146923   0.706   6.554   5.479  0.1451  0.3058  0.1475
  212MOL    O8246924   0.672   6.630   5.391 -0.3397  0.2166  0.0368
  212MOL    C8346925   0.619   6.434   5.509  0.3416 -0.3019 -0.3809
  212MOL    H8446926   0.937   6.593   5.362  1.4805  0.4339  0.2391
  212MOL    H8546927   1.047   6.562   5.493  0.2305 -1.1578 -1.5371
  212MOL    H8646928   0.853   6.521   5.639 -0.8243 -0.2557 -0.1870
  212MOL    H8746929   0.660   6.351   5.451  0.9190 -1.4119  1.5813
  212MOL    H8846930   0.515   6.451   5.478 -0.0557 -0.6407  0.7569
  212MOL    H8946931   0.622   6.394   5.610  0.7132 -1.0677 -0.6890
  212MOL    C9046932   0.849   6.728   5.605  0.9144 -0.6860 -0.2723
  212MOL    C9146933   0.767   6.768   5.732  0.0912  0.3230 -0.3512
  212MOL    C9246934   0.794   6.672   5.853 -0.7551 -0.2393  0.0733
  212MOL    O9346935   0.906   6.657   5.897 -0.7109 -0.0444  0.0284
  212MOL    C9446936   0.698   6.566   5.883  0.6554 -0.3529  0.0232
  212MOL    H9546937   0.953   6.741   5.635  0.0204  2.0140  1.8851
  212MOL    H9646938   0.844   6.805   5.528  1.2566 -0.7404 -0.3489
  212MOL    H9746939   0.671   6.730   5.698 -1.5836  2.7091  1.5902
  212MOL    H9846940   0.723   6.478   5.825 -1.5639  1.0916 -3.2984
  212MOL    H9946941   0.696   6.553   5.991 -0.3085  0.4493  0.1125
  212MOL   H10046942   0.601   6.595   5.843  0.1430 -0.5071  1.1334
  212MOL   C10146943   0.766   6.920   5.769 -0.4246 -0.3408 -0.1034
  212MOL   C10246944   0.651   7.011   5.706  0.4788  0.8042  0.1530
  212MOL   C10346945   0.513   6.955   5.739 -0.0126  0.0695 -0.3057
  212MOL   O10446946   0.459   6.870   5.664  0.0299  0.1536 -0.2732
  212MOL   C10546947   0.440   7.010   5.856  0.5507 -0.8333 -0.2832
  212MOL   H10646948   0.754   6.927   5.877 -2.4838  0.8105 -0.3744
  212MOL   H10746949   0.862   6.967   5.747 -1.1369  0.1655 -2.2507
  212MOL   H10846950   0.679   7.101   5.760  4.3378 -0.6576  0.8034
  212MOL   H10946951   0.509   7.007   5.940  0.7453 -1.8383 -0.4718
  212MOL   H11046952   0.411   7.113   5.838 -1.2163 -1.2716 -0.0331
  212MOL   H11146953   0.342   6.970   5.882  0.2729 -0.0073 -0.0427
  212MOL   C11246954   0.680   7.028   5.554 -0.1444  0.1312 -0.4597
  212MOL   C11346955   0.586   7.136   5.493  0.1742 -0.1063  0.2510
  212MOL   C11446956   0.559   7.113   5.345 -0.3743 -0.1321  0.4558
  212MOL   O11546957   0.652   7.071   5.275 -0.5864  0.5007 -0.6386
  212MOL   C11646958   0.417   7.137   5.291  0.0830 -0.6324 -0.4047
  212MOL   H11746959   0.657   6.935   5.503  0.6577 -0.6238  0.5298
  212MOL   H11846960   0.787   7.049   5.548 -0.2623  0.5376 -1.1374
  212MOL   H11946961   0.487   7.116   5.532  0.7739  0.0237  1.8630
  212MOL   H12046962   0.347   7.079   5.351 -2.9698  0.5214 -2.7244
  212MOL   H12146963   0.394   7.244   5.284  2.1401 -0.2328 -1.4241
  212MOL   H12246964   0.406   7.105   5.188 -2.8176 -0.6765 -0.1101
  212MOL   C12346965   0.632   7.281   5.525 -0.0488  0.1794  1.0851
  212MOL   C12446966   0.544   7.404   5.473 -0.0100  0.0662  0.3230
  212MOL   C12546967   0.628   7.527   5.506 -0.4806  0.0840  0.6755
  212MOL   O12646968   0.593   7.602   5.598  0.1222  0.3104 -0.2030
  212MOL   C12746969   0.749   7.561   5.417 -0.4499  0.1911  0.2818
  212MOL   H12846970   0.729   7.292   5.477 -0.5622 -3.1548 -0.8750
  212MOL   H12946971   0.660   7.296   5.629 -0.5590 -0.7888  1.3687
  212MOL   H13046972   0.537   7.401   5.365 -2.3346  1.5519  0.4112
  212MOL   H13146973   0.726   7.614   5.325 -0.9415  0.3750  0.5068
  212MOL   H13246974   0.816   7.477   5.398 -1.9615 -1.2713  1.1661
  212MOL   H13346975   0.827   7.617   5.468  0.7652 -1.2775  0.0847
  212MOL   C13446976   0.403   7.406   5.534 -0.0511 -0.1140  0.4544
  212MOL   C13546977   0.308   7.525   5.499  0.0247 -0.5667  0.7012
  212MOL   C13646978   0.336   7.577   5.355  0.5030  0.0510 -0.2041
  212MOL   O13746979   0.342   7.501   5.257  0.4295  0.1974  0.8076
  212MOL   C13846980   0.388   7.719   5.342  0.1076 -0.6114  0.3510
  212MOL   H13946981   0.416   7.411   5.642  0.1504  0.7470  0.3878
  212MOL   H14046982   0.359   7.307   5.523  1.0707 -0.7992  1.9014
  212MOL   H14146983   0.329   7.610   5.563  0.6019  0.1318 -0.3926
  212MOL   H14246984   0.360   7.778   5.429 -0.7697 -1.3947  0.6137
  212MOL   H14346985   0.343   7.778   5.263 -2.0240 -2.6946 -0.0579
  212MOL   H14446986   0.497   7.713   5.342  0.1627 -0.6546 -2.9824
  212MOL   C14546987   0.166   7.470   5.515 -0.0098 -0.0707  0.3231
  212MOL   C14646988   0.057   7.563   5.478 -0.6302 -0.4070 -0.1441
  212MOL   C14746989   7.785   7.499   5.408 -0.0194 -0.5185 -0.4208
  212MOL   O14846990   7.672   7.508   5.457  1.2338 -0.0677 -0.1220
  212MOL   C14946991   7.815   7.444   5.267 -0.2908  0.0242 -0.0799
  212MOL   H15046992   0.160   7.423   5.613 -0.3356 -1.1311 -0.2006
  212MOL   H15146993   0.154   7.388   5.445  0.4497 -0.6436  0.9118
  212MOL   H15246994   0.088   7.627   5.396 -0.9959 -0.7844 -0.5790
  212MOL   H15346995   7.729   7.457   5.202 -1.9118  0.7206  2.1456
  212MOL   H15446996   0.050   7.481   5.223 -0.4465  2.2437  1.3473
  212MOL   H15546997   7.835   7.338   5.281 -0.2671  0.1468  0.8813
  212MOL   C15646998   0.039   7.661   5.597 -0.1294  0.1040  0.3337
  212MOL   C15746999   7.827   7.597   5.725  0.2717  0.1143  0.3602
  212MOL   C15847000   7.712   7.690   5.773 -0.0136 -0.3576  0.6038
  212MOL   O15947001   7.729   7.812   5.791  0.1873 -0.1804 -0.2682
  212MOL   C16047002   7.592   7.626   5.806 -0.0429 -0.0099  0.2711
  212MOL   H16147003   0.134   7.711   5.616  1.2436 -2.2476 -0.2404
  212MOL   H16247004   7.840   7.746   5.561  0.1845  0.6233  1.0423
  212MOL   H16347005   7.777   7.508   5.688  0.1937  0.4719 -0.4103
  212MOL   H16447006   7.584   7.525   5.765  0.1742  0.6135 -1.3162
  212MOL   H16547007   7.524   7.687   5.747  0.7877  1.3320  0.6871
  212MOL   H16647008   7.573   7.621   5.913  0.5486  3.2677  0.5688
  212MOL   C16747009   0.077   7.565   5.839  0.1758  0.3335  0.6808
  212MOL   C16847010   0.032   7.462   5.942 -0.2809 -1.3403  0.7274
  212MOL   C16947011   0.079   7.512   6.083  0.5735  0.5486 -0.3103
  212MOL   O17047012   0.187   7.479   6.135  0.0907  0.3773 -0.4753
  212MOL   C17147013   0.011   7.626   6.153 -0.4098  0.1906 -0.3217
  212MOL   H17247014   0.171   7.541   5.790  0.0885 -0.6018  0.9721
  212MOL   H17347015   0.097   7.659   5.891  1.1180  0.8484 -0.5917
  212MOL   H17447016   7.782   7.467   5.961  0.1937  0.1765  3.1381
  212MOL   H17547017   0.004   7.627   6.262  0.2830 -2.7276 -0.2134
  212MOL   H17647018   7.765   7.641   6.124 -0.3249  0.9181 -0.2596
  212MOL   H17747019   0.071   7.717   6.144 -0.9849  0.6265  0.2447
  212MOL   C17847020   0.102   7.323   5.917  0.7271 -0.7131 -0.2826
  212MOL   C17947021   0.029   7.249   5.805  0.4996 -0.1897 -0.2775
  212MOL   C18047022   7.749   7.202   5.847 -0.3289 -0.3364  0.1760
  212MOL   O18147023   7.647   7.262   5.807  0.0664  0.2785  0.7285
  212MOL   C18247024   7.750   7.083   5.939  0.0562  0.0993  0.2041
  212MOL   H18347025   0.205   7.349   5.893  1.4888 -1.2860  2.1699
  212MOL   H18447026   0.117   7.248   5.995 -0.4725 -0.7507 -0.0901
  212MOL   H18547027   0.007   7.320   5.725  1.8986  1.4122  0.7268
  212MOL   H18647028   7.682   7.099   6.022 -0.8419 -2.7856  0.0845
  212MOL   H18747029   7.847   7.038   5.961  0.5064 -0.2819 -2.4596
  212MOL   H18847030   7.702   7.004   5.882  0.3127  0.5378 -0.6295
  212MOL   C18947031   0.117   7.130   5.742 -0.3440 -0.4193  0.0962
  212MOL   C19047032   0.044   7.030   5.640 -0.1156  0.3125 -0.2048
  212MOL   C19147033   0.009   7.108   5.509 -0.9583 -0.0956 -0.1385
  212MOL   O19247034   0.095   7.118   5.424 -0.6070 -0.2507 -0.1322
  212MOL   C19347035   7.722   7.153   5.481 -0.4467  0.5692  0.3518
  212MOL   H19447036   0.197   7.171   5.681  0.5771 -0.8974  0.9632
  212MOL   H19547037   0.156   7.063   5.819 -0.4877 -0.8312 -0.1860
  212MOL   H19647038   7.807   6.996   5.683 -1.1550  0.7639 -2.1107
  212MOL   H19747039   7.653   7.098   5.545 -2.0765  0.6694 -1.2869
  212MOL   H19847040   7.715   7.262   5.485 -0.8128  0.5029  1.9787
  212MOL   H19947041   7.682   7.120   5.385 -0.5311  0.8841  0.2795
  212MOL   C20047042   0.133   6.915   5.609  0.0193  0.0095  0.0886
  212MOL   C20147043   0.092   6.817   5.499  0.2482  0.1265  0.0748
  212MOL   C20247044   7.807   6.756   5.518 -0.2228  0.3799  0.2048
  212MOL   O20347045   7.751   6.772   5.625  0.3794  0.0583 -0.5455
  212MOL   C20447046   7.736   6.687   5.412 -0.7584  0.4446  0.1998
  212MOL   H20547047   0.234   6.942   5.580  0.6322 -0.7210  1.5329
  212MOL   H20647048   0.160   6.866   5.702 -0.5233 -0.5593 -0.0449
  212MOL   H20747049   0.073   6.874   5.408  0.3929  1.3423  0.7956
  212MOL   H20847050   7.785   6.687   5.315  1.9986  0.9893  1.5465
  212MOL   H20947051   7.719   6.582   5.437 -0.1464 -0.0114 -1.2716
  212MOL   H21047052   7.636   6.730   5.407 -0.0419  1.9713 -1.6254
  212MOL   C21147053   0.191   6.708   5.479  0.2818 -0.2928  0.1247
  212MOL   C21247054   0.316   6.743   5.399  0.6132 -0.5171  0.0952
  212MOL   C21347055   0.299   6.767   5.250 -0.0907 -0.1324  0.4953
  212MOL   O21447056   0.187   6.767   5.202 -0.4910  0.5059  0.8782
  212MOL   C21547057   0.426   6.793   5.169 -0.0190 -0.4887 -0.4850
  212MOL   H21647058   0.214   6.675   5.580  0.4222  0.4399  0.3316
  212MOL   H21747059   0.146   6.627   5.421 -0.9208  0.3668  0.1069
  212MOL   H21847060   0.386   6.662   5.417  0.0363 -0.8212  1.0076
  212MOL   H21947061   0.436   6.705   5.106  0.7192 -0.6850 -0.1069
  212MOL   H22047062   0.424   6.880   5.105 -1.9178 -1.2486 -1.4983
  212MOL   H22147063   0.511   6.800   5.238  0.1183 -1.6439 -0.5204
  212MOL   H22247064   0.368   6.833   5.433  2.2749 -1.1252 -0.7678
  213MOL     C147065   2.341   4.860   6.492 -0.4612 -0.1195  0.7466
  213MOL     C247066   2.404   4.727   6.543  0.0192 -0.1119  0.7000
  213MOL     C347067   2.394   4.618   6.432 -0.1295 -0.0583 -0.7725
  213MOL     O447068   2.431   4.636   6.316 -0.3510 -0.4664  0.2175
  213MOL     C547069   2.346   4.482   6.482  0.4285 -0.4095 -0.5430
  213MOL     H647070   2.416   4.917   6.436 -0.1414 -0.1039  1.1908
  213MOL     H747071   2.312   4.921   6.578  2.3917  2.0065  0.3025
  213MOL     H847072   2.337   4.684   6.618  0.9604 -3.1065 -0.0938
  213MOL     H947073   2.370   4.398   6.416  1.8814 -1.0925  0.8379
  213MOL    H1047074   2.375   4.453   6.582 -1.0380 -3.1390 -0.8455
  213MOL    H1147075   2.237   4.476   6.493  0.5137  0.9461  1.0463
  213MOL    H1247076   2.253   4.847   6.429  0.9550 -1.3395 -1.0251
  213MOL    C1347077   2.551   4.747   6.587  0.1150 -0.2862 -0.0646
  213MOL    C1447078   2.555   4.789   6.738 -0.3527  0.7547 -0.0508
  213MOL    C1547079   2.542   4.942   6.750 -0.0996  0.9322  0.4811
  213MOL    O1647080   2.617   5.022   6.698 -0.1091 -0.3108 -0.0733
  213MOL    C1747081   2.423   4.985   6.831 -0.4822 -0.6609 -0.5585
  213MOL    H1847082   2.578   4.642   6.573 -1.7926 -0.5657 -1.9588
  213MOL    H1947083   2.615   4.802   6.518  2.4818 -2.3198  0.4591
  213MOL    H2047084   2.476   4.739   6.794  0.9293 -0.2554  0.8979
  213MOL    H2147085   2.463   5.013   6.928 -1.3826  0.4890 -0.5073
  213MOL    H2247086   2.377   5.072   6.785  0.6879 -0.9174 -2.2762
  213MOL    H2347087   2.346   4.908   6.839 -2.7618  1.7066  1.0889
  213MOL    C2447088   2.686   4.743   6.805  0.5089  0.2565 -0.9647
  213MOL    C2547089   2.674   4.629   6.907 -0.3150  0.4585 -0.6315
  213MOL    C2647090   2.608   4.502   6.842 -0.4255 -0.1205 -0.0811
  213MOL    O2747091   2.669   4.440   6.753  0.3157 -0.3582 -0.7936
  213MOL    C2847092   2.470   4.465   6.871  0.1289  0.3234  0.3575
  213MOL    H2947093   2.749   4.705   6.725  1.9123 -0.0185  0.2362
  213MOL    H3047094   2.750   4.821   6.848  0.0406 -0.5192  1.2111
  213MOL    H3147095   2.598   4.656   6.981  1.4171  3.6829  0.0642
  213MOL    H3247096   2.408   4.478   6.782 -0.4474  1.3909  0.9030
  213MOL    H3347097   2.451   4.366   6.912  1.7043 -0.1102  0.0899
  213MOL    H3447098   2.414   4.525   6.942 -0.8582  0.3830 -0.4485
  213MOL    C3547099   2.802   4.588   6.978  0.2617  0.5057 -0.3638
  213MOL    C3647100   2.841   4.691   7.097  0.0249 -0.2167 -0.0055
  213MOL    C3747101   2.728   4.716   7.194 -0.7874  0.2421 -0.0300
  213MOL    O3847102   2.704   4.650   7.297 -0.3536  0.1982 -0.0443
  213MOL    C3947103   2.657   4.847   7.169 -0.0254  0.3017  0.0081
  213MOL    H4047104   2.881   4.593   6.904 -0.2100 -0.5656 -0.9506
  213MOL    H4147105   2.800   4.483   7.008 -1.9706  1.0757  1.6715
  213MOL    H4247106   2.865   4.788   7.052 -0.0410 -0.8130 -1.3292
  213MOL    H4347107   2.559   4.849   7.216  0.5711 -1.9888  1.4488
  213MOL    H4447108   2.654   4.858   7.061 -1.2811 -1.9889 -0.2266
  213MOL    H4547109   2.713   4.932   7.208 -0.6107  0.9601 -0.5873
  213MOL    C4647110   2.966   4.634   7.166 -0.1143 -0.0080  0.4255
  213MOL    C4747111   3.031   4.720   7.280  0.8097 -0.1899 -0.2700
  213MOL    C4847112   3.110   4.623   7.373  0.6835  0.1982 -0.3397
  213MOL    O4947113   3.234   4.612   7.371  0.0645 -0.3407 -0.0299
  213MOL    C5047114   3.030   4.552   7.476  0.2031 -0.2244 -0.3772
  213MOL    H5147115   3.043   4.621   7.089 -0.1586  1.6211  0.0898
  213MOL    H5247116   2.939   4.536   7.204  0.0465 -0.5876 -0.9402
  213MOL    H5347117   2.955   4.756   7.349  1.1985  0.2881 -0.0913
  213MOL    H5447118   3.006   4.609   7.566  0.4999  1.4775 -1.3503
  213MOL    H5547119   2.933   4.521   7.438  0.2567 -2.3954  1.1953
  213MOL    H5647120   3.080   4.460   7.506  1.7106  0.0598 -1.9283
  213MOL    C5747121   3.109   4.846   7.227  0.0687 -0.6185 -0.2405
  213MOL    C5847122   3.077   4.979   7.307 -0.1738 -0.3051 -0.0415
  213MOL    C5947123   3.123   4.975   7.458  0.2290  0.4229 -0.1743
  213MOL    O6047124   3.035   4.965   7.541 -0.2735 -0.1691 -0.2194
  213MOL    C6147125   3.262   4.988   7.487 -1.1040 -1.4415 -0.3814
  213MOL    H6247126   3.080   4.863   7.123 -0.3383  0.3646  0.0359
  213MOL    H6347127   3.216   4.824   7.228  0.3121  0.5170  1.6006
  213MOL    H6447128   2.968   4.988   7.303 -0.2818 -0.8568  1.2843
  213MOL    H6547129   3.308   5.051   7.411 -0.3774 -0.1680  1.0887
  213MOL    H6647130   3.280   5.034   7.584 -1.8698  0.6468 -1.2140
  213MOL    H6747131   3.314   4.892   7.480  2.3888  0.5238 -2.2937
  213MOL    C6847132   3.108   5.108   7.227  0.2606  0.4611 -0.2717
  213MOL    C6947133   3.061   5.240   7.293 -0.1421  0.3518  0.0963
  213MOL    C7047134   2.914   5.228   7.346  0.0675 -0.1272  0.2267
  213MOL    O7147135   2.821   5.200   7.270 -0.2199 -0.6599  0.1029
  213MOL    C7247136   2.888   5.278   7.480 -0.2391  0.3004 -0.2813
  213MOL    H7347137   3.214   5.099   7.202 -0.1914  1.7212 -2.8188
  213MOL    H7447138   3.057   5.093   7.132  1.2585 -2.4154 -0.4131
  213MOL    H7547139   3.137   5.258   7.370  1.2229 -2.1205 -0.6400
  213MOL    H7647140   2.984   5.289   7.530 -1.1924  0.4580  1.5838
  213MOL    H7747141   2.844   5.377   7.464 -0.8353 -0.0076 -0.5860
  213MOL    H7847142   2.822   5.207   7.531 -0.5530  0.1216 -0.9259
  213MOL    C7947143   3.073   5.345   7.184  0.7311 -0.2936 -0.0291
  213MOL    C8047144   3.074   5.488   7.237  0.8246  1.2174  0.3348
  213MOL    C8147145   3.036   5.580   7.126  0.0771 -0.3404  0.2595
  213MOL    O8247146   3.031   5.547   7.010  0.2171  0.2787  1.1219
  213MOL    C8347147   2.974   5.711   7.168 -0.5142  0.0045  0.1197
  213MOL    H8447148   2.995   5.336   7.109  0.5451  0.5294  0.0612
  213MOL    H8547149   3.167   5.331   7.130  0.0294 -0.2933 -1.2522
  213MOL    H8647150   2.989   5.501   7.304  0.6468  0.8023  0.1904
  213MOL    H8747151   3.049   5.790   7.178 -0.5511  0.0506  0.0410
  213MOL    H8847152   2.903   5.698   7.249  1.1111 -0.7887  1.4356
  213MOL    H8947153   2.928   5.762   7.083  2.6795 -0.4670 -1.9878
  213MOL    C9047154   3.212   5.527   7.290  0.6663 -0.4772  0.1390
  213MOL    C9147155   3.237   5.665   7.358  0.2460  0.3246  0.8847
  213MOL    C9247156   3.122   5.685   7.469  0.3752 -0.1348 -0.4247
  213MOL    O9347157   3.125   5.613   7.567 -0.2628 -0.4518 -0.1744
  213MOL    C9447158   3.024   5.802   7.457  0.3425 -0.4888 -0.2902
  213MOL    H9547159   3.251   5.452   7.359 -2.2906 -1.6874  0.5455
  213MOL    H9647160   3.281   5.527   7.205  0.3311 -2.8943 -0.1693
  213MOL    H9747161   3.225   5.747   7.287 -2.7105  0.4453  1.4387
  213MOL    H9847162   3.018   5.843   7.558 -0.9489  0.5568 -0.7634
  213MOL    H9947163   3.065   5.870   7.383 -0.3174 -0.0511 -0.2627
  213MOL   H10047164   2.929   5.760   7.425  0.1663 -0.2680 -0.0685
  213MOL   C10147165   3.379   5.665   7.422 -0.1827  1.0780  0.7208
  213MOL   C10247166   3.436   5.784   7.509 -0.2042  0.1037  0.1964
  213MOL   C10347167   3.472   5.912   7.440  0.0844  0.2740 -0.2644
  213MOL   O10447168   3.585   5.952   7.439  0.1189 -0.0059  0.5627
  213MOL   C10547169   3.362   5.993   7.375 -0.1790 -0.1074 -0.4976
  213MOL   H10647170   3.390   5.574   7.480 -3.4160  0.8341  1.0496
  213MOL   H10747171   3.442   5.640   7.336 -1.0738 -0.9872  0.6369
  213MOL   H10847172   3.354   5.820   7.570 -0.1003 -0.9796  0.9776
  213MOL   H10947173   3.320   6.072   7.437  0.3359  0.2484 -0.6030
  213MOL   H11047174   3.408   6.048   7.293  0.2408 -0.3641 -0.4344
  213MOL   H11147175   3.272   5.939   7.343 -0.1980  0.0971 -0.7914
  213MOL   C11247176   3.547   5.737   7.607 -0.2929 -0.0667  0.8414
  213MOL   C11347177   3.528   5.781   7.751 -0.6786  0.4126 -1.3673
  213MOL   C11447178   3.654   5.749   7.824  0.2845 -0.2902 -0.0781
  213MOL   O11547179   3.702   5.639   7.803 -0.2169  0.3926 -0.1339
  213MOL   C11647180   3.712   5.843   0.060 -0.6356  0.6362  0.1213
  213MOL   H11747181   3.645   5.771   7.572  0.5310 -3.2693 -0.1527
  213MOL   H11847182   3.558   5.629   7.615 -1.0034 -0.2293 -0.2031
  213MOL   H11947183   3.510   5.888   7.751 -0.9485  0.3758  0.1279
  213MOL   H12047184   3.628   5.875   0.121  0.2402  2.0292  0.6127
  213MOL   H12147185   3.784   5.791   0.123 -1.2520 -3.1462 -2.1529
  213MOL   H12247186   3.755   5.933   0.016  1.1134 -0.0382  0.4379
  213MOL   C12347187   3.404   5.712   7.816  0.9578 -0.1300  0.4361
  213MOL   C12447188   3.330   5.813   0.053 -0.1007 -0.1147  0.8867
  213MOL   C12547189   3.222   5.745   0.138  0.0463  0.0826 -0.1071
  213MOL   O12647190   3.219   5.763   0.258  0.0820  0.4320 -0.6062
  213MOL   C12747191   3.132   5.646   0.066  0.3684  0.8216  0.1443
  213MOL   H12847192   3.436   5.623   0.012  0.6386 -1.5400 -1.6334
  213MOL   H12947193   3.339   5.674   7.736 -0.6058 -3.6776  3.2689
  213MOL   H13047194   3.410   5.863   0.109  1.1398 -1.1103  0.0378
  213MOL   H13147195   3.027   5.664   0.090 -0.2524 -1.1253 -0.8970
  213MOL   H13247196   3.146   5.544   0.102  1.0197  0.9303  0.1904
  213MOL   H13347197   3.149   5.659   7.816  1.2244  0.8854  0.2880
  213MOL   C13447198   3.265   5.940   7.838  0.0857  0.0962  0.2987
  213MOL   C13547199   3.210   6.054   0.060 -0.2161  0.7546  0.1983
  213MOL   C13647200   3.309   6.119   0.154 -0.2485  0.0421  0.7739
  213MOL   O13747201   3.399   6.190   0.107 -0.1285 -0.1524  0.0056
  213MOL   C13847202   3.292   6.108   0.302 -0.2452  1.0098  0.2378
  213MOL   H13947203   3.197   5.898   7.764  1.4607  0.0608 -0.9538
  213MOL   H14047204   3.336   5.983   7.768 -2.4210  2.7043 -0.7356
  213MOL   H14147205   3.130   6.022   0.127 -1.5893 -2.9030 -3.0193
  213MOL   H14247206   3.388   6.113   0.354 -0.2994  2.8116  0.2007
  213MOL   H14347207   3.241   6.022   0.345 -1.1647  1.1296 -0.5952
  213MOL   H14447208   3.234   6.197   0.328 -0.9734  0.8365 -0.7512
  213MOL   C14547209   3.132   6.148   7.813 -0.2703  0.5804 -0.7027
  213MOL   C14647210   3.067   6.275   0.017  0.1162  0.7958  0.0028
  213MOL   C14747211   3.003   6.359   7.755  0.0755  0.0868 -0.6730
  213MOL   O14847212   2.886   6.366   7.747 -0.2782  0.1077 -0.3179
  213MOL   C14947213   3.095   6.439   7.666 -0.2209 -0.3073  0.0489
  213MOL   H15047214   3.058   6.097   7.752 -2.1951 -0.8613  2.6687
  213MOL   H15147215   3.204   6.175   7.736  1.2008 -0.6387  0.2229
  213MOL   H15247216   3.144   6.340   0.059 -1.5870  1.2608  2.5126
  213MOL   H15347217   3.123   6.535   7.710 -1.6933 -0.4786  1.4317
  213MOL   H15447218   3.178   6.374   7.639 -0.1731 -0.2366  0.0254
  213MOL   H15547219   3.045   6.471   7.574  0.5120  0.2000 -0.1798
  213MOL   C15647220   2.962   6.228   0.123  0.5373 -0.5382 -0.1645
  213MOL   C15747221   2.891   6.336   0.199 -0.4735 -0.4635 -0.6906
  213MOL   C15847222   2.972   6.434   0.292 -0.3988  0.0162  0.5428
  213MOL   O15947223   3.074   6.389   0.346 -0.2109 -0.0852  0.0431
  213MOL   C16047224   2.921   6.574   0.317 -0.5144  0.0182 -0.8534
  213MOL   H16147225   2.899   6.153   0.073  2.5748 -2.3142 -0.1508
  213MOL   H16247226   3.022   6.176   0.198  3.9663  0.8252 -1.8540
  213MOL   H16347227   2.857   6.411   0.127 -0.4040  0.6347  0.4221
  213MOL   H16447228   2.813   6.586   0.302 -0.5999  0.5480  0.1236
  213MOL   H16547229   2.969   6.645   0.249  0.9018 -0.3479 -0.2410
  213MOL   H16647230   2.951   6.616   0.413  3.3814  0.5872 -2.2268
  213MOL   C16747231   2.770   6.267   0.275  0.0739 -0.3657  0.6452
  213MOL   C16847232   2.789   6.241   0.426 -0.0186 -0.2702  0.0160
  213MOL   C16947233   2.904   6.133   0.452  0.0265 -0.3675 -0.6888
  213MOL   O17047234   2.899   6.023   0.403 -0.1816 -0.1134 -0.2432
  213MOL   C17147235   3.014   6.165   0.564  0.1822  0.6264  0.1136
  213MOL   H17247236   2.684   6.331   0.260 -0.5410 -1.7996 -2.3930
  213MOL   H17347237   2.745   6.176   0.219 -1.7856  1.4490 -1.5826
  213MOL   H17447238   2.820   6.337   0.468 -0.8755 -0.9508  2.2318
  213MOL   H17547239   2.990   6.234   0.645  0.2089  0.8186 -0.0431
  213MOL   H17647240   3.096   6.216   0.515  1.2293 -1.6703 -0.5988
  213MOL   H17747241   3.044   6.075   0.618  1.8667  1.1522  0.0748
  213MOL   C17847242   2.665   6.188   0.493  0.1101 -0.1437 -0.4396
  213MOL   C17947243   2.537   6.277   0.473  0.0436 -0.0379 -0.5381
  213MOL   C18047244   2.533   6.393   0.570  0.5058 -0.1569  0.2293
  213MOL   O18147245   2.500   6.380   0.689  0.4555 -0.1884 -0.3960
  213MOL   C18247246   2.576   6.530   0.523 -1.0273 -0.0269 -0.7486
  213MOL   H18347247   2.636   6.089   0.456 -0.3348  0.6229 -2.2084
  213MOL   H18447248   2.673   6.180   0.601  2.0953  0.9223 -0.4973
  213MOL   H18547249   2.538   6.336   0.381 -1.9885  2.5170  1.0043
  213MOL   H18647250   2.599   6.606   0.598  2.9272 -0.4628 -1.4454
  213MOL   H18747251   2.505   6.574   0.452  0.8587  0.0173 -2.6342
  213MOL   H18847252   2.665   6.529   0.461 -1.3377  0.6055 -1.2117
  213MOL   C18947253   2.406   6.197   0.478 -0.4750  0.9538  0.0599
  213MOL   C19047254   2.280   6.267   0.414 -0.9843 -0.1306 -0.8340
  213MOL   C19147255   2.307   6.296   0.266  0.4282 -1.1943 -0.0517
  213MOL   O19247256   2.331   6.417   0.229 -0.0193  0.2668 -0.4293
  213MOL   C19347257   2.308   6.183   0.159 -0.5759 -0.3236  0.7185
  213MOL   H19447258   2.414   6.096   0.439 -0.3197 -0.1057  2.7657
  213MOL   H19547259   2.382   6.163   0.579  1.4029 -0.5043  0.0263
  213MOL   H19647260   2.275   6.364   0.464  0.3364  0.9488 -2.7552
  213MOL   H19747261   2.383   6.116   0.202 -1.6656 -0.2693  2.7889
  213MOL   H19847262   2.213   6.131   0.156  0.4256 -2.1174 -1.1468
  213MOL   H19947263   2.338   6.223   0.063  0.6627  1.1176  1.6747
  213MOL   C20047264   2.146   6.196   0.432 -0.1287  0.2873  0.8011
  213MOL   C20147265   2.026   6.277   0.372 -0.0927 -0.1313  0.1591
  213MOL   C20247266   1.995   6.407   0.453  0.1626 -0.4929 -0.4113
  213MOL   O20347267   2.047   6.433   0.557  0.0724  0.5003  0.4277
  213MOL   C20447268   1.903   6.516   0.378  0.3861  0.2325  0.1823
  213MOL   H20547269   2.155   6.105   0.373  0.9974  1.9036 -1.6031
  213MOL   H20647270   2.118   6.160   0.531 -1.2508  0.4004  0.5259
  213MOL   H20747271   2.060   6.309   0.274  1.1035  0.0013  0.6154
  213MOL   H20847272   1.821   6.458   0.335 -1.5540  2.4777  0.7000
  213MOL   H20947273   1.857   6.596   0.436 -1.1516 -0.2652 -0.3075
  213MOL   H21047274   1.961   6.553   0.293 -2.0432 -1.5354 -2.3418
  213MOL   C21147275   1.900   6.184   0.368 -0.1424  0.3094 -0.2383
  213MOL   C21247276   1.900   6.048   0.305  0.0560  0.1037 -0.3200
  213MOL   C21347277   1.940   6.054   0.155  0.4031  0.1474 -0.1599
  213MOL   O21447278   1.927   6.158   0.093  0.1882 -0.0989  0.2279
  213MOL   C21547279   2.012   5.930   0.095 -1.1371 -0.0930 -0.3406
  213MOL   H21647280   1.864   6.170   0.470  0.7292  1.2400  0.2001
  213MOL   H21747281   1.813   6.233   0.325 -0.0419  1.6604  1.0784
  213MOL   H21847282   1.795   6.018   0.312 -0.9611  3.3119 -0.9233
  213MOL   H21947283   2.078   5.971   0.018  0.7137 -0.0730  1.2278
  213MOL   H22047284   2.074   5.883   0.171 -1.8692 -2.4820 -1.1818
  213MOL   H22147285   1.937   5.861   0.058 -1.7396  0.0542  0.5742
  213MOL   H22247286   1.954   5.972   0.361  1.3345  0.1121 -1.5013
  214MOL     C147287   5.760   2.581   1.010 -0.1895 -0.8128 -0.2014
  214MOL     C247288   5.809   2.706   1.088 -0.0831 -0.3025  0.3078
  214MOL     C347289   5.710   2.747   1.200 -1.0830 -0.1531  0.0908
  214MOL     O447290   5.714   2.704   1.312  0.5897  0.0544  0.1983
  214MOL     C547291   5.617   2.863   1.168 -0.0114 -0.4394  0.7804
  214MOL     H647292   5.680   2.608   0.941 -0.3426 -2.4503 -0.6870
  214MOL     H747293   5.727   2.509   1.085  2.1238  0.4983  2.1785
  214MOL     H847294   5.823   2.791   1.021 -0.3081 -0.3172  0.2453
  214MOL     H947295   5.553   2.838   1.083  0.3917 -1.7520  0.8452
  214MOL    H1047296   5.554   2.874   1.255  1.1544  1.8986  1.3647
  214MOL    H1147297   5.677   2.952   1.149  0.7234 -0.8094  1.3406
  214MOL    H1247298   5.848   2.544   0.957  1.6196 -0.8295  2.6657
  214MOL    C1347299   5.957   2.681   1.137  0.0240  0.3375  0.3229
  214MOL    C1447300   6.008   2.787   1.239  0.3264  0.8601  0.4955
  214MOL    C1547301   6.008   2.923   1.175 -0.1815  0.0050 -0.0218
  214MOL    O1647302   6.056   2.932   1.058  0.2764 -0.0676 -0.4381
  214MOL    C1747303   5.966   3.044   1.260 -0.3508  0.7908 -0.0992
  214MOL    H1847304   5.961   2.588   1.194 -1.1096 -0.1551 -0.3957
  214MOL    H1947305   6.026   2.676   1.053 -0.6936 -1.6717 -0.1591
  214MOL    H2047306   5.944   2.789   1.326 -3.4363  1.2740 -2.1584
  214MOL    H2147307   5.879   3.090   1.215  1.0722  0.4531 -3.3090
  214MOL    H2247308   5.952   3.026   1.367 -0.9330 -1.5789 -0.5602
  214MOL    H2347309   6.056   3.105   1.251  0.3716 -0.4154 -1.2637
  214MOL    C2447310   6.149   2.746   1.279  0.1513  0.0310  1.0054
  214MOL    C2547311   6.188   2.721   1.425 -0.3996 -0.3245 -0.0874
  214MOL    C2647312   6.105   2.603   1.482 -0.0913 -0.5932  0.9394
  214MOL    O2747313   6.161   2.493   1.488  0.4102 -0.7266  0.2835
  214MOL    C2847314   5.965   2.634   1.530  0.0940 -0.6579 -0.3761
  214MOL    H2947315   6.177   2.654   1.230 -1.0487 -0.5032  1.3135
  214MOL    H3047316   6.224   2.812   1.233 -0.4399 -1.2719 -1.9140
  214MOL    H3147317   6.155   2.811   1.477 -2.1063 -0.5615 -0.7236
  214MOL    H3247318   5.944   2.606   1.633 -0.8384 -0.0908 -0.4007
  214MOL    H3347319   5.954   2.741   1.548  1.1719 -0.8258  1.4120
  214MOL    H3447320   5.890   2.616   1.452  0.9964 -0.2618 -1.3434
  214MOL    C3547321   6.343   2.709   1.451  0.1334 -0.0067  0.2431
  214MOL    C3647322   6.384   2.719   1.594  0.7368 -0.2783 -0.1858
  214MOL    C3747323   6.524   2.644   1.615 -1.3298 -0.2750  0.1540
  214MOL    O3847324   6.630   2.694   1.577  0.4349 -0.2306 -0.2623
  214MOL    C3947325   6.523   2.517   1.696  0.0714  0.3167  0.1028
  214MOL    H4047326   6.403   2.782   1.395 -0.6288 -1.2329 -2.2621
  214MOL    H4147327   6.377   2.615   1.407  0.8092  1.2576 -2.0655
  214MOL    H4247328   6.309   2.676   1.660  0.8055  1.1616  0.8574
  214MOL    H4347329   6.439   2.451   1.679 -0.6389  1.3269 -0.3153
  214MOL    H4447330   6.533   2.543   1.802 -0.3643 -1.3640  0.5675
  214MOL    H4547331   6.612   2.456   1.678  0.5555  1.3416 -1.0356
  214MOL    C4647332   6.387   2.870   1.642  0.7773  0.0455  0.0265
  214MOL    C4747333   6.307   2.921   1.765  0.5507  1.0636 -0.4075
  214MOL    C4847334   6.333   2.844   1.889  0.4664  0.6914 -0.6008
  214MOL    O4947335   6.410   2.747   1.888 -0.0128 -0.1114  0.3458
  214MOL    C5047336   6.264   2.884   2.023  0.1488 -0.6772  0.6360
  214MOL    H5147337   6.348   2.927   1.557 -1.4754 -1.0078  0.3122
  214MOL    H5247338   6.490   2.904   1.649  0.7788  0.2990 -1.0516
  214MOL    H5347339   6.206   2.891   1.736  0.7856 -0.6629  0.4601
  214MOL    H5447340   6.312   2.980   2.041 -1.6203 -0.0296  2.1450
  214MOL    H5547341   6.158   2.912   2.019  0.8894  2.2746  0.4084
  214MOL    H5647342   6.295   2.810   2.096  1.0826 -1.6047 -0.6735
  214MOL    C5747343   6.312   3.075   1.771  0.4618  0.2343 -0.4075
  214MOL    C5847344   6.448   3.139   1.814  0.2115  0.1626 -0.3529
  214MOL    C5947345   6.558   3.155   1.710  0.5263 -0.0511  0.2969
  214MOL    O6047346   6.541   3.224   1.611 -0.0901 -0.0078 -0.1734
  214MOL    C6147347   6.691   3.085   1.743  0.4011 -0.6537  0.0105
  214MOL    H6247348   6.225   3.091   1.835 -0.1889  2.2201 -1.7639
  214MOL    H6347349   6.288   3.110   1.671  2.1715  2.5150 -0.0659
  214MOL    H6447350   6.486   3.076   1.895 -1.9411 -1.5520 -0.6552
  214MOL    H6547351   6.688   3.043   1.844 -0.1893 -0.2799  0.1501
  214MOL    H6647352   6.716   3.006   1.672 -0.3799 -0.2748 -0.6956
  214MOL    H6747353   6.776   3.153   1.751  0.5923 -0.9271  0.3465
  214MOL    C6847354   6.441   3.261   1.910 -0.2608 -0.0506  0.1858
  214MOL    C6947355   6.569   3.304   1.990 -0.0623  0.3882 -0.2990
  214MOL    C7047356   6.605   3.212   2.106  0.2062 -0.2299  0.2754
  214MOL    O7147357   6.523   3.193   2.196 -0.1375 -0.1831  0.1159
  214MOL    C7247358   6.744   3.157   2.111  0.3359 -0.1315  0.6505
  214MOL    H7347359   6.420   3.339   1.836 -1.2863  1.4285  2.0044
  214MOL    H7447360   6.352   3.251   1.971  0.0034  0.0843  0.5913
  214MOL    H7547361   6.647   3.296   1.914 -1.0370 -0.5198 -1.2357
  214MOL    H7647362   6.810   3.242   2.127  0.6770 -0.0038 -1.3130
  214MOL    H7747363   6.751   3.091   2.197  3.2520 -2.2769 -1.1379
  214MOL    H7847364   6.773   3.107   2.019  0.4841 -0.3513  0.8178
  214MOL    C7947365   6.562   3.453   2.047 -0.0885  0.2262 -0.5087
  214MOL    C8047366   6.694   3.524   2.065 -0.5629 -0.3316  0.5988
  214MOL    C8147367   6.673   3.649   2.156 -0.5433 -0.1494 -0.6055
  214MOL    O8247368   6.642   3.754   2.102  0.4080 -0.1139  0.0680
  214MOL    C8347369   6.721   3.634   2.304  0.2586  0.2317  0.4516
  214MOL    H8447370   6.509   3.453   2.142 -1.3589  0.0227 -1.1988
  214MOL    H8547371   6.483   3.504   1.992 -0.0229 -0.1382 -0.9382
  214MOL    H8647372   6.763   3.457   2.117 -0.0911  0.8160  1.4881
  214MOL    H8747373   6.783   3.545   2.311 -0.3543 -0.3183 -0.8590
  214MOL    H8847374   6.640   3.624   2.377 -0.6711 -0.1395 -0.6130
  214MOL    H8947375   6.781   3.716   2.344 -0.9946  1.3673  0.0630
  214MOL    C9047376   6.752   3.570   1.924 -0.0129  0.2598 -0.1588
  214MOL    C9147377   6.891   3.630   1.917  0.2645 -0.0726 -0.1634
  214MOL    C9247378   6.997   3.522   1.944 -0.3441  0.7662 -0.5236
  214MOL    O9347379   6.959   3.405   1.974 -0.0558  0.2226  0.2651
  214MOL    C9447380   7.143   3.555   1.949 -0.4091  0.0664  0.2899
  214MOL    H9547381   6.747   3.484   1.858 -0.1114  1.4143 -1.6709
  214MOL    H9647382   6.680   3.642   1.885 -2.0677 -1.5851  0.1181
  214MOL    H9747383   6.901   3.706   1.994  3.0680  0.5501 -1.0797
  214MOL    H9847384   7.167   3.656   1.985 -1.5291  0.3907  0.1598
  214MOL    H9947385   7.196   3.492   2.020 -0.4757 -2.5969 -1.9469
  214MOL   H10047386   7.186   3.551   1.849 -0.7578  1.3270  0.0783
  214MOL   C10147387   6.916   3.700   1.782 -0.0531  0.1660  0.5344
  214MOL   C10247388   6.809   3.786   1.711 -0.1550  0.3769 -0.0710
  214MOL   C10347389   6.841   3.827   1.568 -0.0837 -0.0845 -0.4097
  214MOL   O10447390   6.850   3.945   1.533  0.1135  0.0528 -0.2432
  214MOL   C10547391   6.868   3.722   1.467 -0.0373 -0.2067  0.1803
  214MOL   H10647392   7.014   3.745   1.770 -0.0303 -0.1091 -0.4170
  214MOL   H10747393   6.931   3.619   1.710 -2.3827  0.5916 -0.4878
  214MOL   H10847394   6.718   3.728   1.697 -0.9811  1.8474 -0.8855
  214MOL   H10947395   6.783   3.732   1.399  1.6479  2.4592 -1.6023
  214MOL   H11047396   6.957   3.737   1.407 -1.0455  1.6896 -0.8688
  214MOL   H11147397   6.850   3.624   1.512  1.5752  0.5781  2.6252
  214MOL   C11247398   6.762   3.901   1.802  0.6261  0.3685 -0.6039
  214MOL   C11347399   6.628   3.992   1.760 -0.3150 -0.0948  0.2193
  214MOL   C11447400   6.647   4.143   1.786  0.9379 -0.1465  1.1319
  214MOL   O11547401   6.555   4.211   1.842  0.2663  0.6752  0.5252
  214MOL   C11647402   6.763   4.209   1.717 -0.5176  0.2131  0.5205
  214MOL   H11747403   6.843   3.972   1.812 -2.4950  3.9673  0.2984
  214MOL   H11847404   6.748   3.857   1.901 -1.3917 -1.8978 -1.8331
  214MOL   H11947405   6.630   3.989   1.651  1.5811  0.9693  0.1872
  214MOL   H12047406   6.765   4.318   1.724  0.1198  0.4522 -2.7519
  214MOL   H12147407   6.855   4.170   1.761 -0.2649  0.2028 -0.0103
  214MOL   H12247408   6.765   4.185   1.611  1.4273  2.4860  0.0006
  214MOL   C12347409   6.496   3.923   1.816  0.0948  0.2077  0.4022
  214MOL   C12447410   6.439   3.818   1.724 -0.0401  0.6736  0.0678
  214MOL   C12547411   6.396   3.870   1.585  0.4851  0.2621  0.4459
  214MOL   O12647412   6.348   3.978   1.561  0.1691 -0.6125 -0.0036
  214MOL   C12747413   6.432   3.775   1.470  0.2272  0.9455 -0.8794
  214MOL   H12847414   6.426   4.004   1.838  1.3219  0.9506  1.6634
  214MOL   H12947415   6.518   3.881   1.914 -1.9551  1.9612  1.6655
  214MOL   H13047416   6.517   3.744   1.702 -0.5925  0.1258 -0.0614
  214MOL   H13147417   6.518   3.719   1.506 -1.8723 -0.8336  1.5756
  214MOL   H13247418   6.444   3.823   1.373  1.8590 -0.4561 -1.3976
  214MOL   H13347419   6.353   3.700   1.467 -0.1295  1.2746  0.1475
  214MOL   C13447420   6.331   3.729   1.796  0.4579  0.4070 -0.5768
  214MOL   C13547421   6.192   3.795   1.827  0.1826 -0.3436  0.2532
  214MOL   C13647422   6.106   3.790   1.705  0.3428  0.4121 -0.1463
  214MOL   O13747423   6.113   3.698   1.627  0.1874 -0.3929  0.1893
  214MOL   C13847424   6.011   3.906   1.685  0.1946 -0.5934  0.1601
  214MOL   H13947425   6.373   3.702   1.893 -0.8930  2.0373  0.4916
  214MOL   H14047426   6.329   3.634   1.742  1.4411 -0.9458  1.6667
  214MOL   H14147427   6.226   3.896   1.845 -0.2692 -0.1421 -0.0094
  214MOL   H14247428   5.926   3.915   1.752 -1.6876  1.1520 -2.3767
  214MOL   H14347429   5.976   3.899   1.582  0.1665  1.7402 -0.0090
  214MOL   H14447430   6.075   3.995   1.685 -1.1538  0.4051 -1.5684
  214MOL   C14547431   6.116   3.757   1.955  0.8593  0.0278  0.1009
  214MOL   C14647432   6.040   3.623   1.959 -0.3764 -0.2903  0.0814
  214MOL   C14747433   6.130   3.502   1.941  0.5324 -0.5243 -0.2523
  214MOL   O14847434   6.196   3.468   2.037 -0.1858 -0.1849 -0.0745
  214MOL   C14947435   6.122   3.422   1.807  0.0402 -0.0121  0.4014
  214MOL   H15047436   6.038   3.829   1.979  0.7146 -1.4140  4.2860
  214MOL   H15147437   6.187   3.766   2.037 -0.3333  1.7990  0.9482
  214MOL   H15247438   5.965   3.610   1.881 -0.2430  0.6389 -0.2084
  214MOL   H15347439   6.225   3.414   1.770  0.4655 -0.5894  1.6724
  214MOL   H15447440   6.092   3.319   1.822 -1.6026  0.1011 -1.9915
  214MOL   H15547441   6.066   3.471   1.727 -2.9764 -3.0630  0.5526
  214MOL   C15647442   5.971   3.613   2.095 -0.2975 -0.0466 -0.6279
  214MOL   C15747443   5.848   3.511   2.104 -1.0165 -0.0819 -0.5852
  214MOL   C15847444   5.721   3.584   2.157  0.1782 -0.0921 -0.1000
  214MOL   O15947445   5.660   3.547   2.257 -0.4211 -0.2959 -0.4305
  214MOL   C16047446   5.662   3.697   2.073 -0.3469  0.1428 -0.3323
  214MOL   H16147447   6.047   3.610   2.172 -0.6022  1.8136 -0.2326
  214MOL   H16247448   5.925   3.712   2.095  0.9026  0.5265 -0.6253
  214MOL   H16347449   5.822   3.478   2.003 -0.7377 -2.2621  0.0352
  214MOL   H16447450   5.663   3.673   1.967 -1.0805 -2.1263  0.1638
  214MOL   H16547451   5.727   3.783   2.091  0.0650 -0.0257 -0.9951
  214MOL   H16647452   5.561   3.729   2.100 -0.3430  0.0310 -0.1798
  214MOL   C16747453   5.880   3.383   2.191  0.0250  0.1850 -0.5424
  214MOL   C16847454   5.809   3.263   2.142  0.0494  0.3104 -0.5681
  214MOL   C16947455   5.811   3.161   2.251  0.3674 -0.9773  0.1805
  214MOL   O17047456   5.910   3.094   2.278 -0.1982 -0.6388 -0.7289
  214MOL   C17147457   5.686   3.142   2.337 -0.4897 -0.5797  0.1100
  214MOL   H17247458   5.988   3.369   2.187  0.2620  0.8544  2.1658
  214MOL   H17347459   5.865   3.413   2.295 -0.1009  1.1930 -0.8411
  214MOL   H17447460   5.701   3.279   2.131  0.0911  0.8923 -0.1225
  214MOL   H17547461   5.601   3.191   2.289  0.1430  0.6920  0.2931
  214MOL   H17647462   5.685   3.213   2.419  3.4390  0.9827 -1.1102
  214MOL   H17747463   5.671   3.042   2.378 -1.6949  0.6405  2.7886
  214MOL   C17847464   5.872   3.207   2.006  0.0518  0.1668  0.3961
  214MOL   C17947465   5.799   3.074   1.959  0.3662 -0.6519  0.4930
  214MOL   C18047466   5.897   2.988   1.875 -0.4530  0.4121 -0.0548
  214MOL   O18147467   5.983   3.044   1.801 -0.2319 -0.0153 -0.3035
  214MOL   C18247468   5.880   2.835   1.877 -0.0026 -0.5808 -0.6333
  214MOL   H18347469   5.875   3.285   1.930 -0.3413 -1.4478 -1.3177
  214MOL   H18447470   5.980   3.194   2.015 -0.2939 -3.2040  0.2839
  214MOL   H18547471   5.783   3.017   2.050  0.4664  0.7638  1.4222
  214MOL   H18647472   5.833   2.800   1.785 -1.2769  1.7949 -0.9145
  214MOL   H18747473   5.823   2.794   1.960  1.6929  1.2940  1.5332
  214MOL   H18847474   5.981   2.798   1.894 -0.7358 -2.3421  0.0784
  214MOL   C18947475   5.667   3.108   1.891  0.5775  0.5075 -0.0170
  214MOL   C19047476   5.582   2.994   1.832  0.7665 -0.4674  0.4751
  214MOL   C19147477   5.521   2.911   1.944  1.0362 -0.0136 -0.3612
  214MOL   O19247478   5.550   2.789   1.953  0.1772  0.1162 -0.1862
  214MOL   C19347479   5.428   2.973   2.040  0.4331  0.0984 -0.5754
  214MOL   H19447480   5.605   3.162   1.961 -0.4877 -0.0593 -0.5064
  214MOL   H19547481   5.681   3.173   1.805  0.7135  0.3826 -0.0896
  214MOL   H19647482   5.646   2.917   1.787  0.0176  0.0571 -1.5606
  214MOL   H19747483   5.473   3.045   2.108  0.5617  1.9051 -2.5417
  214MOL   H19847484   5.345   3.024   1.992 -1.0515 -0.2594  1.5140
  214MOL   H19947485   5.397   2.899   2.114 -0.6369  2.1137  1.0614
  214MOL   C20047486   5.476   3.041   1.731 -0.2111 -0.4241 -0.4700
  214MOL   C20147487   5.383   2.931   1.675 -0.3388 -0.4899  0.3839
  214MOL   C20247488   5.444   2.860   1.556 -0.2624 -0.5674  0.4251
  214MOL   O20347489   5.406   2.891   1.441  0.0044 -0.2789 -0.3357
  214MOL   C20447490   5.549   2.748   1.576 -0.2849  0.2001 -0.6076
  214MOL   H20547491   5.426   3.137   1.745 -0.2733 -0.3530 -1.1892
  214MOL   H20647492   5.536   3.079   1.649 -2.0480  0.2693 -1.5185
  214MOL   H20747493   5.368   2.851   1.747  1.6395 -1.8397 -0.6383
  214MOL   H20847494   5.536   2.670   1.501  0.6328 -0.0102 -0.5542
  214MOL   H20947495   5.646   2.797   1.563  0.7588 -1.6988 -0.1309
  214MOL   H21047496   5.554   2.702   1.675 -2.0488  2.6010  0.6652
  214MOL   C21147497   5.236   2.980   1.653 -0.5560  0.7024  0.1834
  214MOL   C21247498   5.213   3.096   1.552 -0.1853  0.5855 -0.3702
  214MOL   C21347499   5.070   3.118   1.499  0.3211 -0.6543 -0.4950
  214MOL   O21447500   4.970   3.075   1.558 -0.3026 -0.2995  0.3374
  214MOL   C21547501   5.058   3.210   1.385  1.0982  0.7411  0.0314
  214MOL   H21647502   5.178   2.896   1.614  0.2549 -0.1023  0.6809
  214MOL   H21747503   5.182   3.008   1.744 -2.5427  1.2498 -1.1469
  214MOL   H21847504   5.275   3.075   1.465 -0.2682 -4.6981  0.6883
  214MOL   H21947505   4.973   3.276   1.403  0.7792 -0.1568  1.9730
  214MOL   H22047506   5.149   3.271   1.378  0.0063  2.3172 -0.8331
  214MOL   H22147507   5.051   3.156   1.291 -0.2953  1.4068 -0.2631
  214MOL   H22247508   5.239   3.189   1.602  0.7510  0.0220  0.2131
  215MOL     C147509   2.336   3.115   2.460 -0.4330  0.2486 -0.3469
  215MOL     C247510   2.263   3.144   2.591 -0.4931 -0.4807  0.5665
  215MOL     C347511   2.253   3.012   2.674 -0.2987 -0.3033  0.5236
  215MOL     O447512   2.296   3.004   2.789 -0.1626 -0.3453  0.0633
  215MOL     C547513   2.173   2.895   2.617  0.7008  0.2926  0.3140
  215MOL     H647514   2.442   3.095   2.473 -0.5587  0.2465  0.7167
  215MOL     H747515   2.335   3.196   2.388  0.0270 -0.2629 -0.9334
  215MOL     H847516   2.159   3.174   2.578  0.2527  2.8159  1.7260
  215MOL     H947517   2.234   2.833   2.551 -0.1886  0.5827 -0.7987
  215MOL    H1047518   2.150   2.831   2.702 -0.3229  1.7766  1.1921
  215MOL    H1147519   2.080   2.924   2.567  0.7713 -0.2260 -0.1196
  215MOL    H1247520   2.297   3.020   2.422  0.4222 -0.6187  0.8896
  215MOL    C1347521   2.325   3.275   2.656 -0.5841 -0.3118 -0.5415
  215MOL    C1447522   2.243   3.332   2.775  0.1298 -0.0076 -0.1396
  215MOL    C1547523   2.113   3.399   2.733  0.0381  0.6400 -0.2645
  215MOL    O1647524   2.101   3.446   2.619 -0.1635 -0.0625 -0.0404
  215MOL    C1747525   1.994   3.410   2.830 -0.4288 -0.1242 -0.1762
  215MOL    H1847526   2.422   3.245   2.697 -0.2452 -0.2111 -1.2586
  215MOL    H1947527   2.353   3.356   2.588  2.2884 -1.2478 -0.5582
  215MOL    H2047528   2.197   3.258   2.842 -0.1131 -1.3450 -1.7526
  215MOL    H2147529   1.906   3.356   2.795 -2.3480  1.7958  1.5451
  215MOL    H2247530   2.018   3.393   2.935 -2.6755  1.7796  0.6962
  215MOL    H2347531   1.961   3.514   2.834  0.0779 -0.0151  1.3500
  215MOL    C2447532   2.324   3.419   2.865 -0.2218 -0.6860  0.2694
  215MOL    C2547533   2.435   3.365   2.956  0.2757  0.2589  0.6222
  215MOL    C2647534   2.522   3.478   3.005  0.0035 -0.4193 -0.5583
  215MOL    O2747535   2.505   3.524   3.118 -0.6522  0.2830 -0.1917
  215MOL    C2847536   2.625   3.542   2.917  0.3295  0.1406 -0.8259
  215MOL    H2947537   2.363   3.503   2.806  3.1785 -3.2607 -1.2837
  215MOL    H3047538   2.250   3.463   2.932  1.3644 -0.9677  2.2429
  215MOL    H3147539   2.493   3.297   2.893 -0.1124  0.4038  0.1011
  215MOL    H3247540   2.645   3.487   2.825  1.2367 -0.6311 -0.1690
  215MOL    H3347541   2.614   3.648   2.892 -0.7383  0.3439  0.4658
  215MOL    H3447542   2.716   3.526   2.975 -2.6337 -1.4793  3.6606
  215MOL    C3547543   2.364   3.289   3.064  0.5624 -0.3362 -0.0509
  215MOL    C3647544   2.446   3.206   3.167  0.3753 -0.6260  0.6708
  215MOL    C3747545   2.392   3.228   3.311  0.0719  0.3915  1.0485
  215MOL    O3847546   2.272   3.200   3.325  0.4208  0.0426 -0.4510
  215MOL    C3947547   2.481   3.284   3.414  0.2193 -0.8156 -0.3706
  215MOL    H4047548   2.299   3.216   3.015 -1.2918  0.3378  1.3656
  215MOL    H4147549   2.280   3.340   3.110  0.3209  0.7977 -1.6853
  215MOL    H4247550   2.541   3.258   3.182  0.5315 -0.9035  0.6556
  215MOL    H4347551   2.434   3.261   3.510  0.2450 -0.0891 -0.1812
  215MOL    H4447552   2.481   3.390   3.390 -2.5542 -0.2622  1.7384
  215MOL    H4547553   2.580   3.241   3.399 -1.1909 -3.9223 -1.2234
  215MOL    C4647554   2.460   3.057   3.126 -0.8159  1.1628 -0.3196
  215MOL    C4747555   2.560   2.963   3.204 -0.1945  0.1484  0.6179
  215MOL    C4847556   2.494   2.829   3.250  0.3421  0.0779  0.4308
  215MOL    O4947557   2.526   2.721   3.204  0.4137 -0.4151 -0.3083
  215MOL    C5047558   2.380   2.832   3.355  0.5509 -0.5258 -0.8718
  215MOL    H5147559   2.499   3.060   3.025 -1.5632  0.3796 -0.6353
  215MOL    H5247560   2.363   3.008   3.128  0.1220 -0.7077 -0.1079
  215MOL    H5347561   2.580   3.005   3.302 -0.8017  4.2307 -0.9045
  215MOL    H5447562   2.431   2.834   3.452 -1.1659 -1.0892  0.0690
  215MOL    H5547563   2.326   2.927   3.350 -0.6075 -1.2651 -3.2920
  215MOL    H5647564   2.314   2.746   3.349 -0.7553  0.3682  0.2906
  215MOL    C5747565   2.695   2.943   3.131  0.1111  0.2510  0.5607
  215MOL    C5847566   2.797   3.053   3.156 -0.0666 -0.2291 -0.1847
  215MOL    C5947567   2.872   3.039   3.290 -0.3183  0.4780  0.2521
  215MOL    O6047568   2.889   3.134   3.361  0.1142  0.1436  0.4965
  215MOL    C6147569   2.912   2.895   3.343 -0.7055 -0.2236  0.4389
  215MOL    H6247570   2.680   2.938   3.023  1.4840  0.4193  0.3564
  215MOL    H6347571   2.745   2.847   3.141  1.1169  0.7279  0.1220
  215MOL    H6447572   2.743   3.145   3.178 -0.7613 -0.9155  1.0134
  215MOL    H6547573   2.995   2.896   3.414 -0.4824  2.5738  0.1986
  215MOL    H6647574   2.833   2.832   3.383  0.7896 -1.1566  1.9836
  215MOL    H6747575   2.955   2.841   3.259 -1.9603 -0.9248  0.2481
  215MOL    C6847576   2.906   3.061   3.047 -0.0905  1.1492  0.4565
  215MOL    C6947577   2.984   3.198   3.045  0.6698 -0.5441 -0.2871
  215MOL    C7047578   2.912   3.310   2.967  0.3215  0.3205  0.4202
  215MOL    O7147579   2.805   3.283   2.907  0.5047 -0.2595  0.2980
  215MOL    C7247580   2.979   3.450   2.965  0.3367  0.0288  0.1067
  215MOL    H7347581   2.977   2.978   3.051  0.3304  1.2483 -3.1782
  215MOL    H7447582   2.870   3.051   2.945 -0.0062  2.9920  0.2315
  215MOL    H7547583   2.976   3.244   3.143 -0.3360  0.7722 -0.9676
  215MOL    H7647584   3.049   3.472   3.045 -0.1623  0.1497  0.5137
  215MOL    H7747585   3.051   3.450   2.884  1.5623 -1.9795  1.1520
  215MOL    H7847586   2.913   3.536   2.951 -0.3920 -0.5552 -0.0752
  215MOL    C7947587   3.138   3.197   3.018 -0.5728  0.2480 -1.0627
  215MOL    C8047588   3.233   3.154   3.127  0.1388 -0.5801 -0.5779
  215MOL    C8147589   3.218   3.226   3.261 -0.1011 -0.1499  0.8900
  215MOL    O8247590   3.201   3.349   3.277  0.4227 -0.2530 -0.1260
  215MOL    C8347591   3.230   3.135   3.378  0.4612  0.1611 -0.6536
  215MOL    H8447592   3.161   3.295   2.976  0.4104  1.1866  1.5540
  215MOL    H8547593   3.153   3.127   2.936  0.7215  0.6301 -1.1579
  215MOL    H8647594   3.206   3.051   3.150  0.0240  0.0763  2.4589
  215MOL    H8747595   3.280   3.198   3.451 -0.7794 -0.7275  0.9825
  215MOL    H8847596   3.277   3.041   3.349 -0.4233 -0.6256  0.4001
  215MOL    H8947597   3.134   3.102   3.418 -0.6513  0.0457 -3.3095
  215MOL    C9047598   3.378   3.181   3.080 -0.5032  0.5639 -0.3261
  215MOL    C9147599   3.485   3.097   3.147  0.1724  0.0040 -0.2699
  215MOL    C9247600   3.466   2.944   3.101  0.7038  0.4373  0.3807
  215MOL    O9347601   3.391   2.866   3.157 -0.1443 -0.0048 -0.0968
  215MOL    C9447602   3.532   2.902   2.975 -0.7642  0.5795 -0.0389
  215MOL    H9547603   3.378   3.167   2.972  2.0173  0.8745 -0.3807
  215MOL    H9647604   3.400   3.287   3.094  0.0372  0.2749  1.1539
  215MOL    H9747605   3.470   3.096   3.255  1.6835 -2.3609 -0.0398
  215MOL    H9847606   3.579   2.971   2.905 -0.0987 -1.8427 -2.0512
  215MOL    H9947607   3.617   2.840   3.003 -1.4257 -0.5269 -0.4093
  215MOL   H10047608   3.464   2.836   2.920 -1.3004  0.2368  1.0217
  215MOL   C10147609   3.635   3.147   3.126  0.4453 -0.5388 -0.0352
  215MOL   C10247610   3.743   3.091   3.221 -0.2193  0.2288 -0.2986
  215MOL   C10347611   3.756   3.162   3.357 -0.4288  0.3385 -0.2183
  215MOL   O10447612   3.848   3.241   3.382  0.9168  0.1062  0.1162
  215MOL   C10547613   3.652   3.136   3.458  0.5556 -0.0352 -0.0473
  215MOL   H10647614   3.663   3.137   3.021 -0.8943  0.9091 -0.5500
  215MOL   H10747615   3.633   3.256   3.123  3.6993 -0.4295  0.4505
  215MOL   H10847616   3.703   2.993   3.245 -0.5557  0.3471 -0.3782
  215MOL   H10947617   3.674   3.059   3.531  0.5977 -0.4021 -0.4428
  215MOL   H11047618   3.630   3.228   3.513  0.6462  0.4316 -0.7843
  215MOL   H11147619   3.563   3.097   3.409  0.9537  0.0623 -0.8597
  215MOL   C11247620   3.882   3.063   3.158 -0.0923 -0.1644  0.1197
  215MOL   C11347621   3.968   3.179   3.086 -0.0692  0.4078 -0.1140
  215MOL   C11447622   3.892   3.289   3.011 -0.0226 -0.1104  0.2619
  215MOL   O11547623   3.830   3.264   2.905 -0.1994  0.5214 -0.0245
  215MOL   C11647624   3.895   3.433   3.061 -0.1285 -0.3500 -0.2132
  215MOL   H11747625   3.873   2.981   3.087  0.9143 -0.5730  0.4576
  215MOL   H11847626   3.956   3.022   3.226 -0.3686  0.6276  0.9209
  215MOL   H11947627   4.007   3.229   3.174  3.3046 -3.0892  0.4889
  215MOL   H12047628   3.965   3.498   3.009 -2.2595  1.7469 -0.5460
  215MOL   H12147629   3.794   3.475   3.063  0.0966  0.1535  1.9895
  215MOL   H12247630   3.939   3.430   3.161  0.8545 -1.6854 -0.6696
  215MOL   C12347631   4.082   3.111   2.998  1.3523 -0.1938  0.6134
  215MOL   C12447632   4.202   3.029   3.055  0.4040  0.4919  0.1338
  215MOL   C12547633   4.174   2.877   3.089 -0.2673  0.3572  0.1664
  215MOL   O12647634   4.207   2.823   3.195 -0.0277 -0.0250 -0.8439
  215MOL   C12747635   4.103   2.799   2.982  0.3450  0.0378 -0.3936
  215MOL   H12847636   4.113   3.195   2.937  1.1654  0.9577  2.0823
  215MOL   H12947637   4.034   3.043   2.928 -0.6657  0.9114  0.8915
  215MOL   H13047638   4.281   3.031   2.980  0.8830 -1.7150  0.5301
  215MOL   H13147639   4.121   2.693   3.003  0.0357  0.0298 -0.1614
  215MOL   H13247640   4.155   2.826   2.891  0.9075  1.4464  0.3423
  215MOL   H13347641   3.998   2.824   2.967  0.1749 -0.3169  0.1976
  215MOL   C13447642   4.256   3.105   3.181 -0.1881 -0.0900 -1.1098
  215MOL   C13547643   4.402   3.086   3.233 -0.9149  0.3630  0.1804
  215MOL   C13647644   4.502   3.181   3.168 -0.0460  0.1051 -1.0604
  215MOL   O13747645   4.549   3.274   3.227  0.2383 -0.5289 -0.0174
  215MOL   C13847646   4.542   3.147   3.025 -0.7314  0.3156 -0.5406
  215MOL   H13947647   4.186   3.092   3.263 -0.8618  0.1825 -1.6397
  215MOL   H14047648   4.253   3.214   3.177  3.8225  0.0966 -1.4570
  215MOL   H14147649   4.430   2.983   3.214 -2.5217 -0.0286 -0.1390
  215MOL   H14247650   4.621   3.214   2.990  1.9426 -3.0728 -1.2934
  215MOL   H14347651   4.464   3.165   2.951 -1.4733  2.0360  0.6277
  215MOL   H14447652   4.575   3.044   3.012 -0.2820  0.3348  0.4497
  215MOL   C14547653   4.407   3.118   3.386 -0.3181 -0.1338  0.4904
  215MOL   C14647654   4.527   3.083   3.466 -0.2324 -0.4504 -0.0559
  215MOL   C14747655   4.539   3.158   3.594 -0.0679 -0.3200  0.4910
  215MOL   O14847656   4.453   3.145   3.681 -0.4790  0.1644  0.5294
  215MOL   C14947657   4.653   3.251   3.621  0.2267  0.2394  0.3449
  215MOL   H15047658   4.312   3.099   3.436 -0.8838  0.2437 -0.4282
  215MOL   H15147659   4.397   3.226   3.392  1.9424  0.2128 -1.4514
  215MOL   H15247660   4.603   3.112   3.394 -0.6161 -0.4514 -0.4633
  215MOL   H15347661   4.741   3.236   3.558 -0.2136  1.4908 -0.5939
  215MOL   H15447662   4.628   3.356   3.608  1.2950  0.6393  1.4004
  215MOL   H15547663   4.682   3.236   3.725 -1.2516 -2.6391  0.4057
  215MOL   C15647664   4.550   2.933   3.481  0.7363  0.7222  0.2334
  215MOL   C15747665   4.685   2.883   3.531 -0.0904  0.3066  0.2591
  215MOL   C15847666   4.808   2.963   3.476  0.3556  0.0847  0.3876
  215MOL   O15947667   4.899   2.993   3.551 -0.1102 -0.0103 -0.4549
  215MOL   C16047668   4.817   2.985   3.328  0.1044 -0.3190  0.3428
  215MOL   H16147669   4.483   2.889   3.555  0.9402  0.8362  0.4865
  215MOL   H16247670   4.533   2.878   3.388  0.4898 -0.8596  1.1850
  215MOL   H16347671   4.692   2.899   3.639  3.7249 -0.3377  0.1464
  215MOL   H16447672   4.725   2.942   3.288  0.3831  0.7669 -1.5196
  215MOL   H16547673   4.900   2.935   3.280 -1.4650 -1.5733 -1.1261
  215MOL   H16647674   4.805   3.089   3.298  0.3670 -0.4689 -0.2800
  215MOL   C16747675   4.715   2.730   3.504  0.4309 -0.4158  0.1418
  215MOL   C16847676   4.669   2.630   3.609  0.2492  0.4738 -0.3399
  215MOL   C16947677   4.744   2.640   3.743 -0.2163 -0.5237  1.1165
  215MOL   O17047678   4.839   2.720   3.754  0.4898 -0.5469  0.1377
  215MOL   C17147679   4.695   2.564   3.862  0.4568 -0.1376 -0.3727
  215MOL   H17247680   4.663   2.707   3.411  0.4135  2.9217 -0.7463
  215MOL   H17347681   4.824   2.726   3.496  0.3666  1.1328 -1.8378
  215MOL   H17447682   4.564   2.642   3.636  0.3378  0.5904 -0.0416
  215MOL   H17547683   4.610   2.501   3.836  0.3910  1.5745 -4.5861
  215MOL   H17647684   4.665   2.631   3.942 -2.1815 -0.1795 -1.2875
  215MOL   H17747685   4.768   2.497   3.908 -0.3656 -0.0209  1.1503
  215MOL   C17847686   4.692   2.488   3.545 -0.1582 -0.6084 -0.4927
  215MOL   C17947687   4.840   2.456   3.517 -0.1508  0.9523  0.3175
  215MOL   C18047688   4.866   2.434   3.364  1.1835  0.1674 -0.2210
  215MOL   O18147689   4.873   2.320   3.320  0.1714 -0.1309  0.0854
  215MOL   C18247690   4.921   2.551   3.277 -0.0324 -0.1944 -0.4574
  215MOL   H18347691   4.638   2.415   3.604  0.6649  0.2501  1.3538
  215MOL   H18447692   4.628   2.488   3.457  0.5049 -1.2199 -0.9845
  215MOL   H18547693   4.907   2.533   3.557  1.0536 -0.3767  0.9012
  215MOL   H18647694   4.947   2.639   3.336 -1.0770 -0.0915 -0.1374
  215MOL   H18747695   4.845   2.584   3.205 -0.2685  0.3698  0.0445
  215MOL   H18847696   5.014   2.526   3.226  0.3721  3.7465 -1.8261
  215MOL   C18947697   4.877   2.329   3.606  0.7877  0.7096 -0.3791
  215MOL   C19047698   5.027   2.284   3.605 -1.5078  0.8541 -0.1203
  215MOL   C19147699   5.129   2.392   3.651  0.5719  0.4687 -0.5893
  215MOL   O19247700   5.221   2.415   3.573 -0.2765  0.4066 -0.4497
  215MOL   C19347701   5.112   2.452   3.785 -0.6636 -0.4800  0.3204
  215MOL   H19447702   4.836   2.355   3.704  0.8435 -2.9144  0.6757
  215MOL   H19547703   4.813   2.244   3.583  1.5962  0.5745 -2.1872
  215MOL   H19647704   5.061   2.264   3.503  1.6029  0.9720  0.8591
  215MOL   H19747705   5.006   2.464   3.809 -0.7944 -1.4718  0.2372
  215MOL   H19847706   5.149   2.375   3.852 -1.1380  0.9974  2.3361
  215MOL   H19947707   5.169   2.545   3.790  0.3007 -1.0068 -0.7421
  215MOL   C20047708   5.057   2.140   3.662 -0.2000 -0.5715  0.7624
  215MOL   C20147709   5.197   2.076   3.636  0.0346  0.2537  0.1732
  215MOL   C20247710   5.242   2.062   3.489  0.4490  0.4084  0.1137
  215MOL   O20347711   5.169   1.998   3.408 -0.6752  0.6123  0.6808
  215MOL   C20447712   5.381   2.110   3.448 -0.0428 -0.2520  0.0063
  215MOL   H20547713   5.037   2.146   3.769  1.9703  0.1463  1.1625
  215MOL   H20647714   4.992   2.067   3.615  0.6602 -0.2468 -0.9534
  215MOL   H20747715   5.268   2.141   3.688 -1.6881  1.7724  0.6609
  215MOL   H20847716   5.436   2.141   3.537 -1.1252  1.5273  0.0743
  215MOL   H20947717   5.433   2.043   3.379  4.2384  3.1158 -0.2792
  215MOL   H21047718   5.380   2.204   3.392  0.1100  0.1459  0.6743
  215MOL   C21147719   5.207   1.945   3.721 -0.4916 -0.6437 -0.1680
  215MOL   C21247720   5.131   1.824   3.669 -0.2012 -0.5990 -0.2763
  215MOL   C21347721   4.990   1.814   3.728 -1.1435  0.2259  0.0108
  215MOL   O21447722   4.960   1.860   3.837 -0.5436 -0.3990  0.3730
  215MOL   C21547723   4.881   1.748   3.642 -0.3956  0.3494 -0.0594
  215MOL   H21647724   5.311   1.913   3.729  0.4863  2.2118 -0.7220
  215MOL   H21747725   5.184   1.971   3.824 -1.5189 -0.7973 -0.3606
  215MOL   H21847726   5.182   1.729   3.684 -1.1275 -1.2453 -1.1291
  215MOL   H21947727   4.905   1.732   3.537 -1.8760 -1.5099 -0.1227
  215MOL   H22047728   4.855   1.651   3.682 -0.7159 -0.1762 -1.5132
  215MOL   H22147729   4.799   1.819   3.639 -0.1623  0.5837 -1.1449
  215MOL   H22247730   5.120   1.823   3.561 -1.6390 -2.3697 -0.1244
  216MOL     C147731   7.037   0.031   7.302 -0.4992  0.4086  0.8091
  216MOL     C247732   7.101   7.843   7.430 -0.6715  0.8718 -0.3767
  216MOL     C347733   7.078   7.692   7.459  0.2383  0.2898  0.8441
  216MOL     O447734   7.154   7.595   7.441  0.3440 -0.4025 -0.2884
  216MOL     C547735   6.929   7.664   7.480  0.5080  0.5956  0.0347
  216MOL     H647736   6.990   0.130   7.305  0.6832  1.1624 -2.7807
  216MOL     H747737   6.966   7.815   7.263  1.5418 -1.2522  0.1182
  216MOL     H847738   7.040   0.028   7.510 -1.2991 -1.3520  0.3852
  216MOL     H947739   6.910   7.695   7.582  2.6514 -2.1182  1.3463
  216MOL    H1047740   6.861   7.721   7.417  1.4541  0.8485 -0.7694
  216MOL    H1147741   6.898   7.559   7.475  0.3014  0.7408 -2.3073
  216MOL    H1247742   7.114   0.053   7.228 -0.7274  2.4896  1.1616
  216MOL    C1347743   7.245   0.041   7.444 -0.0947  0.1274 -0.2138
  216MOL    C1447744   7.302   0.024   7.589  0.5887  0.7291  0.4857
  216MOL    C1547745   7.247   0.133   7.682 -0.2146  0.0505  0.7700
  216MOL    O1647746   7.194   0.238   7.638 -0.0015 -0.2681  0.4413
  216MOL    C1747747   7.249   0.102   7.834 -0.2901  0.0988 -0.0376
  216MOL    H1847748   7.310   7.846   7.374  1.8665  1.1281  0.8026
  216MOL    H1947749   7.248   0.146   7.415  1.9573 -0.0049 -0.5977
  216MOL    H2047750   7.269   7.790   7.639 -4.2777  1.1083 -1.7075
  216MOL    H2147751   7.198   0.006   7.833  0.9384 -0.5920 -2.9260
  216MOL    H2247752   7.350   0.087   0.015 -0.0540 -0.7623 -0.9682
  216MOL    H2347753   7.199   0.181   0.032 -1.1403 -1.0844  0.8989
  216MOL    C2447754   7.462   0.026   7.584  0.3526 -0.0225 -0.2349
  216MOL    C2547755   7.536   7.759   7.636  0.0666  0.3323  0.1932
  216MOL    C2647756   7.471   7.631   7.596  0.8052 -0.1439 -0.1905
  216MOL    O2747757   7.421   7.563   7.689  0.1374  0.4432 -0.3792
  216MOL    C2847758   7.450   7.590   7.458  0.7604  0.2513 -0.0230
  216MOL    H2947759   7.488   0.054   7.482  0.9892 -0.4178 -0.1867
  216MOL    H3047760   7.495   0.109   7.647  0.4302 -1.1354  1.1986
  216MOL    H3147761   7.548   7.774   7.744  0.7223 -0.3848  0.2199
  216MOL    H3247762   7.413   7.670   7.394 -0.8631 -0.9373 -0.6114
  216MOL    H3347763   7.546   7.554   7.420  0.2265 -0.7194 -0.4406
  216MOL    H3447764   7.385   7.503   7.456 -0.6309  1.2917 -2.7682
  216MOL    C3547765   7.690   7.772   7.604  0.1557 -0.5716  0.6154
  216MOL    C3647766   7.780   7.644   7.628 -0.3373 -0.3252 -0.0025
  216MOL    C3747767   0.039   7.658   7.536  0.6759  0.0127  0.2462
  216MOL    O3847768   0.153   7.672   7.574  0.5345 -0.1805 -0.1058
  216MOL    C3947769   0.014   7.630   7.384  0.6940  0.3992 -0.2730
  216MOL    H4047770   7.727   0.003   7.654  0.8911 -0.1448 -0.6769
  216MOL    H4147771   7.695   7.814   7.504 -2.6690  1.4131  1.2191
  216MOL    H4247772   7.731   7.552   7.598 -0.8368 -1.0293  2.7880
  216MOL    H4347773   7.767   7.605   7.364  0.8586  0.0356 -0.6944
  216MOL    H4447774   0.088   7.559   7.347  2.2237  2.3078 -0.9083
  216MOL    H4547775   0.036   7.717   7.323  0.6110  1.2831  0.9521
  216MOL    C4647776   7.810   7.626   7.776  0.1700 -0.3280 -0.4438
  216MOL    C4747777   0.017   7.491   7.810 -0.1252  0.0567 -0.0929
  216MOL    C4847778   0.112   7.504   0.072  0.1116 -0.1468  0.0517
  216MOL    O4947779   0.063   7.517   0.186  0.1795  0.2261 -0.3703
  216MOL    C5047780   0.267   7.515   0.053  0.5425 -0.6069 -0.1385
  216MOL    H5147781   7.716   7.640   7.830 -0.3949  0.1284 -1.5325
  216MOL    H5247782   0.025   7.696   7.818 -0.2493 -0.1528  0.0027
  216MOL    H5347783   0.079   7.466   7.723  1.4977  0.3791  0.9509
  216MOL    H5447784   0.288   7.556   7.812  0.4173  0.4857  0.2828
  216MOL    H5547785   0.321   7.571   0.130 -2.7689 -1.0966  2.6650
  216MOL    H5647786   0.320   7.420   0.050  2.4487  0.4378 -0.2919
  216MOL    C5747787   7.772   7.377   7.819  0.2409 -0.8378  0.2617
  216MOL    C5847788   7.812   7.236   7.758 -0.1436  0.2008  0.6583
  216MOL    C5947789   0.000   7.247   7.613 -0.3837  0.1441  0.0250
  216MOL    O6047790   0.112   7.280   7.580 -0.6929 -0.7334  0.3248
  216MOL    C6147791   7.752   7.223   7.509  0.1017 -0.6152  0.4858
  216MOL    H6247792   7.681   7.410   7.770  0.4418  1.3852  1.3161
  216MOL    H6347793   7.725   7.364   0.058  1.6147 -1.5331  0.8609
  216MOL    H6447794   7.720   7.177   7.765 -0.4193  0.6006  0.3764
  216MOL    H6547795   7.665   7.282   7.537  0.0174 -1.0330  1.1203
  216MOL    H6647796   7.781   7.259   7.410  1.8527  0.0214  1.2161
  216MOL    H6747797   7.720   7.120   7.524 -1.4338  0.0049  1.6079
  216MOL    C6847798   0.059   7.174   7.856 -0.0120  0.2720  0.2297
  216MOL    C6947799   0.065   7.017   0.013  0.5349  0.3331 -0.6070
  216MOL    C7047800   7.790   6.944   0.054 -0.6035  0.3351  0.4909
  216MOL    O7147801   7.759   6.924   0.173 -0.3266  0.0444  0.1545
  216MOL    C7247802   7.707   6.899   7.789  0.8290  0.3699  0.9858
  216MOL    H7347803   0.158   7.210   7.831  0.3926  0.6526  2.2677
  216MOL    H7447804   0.048   7.203   0.103  0.8599 -1.8353  0.9287
  216MOL    H7547805   0.087   6.968   7.776  2.4704 -0.7750  0.3806
  216MOL    H7647806   7.599   6.904   7.803  0.1135 -2.8175 -2.7676
  216MOL    H7747807   7.741   6.954   7.702  1.9851  0.2024  1.3299
  216MOL    H7847808   7.734   6.795   7.775 -0.9433 -0.2032  1.6743
  216MOL    C7947809   0.192   6.984   0.110  0.2575  0.4148 -0.3930
  216MOL    C8047810   0.293   6.895   0.038 -0.0975 -0.0243 -0.4573
  216MOL    C8147811   0.378   6.812   0.136  0.4858 -0.2646  0.3404
  216MOL    O8247812   0.492   6.847   0.178 -0.2573 -0.1268 -0.0091
  216MOL    C8347813   0.322   6.671   0.162  0.3215  0.0463 -0.3002
  216MOL    H8447814   0.152   6.934   0.199 -0.0021 -2.6112 -2.1405
  216MOL    H8547815   0.243   7.072   0.148 -1.2754  1.2051 -0.1119
  216MOL    H8647816   0.235   6.823   7.837 -0.5912  0.1741 -0.2084
  216MOL    H8747817   0.320   6.663   0.270 -0.8798 -2.1533 -0.4480
  216MOL    H8847818   0.378   6.590   0.114  0.3817  1.4034 -2.6320
  216MOL    H8947819   0.224   6.666   0.114  0.8008  0.8465 -1.4026
  216MOL    C9047820   0.368   6.967   7.782 -0.0038 -0.6565 -0.2355
  216MOL    C9147821   0.489   6.900   7.723  0.0848  0.3409  0.1283
  216MOL    C9247822   0.460   6.805   7.602 -0.3494  0.0106 -0.1147
  216MOL    O9347823   0.475   6.843   7.481 -0.0010  0.0659 -0.3693
  216MOL    C9447824   0.419   6.668   7.636 -0.0365  0.3324  0.6311
  216MOL    H9547825   0.298   7.000   7.705  1.1270 -1.1874 -1.4985
  216MOL    H9647826   0.408   7.052   7.836  0.1066 -1.8695  1.6221
  216MOL    H9747827   0.524   6.837   7.804 -0.1809 -1.3577 -1.0532
  216MOL    H9847828   0.378   6.637   7.541 -2.1685 -2.0674  2.2775
  216MOL    H9947829   0.503   6.601   7.656  0.4429  0.2153 -1.6094
  216MOL   H10047830   0.345   6.648   7.713 -1.3233 -0.9736 -0.9222
  216MOL   C10147831   0.599   6.997   7.678  0.1805 -0.3766 -0.1040
  216MOL   C10247832   0.748   6.955   7.698 -0.5285  0.4405 -0.4218
  216MOL   C10347833   0.798   6.835   7.610 -0.2176  0.6309  1.0662
  216MOL   O10447834   0.771   6.723   7.650 -0.0660 -0.1633 -0.0034
  216MOL   C10547835   0.848   6.865   7.469  0.7514 -0.0520 -0.0720
  216MOL   H10647836   0.597   7.029   7.574 -2.7682  0.2230  0.0820
  216MOL   H10747837   0.592   7.085   7.741 -1.5503 -0.1525 -0.5936
  216MOL   H10847838   0.816   7.032   7.663  1.4776 -1.0447  0.0770
  216MOL   H10947839   0.930   6.797   7.444  0.8825  0.1012 -0.0606
  216MOL   H11047840   0.765   6.868   7.399  0.0585 -0.7014  0.7122
  216MOL   H11147841   0.892   6.965   7.469 -0.6194  0.5692  0.7969
  216MOL   C11247842   0.787   6.940   7.857  0.3906  0.3739  1.1877
  216MOL   C11347843   0.828   7.080   0.062 -0.5154  0.4669  0.3420
  216MOL   C11447844   0.967   7.125   0.012  0.4091  0.4364  0.0804
  216MOL   O11547845   1.074   7.063   0.031  0.0147  0.1373 -0.1179
  216MOL   C11647846   0.964   7.249   7.778 -0.4720 -0.0058 -0.2483
  216MOL   H11747847   0.865   6.865   0.015 -1.6079 -2.3175 -1.2042
  216MOL   H11847848   0.710   6.887   0.057 -0.6826  0.4432 -0.1738
  216MOL   H11947849   0.758   7.149   0.015 -0.1146 -0.5602 -1.8023
  216MOL   H12047850   0.997   7.337   7.834 -2.2477  2.3229 -2.7827
  216MOL   H12147851   1.033   7.241   7.694 -1.4628  1.3556 -1.2064
  216MOL   H12247852   0.866   7.246   7.731 -0.5091 -0.9176 -0.1251
  216MOL   C12347853   0.807   7.083   0.210 -0.1013  0.2387 -0.1527
  216MOL   C12447854   0.740   7.207   0.268 -0.3334 -0.0434  0.2329
  216MOL   C12547855   0.594   7.213   0.221  0.1045  0.0854  0.0590
  216MOL   O12647856   0.558   7.265   0.113  0.1579 -0.2256 -0.0684
  216MOL   C12747857   0.491   7.147   0.310  0.4686  0.4439 -0.4822
  216MOL   H12847858   0.906   7.073   0.256  0.0866  1.4907 -0.2762
  216MOL   H12947859   0.751   6.995   0.240 -1.0918  0.6391 -0.8082
  216MOL   H13047860   0.739   7.206   0.377  2.8439  0.5075  0.3194
  216MOL   H13147861   0.501   7.194   0.408 -0.4104 -0.4701  0.0538
  216MOL   H13247862   0.520   7.043   0.324  1.1905  0.9436  1.9289
  216MOL   H13347863   0.391   7.156   0.267  0.8951 -1.2549 -1.8726
  216MOL   C13447864   0.824   7.332   0.246 -0.7662  0.0476  0.6544
  216MOL   C13547865   0.766   7.473   0.291  0.0378 -0.8440  0.4559
  216MOL   C13647866   0.755   7.473   0.446  0.0438 -0.5472  0.4866
  216MOL   O13747867   0.645   7.476   0.499  0.1274 -0.0199  0.1956
  216MOL   C13847868   0.883   7.463   0.529 -0.4115 -0.0355 -0.3923
  216MOL   H13947869   0.841   7.350   0.140  0.8009 -0.0961  0.8682
  216MOL   H14047870   0.926   7.323   0.284 -1.0039  1.2900  1.6319
  216MOL   H14147871   0.672   7.503   0.246 -0.3074  1.0791  2.3511
  216MOL   H14247872   0.961   7.396   0.493  2.2998  0.9523  3.3591
  216MOL   H14347873   0.861   7.432   0.631  1.2323 -0.5945 -0.1869
  216MOL   H14447874   0.921   7.565   0.528  0.4601 -0.3491  0.0399
  216MOL   C14547875   0.868   7.590   0.249  0.0411  0.1976  0.4272
  216MOL   C14647876   0.843   7.631   0.100  0.2298 -0.7057  0.4955
  216MOL   C14747877   0.714   7.719   0.076 -0.4595 -0.0274  0.4987
  216MOL   O14847878   0.622   7.675   0.006 -0.2923  0.1345 -1.0667
  216MOL   C14947879   0.717   0.005   0.122  0.2924 -0.6658 -0.0428
  216MOL   H15047880   0.966   7.548   0.269 -0.6859 -2.3631 -1.1978
  216MOL   H15147881   0.861   7.680   0.311 -1.0916 -0.5631  1.4261
  216MOL   H15247882   0.818   7.542   0.041  2.5062 -0.2775 -1.1704
  216MOL   H15347883   0.640   0.068   0.078  2.1449  0.5179 -1.7263
  216MOL   H15447884   0.721   0.013   0.231 -1.2635  1.0819 -0.0793
  216MOL   H15547885   0.810   0.056   0.093 -0.5711 -0.4227 -2.5001
  216MOL   C15647886   0.977   7.696   0.048  0.1675 -0.3441 -0.1466
  216MOL   C15747887   0.986   7.740   7.754 -0.4473  0.6373 -0.6995
  216MOL   C15847888   0.980   7.611   7.665  0.3217  0.0521 -0.5926
  216MOL   O15947889   1.074   7.537   7.667 -0.2335  0.0363 -0.3137
  216MOL   C16047890   0.846   7.594   7.579 -0.1040  0.0586  0.0288
  216MOL   H16147891   1.002   7.788   0.102  2.5042 -0.2677 -1.3077
  216MOL   H16247892   1.049   7.618   0.074  2.8308  1.6728 -1.2568
  216MOL   H16347893   0.902   7.807   7.735  0.1032  2.1611  1.9648
  216MOL   H16447894   0.770   7.631   7.649  1.5194  1.2217  1.2045
  216MOL   H16547895   0.808   7.496   7.551 -0.2283 -0.7163  2.7413
  216MOL   H16647896   0.848   7.660   7.492 -2.9140  2.6446  1.7902
  216MOL   C16747897   1.120   7.804   7.726  0.1937  0.6460 -0.3011
  216MOL   C16847898   1.117   0.077   7.642 -0.4643 -0.9670  0.6658
  216MOL   C16947899   1.072   0.193   7.733 -0.2945  0.3182 -0.8875
  216MOL   O17047900   0.954   0.228   7.733  0.1307 -0.4591 -0.8978
  216MOL   C17147901   1.178   0.254   7.823  0.5178 -0.3802 -0.4818
  216MOL   H17247902   1.178   7.823   7.816 -0.0307  0.0277 -0.0236
  216MOL   H17347903   1.189   7.740   7.671  1.4542  1.5841  0.1630
  216MOL   H17447904   1.224   0.091   7.625 -0.6666 -1.0283 -0.7203
  216MOL   H17547905   1.162   0.361   7.832  1.3681 -0.2670 -0.2585
  216MOL   H17647906   1.276   0.246   7.775  0.0420 -1.6257 -1.2681
  216MOL   H17747907   1.177   0.217   0.067  0.2209  1.9013  0.3665
  216MOL   C17847908   1.045   0.074   7.500  0.0129  0.2585 -0.4751
  216MOL   C17947909   1.105   0.178   7.399  0.8987  0.3226 -0.6614
  216MOL   C18047910   0.997   0.241   7.312  0.0766  0.8953 -0.1821
  216MOL   O18147911   0.958   0.355   7.323 -0.4555  0.1874  0.6463
  216MOL   C18247912   0.943   0.149   7.201 -0.9566  0.1681  0.1284
  216MOL   H18347913   1.060   7.829   7.467 -2.8154 -0.0999 -0.8117
  216MOL   H18447914   0.941   0.091   7.527  0.6207  0.8530  1.6185
  216MOL   H18547915   1.144   0.264   7.455  1.9842  0.4624 -1.6170
  216MOL   H18647916   1.012   0.167   7.118 -1.4495 -1.9910 -0.7822
  216MOL   H18747917   0.848   0.187   7.165 -2.9102 -1.6660  3.1021
  216MOL   H18847918   0.937   0.042   7.222 -1.2561  0.2050  0.2195
  216MOL   C18947919   1.223   0.115   7.317 -0.3231  0.1902  0.3462
  216MOL   C19047920   1.292   0.211   7.210 -0.3561 -1.1224 -0.8135
  216MOL   C19147921   1.326   0.345   7.272  0.1816 -0.0285 -0.7190
  216MOL   O19247922   1.396   0.349   7.373 -0.1414  0.1985  0.2915
  216MOL   C19347923   1.257   0.473   7.219  0.3648  0.7083 -0.3482
  216MOL   H19447924   1.301   0.085   7.388 -0.7181 -3.2653 -0.5902
  216MOL   H19547925   1.180   0.029   7.266  1.1313 -0.3182 -0.0426
  216MOL   H19647926   1.224   0.230   7.127  0.9623  0.3061 -1.6102
  216MOL   H19747927   1.162   0.496   7.268  0.1860  2.6298 -1.5237
  216MOL   H19847928   1.320   0.562   7.222  1.4322  0.1495 -3.9979
  216MOL   H19947929   1.232   0.471   7.113  1.8030  1.4061 -0.7139
  216MOL   C20047930   1.417   0.137   7.157 -0.2567 -0.7218  0.1480
  216MOL   C20147931   1.374   0.043   7.039 -0.3227 -0.0468  0.2374
  216MOL   C20247932   1.485   7.794   7.029 -0.0436  0.4045 -0.2616
  216MOL   O20347933   1.563   7.794   6.935 -0.5875 -0.6685  0.7615
  216MOL   C20447934   1.484   7.667   7.125  0.1368  0.3475 -0.3972
  216MOL   H20547935   1.487   0.212   7.120 -1.8794 -0.3827 -2.3703
  216MOL   H20647936   1.483   0.093   7.232 -0.6765  0.4750  1.2548
  216MOL   H20747937   1.285   7.850   7.077  0.7910 -2.1823  0.0648
  216MOL   H20847938   1.458   7.578   7.067  0.8575 -0.2065  0.1332
  216MOL   H20947939   1.586   7.673   7.163  1.4127  2.6277 -3.8854
  216MOL   H21047940   1.410   7.690   7.201  0.0824  1.7010 -0.8328
  216MOL   C21147941   1.351   0.129   6.909  0.0565 -0.5311 -0.5882
  216MOL   C21247942   1.290   0.059   6.789 -0.2548 -0.3587  0.0324
  216MOL   C21347943   1.145   0.012   6.809  0.5402  0.0073 -0.0950
  216MOL   O21447944   1.088   0.005   6.918 -0.1618 -0.6739 -0.3532
  216MOL   C21547945   1.076   7.822   6.688  0.2542  0.1877 -0.0883
  216MOL   H21647946   1.306   0.228   6.922  1.7947  0.0826  1.0302
  216MOL   H21747947   1.454   0.155   6.886  0.3919  0.0562  1.4191
  216MOL   H21847948   1.352   7.832   6.759 -0.7149 -0.7791  0.2576
  216MOL   H21947949   0.980   0.011   6.667  0.7704  1.2892 -0.0364
  216MOL   H22047950   1.144   7.805   6.605 -0.0343 -1.4977  0.0080
  216MOL   H22147951   1.038   7.727   6.725  1.3521  0.5948  2.1809
  216MOL   H22247952   1.299   0.127   6.704 -1.2003 -1.4542 -0.9538
  217MOL     C147953   4.745   4.316   0.408  0.1293  0.3823  0.4899
  217MOL     C247954   4.670   4.406   0.513  0.2433 -0.5917  1.1240
  217MOL     C347955   4.700   4.551   0.471 -0.1429 -0.2055  0.3492
  217MOL     O447956   4.771   4.623   0.534 -0.1575 -0.4349 -0.0753
  217MOL     C547957   4.657   4.609   0.341 -0.2559  0.9068  0.6910
  217MOL     H647958   4.839   4.362   0.378 -1.4130  1.7244 -2.5610
  217MOL     H747959   4.696   4.310   0.311  3.2995 -0.2611 -1.1146
  217MOL     H847960   4.717   4.385   0.609  0.5012 -0.0988  1.1065
  217MOL     H947961   4.719   4.567   0.262 -0.0408  1.3840  0.6062
  217MOL    H1047962   4.557   4.572   0.317 -0.6259 -0.7636  4.5313
  217MOL    H1147963   4.660   4.718   0.342 -1.3562  0.9486  0.5412
  217MOL    H1247964   4.760   4.217   0.451 -0.1134 -0.2668 -0.9124
  217MOL    C1347965   4.521   4.371   0.517  0.2795  0.1587  0.3802
  217MOL    C1447966   4.437   4.403   0.642 -0.1562 -0.2599 -0.6092
  217MOL    C1547967   4.403   4.547   0.643 -0.1911  0.4002 -0.2803
  217MOL    O1647968   4.438   4.620   0.733 -0.7374  0.0340 -0.2856
  217MOL    C1747969   4.333   4.599   0.518 -0.4185  0.0333 -0.0477
  217MOL    H1847970   4.476   4.415   0.428 -1.5047  1.1840  1.7465
  217MOL    H1947971   4.516   4.264   0.496 -0.5542 -0.0467  1.5290
  217MOL    H2047972   4.344   4.347   0.631 -0.7368  0.1621  1.8690
  217MOL    H2147973   4.267   4.680   0.549 -1.5764 -1.8055  2.5714
  217MOL    H2247974   4.397   4.638   0.439 -1.3920  0.1037 -0.8095
  217MOL    H2347975   4.265   4.526   0.475  1.3638 -1.0333 -1.1143
  217MOL    C2447976   4.487   4.347   0.773 -0.7947  0.0664  0.0109
  217MOL    C2547977   4.386   4.344   0.890  0.2609 -0.3472 -0.6615
  217MOL    C2647978   4.275   4.239   0.873  0.1227 -0.5864 -0.3364
  217MOL    O2747979   4.293   4.132   0.816 -0.3096  0.2944 -0.0345
  217MOL    C2847980   4.134   4.288   0.925  0.3306 -0.3693  0.2989
  217MOL    H2947981   4.533   4.250   0.750  0.8549  0.9958 -0.7012
  217MOL    H3047982   4.575   4.407   0.795  0.8303 -2.8277  1.6533
  217MOL    H3147983   4.343   4.441   0.915  0.7144 -0.4566  0.6116
  217MOL    H3247984   4.071   4.202   0.947  0.5975 -0.0661  2.3728
  217MOL    H3347985   4.146   4.344   1.018 -0.5618  1.9619 -0.9530
  217MOL    H3447986   4.091   4.348   0.845  1.4510 -1.9942 -1.5826
  217MOL    C3547987   4.461   4.311   1.027 -0.2478  0.0107  1.2077
  217MOL    C3647988   4.515   4.440   1.099 -0.8885  1.1624  0.1366
  217MOL    C3747989   4.401   4.538   1.124  0.7888 -0.1916  0.8403
  217MOL    O3847990   4.297   4.497   1.176 -0.3037 -0.2695  0.5041
  217MOL    C3947991   4.423   4.684   1.093  0.3592  0.2729  0.0113
  217MOL    H4047992   4.543   4.242   1.006  0.0487  1.0365 -1.1202
  217MOL    H4147993   4.396   4.260   1.099  0.3572 -1.8370  0.4756
  217MOL    H4247994   4.593   4.485   1.037  0.2785 -1.2396 -0.2367
  217MOL    H4347995   4.502   4.698   1.020  0.6133 -0.5993  0.1138
  217MOL    H4447996   4.447   4.737   1.186  2.6474  0.1553 -0.4747
  217MOL    H4547997   4.332   4.723   1.047  0.4170  2.2397  1.4551
  217MOL    C4647998   4.586   4.392   1.233 -0.7131 -0.0996 -0.7712
  217MOL    C4747999   4.648   4.507   1.310  0.7520  0.5891  0.6332
  217MOL    C4848000   4.633   4.486   1.464 -0.6600 -0.8537  0.4542
  217MOL    O4948001   4.723   4.439   1.531  0.1058 -0.3691 -0.3273
  217MOL    C5048002   4.508   4.544   1.530 -0.7868  1.0778 -0.1902
  217MOL    H5148003   4.656   4.309   1.226 -0.3286  0.2415 -1.0334
  217MOL    H5248004   4.504   4.349   1.290 -0.4802 -1.6132 -1.5546
  217MOL    H5348005   4.593   4.597   1.283 -0.3186  0.1759  1.4215
  217MOL    H5448006   4.531   4.641   1.575 -0.5267  0.3952  1.1615
  217MOL    H5548007   4.433   4.568   1.455 -1.5739 -0.2986  0.1403
  217MOL    H5648008   4.481   4.481   1.615 -1.1781 -0.2981 -1.3210
  217MOL    C5748009   4.802   4.536   1.273  0.3165 -0.1875 -0.0437
  217MOL    C5848010   4.858   4.673   1.308  0.6228 -1.1929 -0.2547
  217MOL    C5948011   5.013   4.668   1.298 -0.3113  0.4969 -0.2288
  217MOL    O6048012   5.072   4.606   1.214 -0.2811 -0.8526 -0.0528
  217MOL    C6148013   5.090   4.755   1.401 -0.2937 -0.0232  0.1846
  217MOL    H6248014   4.828   4.512   1.170 -0.2785  0.4201 -0.3372
  217MOL    H6348015   4.864   4.468   1.332  0.4696 -0.4506 -0.5088
  217MOL    H6448016   4.834   4.689   1.413  0.5618 -0.8906 -0.3146
  217MOL    H6548017   5.052   4.727   1.499  3.3126  0.3277  1.7640
  217MOL    H6648018   5.197   4.738   1.405  0.1082  2.5146  1.1808
  217MOL    H6748019   5.072   4.860   1.377  2.3852  0.4999  0.3536
  217MOL    C6848020   4.811   4.786   1.214  0.0532 -0.1429  0.2586
  217MOL    C6948021   4.812   4.929   1.268 -0.1573  0.3487 -0.2686
  217MOL    C7048022   4.716   4.925   1.390  0.2347 -0.4872 -0.3638
  217MOL    O7148023   4.602   4.883   1.385 -0.3607  0.1687  0.2526
  217MOL    C7248024   4.766   4.971   1.522  0.4570 -0.1555  0.4565
  217MOL    H7348025   4.877   4.786   1.127  0.6646 -0.5540  0.7181
  217MOL    H7448026   4.712   4.763   1.174 -0.1093 -1.9733  1.6371
  217MOL    H7548027   4.913   4.957   1.296  0.0000 -2.6020  2.4435
  217MOL    H7648028   4.867   4.935   1.541  1.5028  3.3761  2.0716
  217MOL    H7748029   4.783   5.078   1.530 -0.0446  0.1668 -2.4214
  217MOL    H7848030   4.701   4.928   1.598  2.6378 -1.0411  1.8810
  217MOL    C7948031   4.761   5.023   1.155 -0.0091 -0.0846 -0.3137
  217MOL    C8048032   4.778   5.171   1.177 -0.4738 -0.1568  0.9371
  217MOL    C8148033   4.673   5.231   1.271  0.5574 -0.0670 -0.6516
  217MOL    O8248034   4.704   5.291   1.377 -0.0764 -0.2861  0.3202
  217MOL    C8348035   4.528   5.235   1.224 -0.5797  0.2098 -0.2259
  217MOL    H8448036   4.659   4.998   1.126  0.2852 -1.2326 -0.4013
  217MOL    H8548037   4.837   5.002   1.080  1.2568 -1.0649  1.2096
  217MOL    H8648038   4.874   5.169   1.229  0.1267 -1.2192 -0.1767
  217MOL    H8748039   4.461   5.257   1.307  0.8064 -0.3435  1.0651
  217MOL    H8848040   4.497   5.148   1.166  2.2025 -0.7406 -0.3792
  217MOL    H8948041   4.518   5.326   1.165 -0.2089  1.0279  0.9530
  217MOL    C9048042   4.796   5.243   1.037  0.0703 -0.5161  0.2828
  217MOL    C9148043   4.795   5.397   1.043  0.7592 -0.4677  0.0397
  217MOL    C9248044   4.915   5.449   1.120 -0.0213  0.0716 -0.1536
  217MOL    O9348045   5.029   5.412   1.094  0.4326  0.0264 -0.5262
  217MOL    C9448046   4.896   5.573   1.208 -0.9691  0.1347 -0.3358
  217MOL    H9548047   4.887   5.213   0.986 -1.3484 -2.0394 -1.4118
  217MOL    H9648048   4.709   5.210   0.981 -0.5211 -0.3218  1.0783
  217MOL    H9748049   4.704   5.425   1.095  1.3767 -0.4176  1.0935
  217MOL    H9848050   4.840   5.547   1.299 -1.9114 -2.3989 -1.5935
  217MOL    H9948051   4.991   5.616   1.239  0.0591 -2.5274  0.4081
  217MOL   H10048052   4.842   5.657   1.164  0.2987  1.9866  1.5335
  217MOL   C10148053   4.793   5.458   0.897 -0.0101  0.7259 -0.9779
  217MOL   C10248054   4.746   5.606   0.880  0.1526  0.5858  0.5226
  217MOL   C10348055   4.591   5.608   0.907 -0.2562  0.1631  0.1025
  217MOL   O10448056   4.537   5.590   1.016 -0.2974 -0.3890  0.2754
  217MOL   C10548057   4.503   5.589   0.787  0.6233 -0.4624 -0.7368
  217MOL   H10648058   4.890   5.450   0.849  0.9249  2.0311  0.6265
  217MOL   H10748059   4.732   5.386   0.842  0.4612  0.6745 -1.4356
  217MOL   H10848060   4.797   5.647   0.967  1.2599 -2.7242  1.5075
  217MOL   H10948061   4.514   5.670   0.715 -2.7704  1.2042  0.5159
  217MOL   H11048062   4.525   5.489   0.750 -2.2487 -1.5542  0.3555
  217MOL   H11148063   4.396   5.596   0.809  1.0064  2.5840  0.3867
  217MOL   C11248064   4.806   5.678   0.758 -0.3099  0.2873 -0.1887
  217MOL   C11348065   4.789   5.828   0.758 -0.5638 -1.6271  0.1212
  217MOL   C11448066   4.837   5.884   0.621  0.0506  0.3593 -0.5733
  217MOL   O11548067   4.945   5.940   0.612  0.2464 -0.4338  0.2592
  217MOL   C11648068   4.738   5.893   0.502 -0.3427 -0.3547 -0.0901
  217MOL   H11748069   4.771   5.631   0.666 -1.7089  1.4102 -0.2472
  217MOL   H11848070   4.912   5.659   0.772 -1.0134 -4.0965 -0.0769
  217MOL   H11948071   4.681   5.841   0.771 -0.5687 -1.0186 -0.5588
  217MOL   H12048072   4.790   5.931   0.415  0.3284 -0.6060  0.2008
  217MOL   H12148073   4.697   5.794   0.481  1.1580 -1.3743  1.6655
  217MOL   H12248074   4.653   5.959   0.522 -1.8442 -2.3371  0.2593
  217MOL   C12348075   4.851   5.902   0.879  0.5908 -0.3851  0.1966
  217MOL   C12448076   4.763   5.923   1.005  0.0647 -0.5006  0.3211
  217MOL   C12548077   4.629   5.984   0.973 -0.0126 -0.4311 -0.1250
  217MOL   O12648078   4.522   5.925   0.992 -0.2367  0.3920  0.0278
  217MOL   C12748079   4.623   6.122   0.908  0.3733 -0.2042  0.4050
  217MOL   H12848080   4.897   5.994   0.842  1.4645 -0.6109  0.7034
  217MOL   H12948081   4.940   5.850   0.916  0.7614  0.3298  0.8008
  217MOL   H13048082   4.742   5.822   1.042  0.8282 -0.7468  0.0793
  217MOL   H13148083   4.570   6.192   0.972  1.5802  1.9399 -0.8920
  217MOL   H13248084   4.567   6.094   0.819  0.8130  0.3344 -0.0430
  217MOL   H13348085   4.717   6.163   0.872  0.1496  0.7480  0.8901
  217MOL   C13448086   4.833   5.996   1.122  0.1819  0.0980  0.3677
  217MOL   C13548087   4.761   6.019   1.250 -0.0535  0.8114 -0.0452
  217MOL   C13648088   4.745   5.881   1.323  0.1536  0.4057 -0.1024
  217MOL   O13748089   4.839   5.831   1.385  0.0407  0.3925 -0.0434
  217MOL   C13848090   4.603   5.811   1.331  0.1002 -0.4210 -0.1293
  217MOL   H13948091   4.859   6.094   1.081  4.2420 -0.8722  0.3754
  217MOL   H14048092   4.931   5.956   1.149  0.0603  0.7979  1.8897
  217MOL   H14148093   4.657   6.037   1.224  0.0274 -0.0401 -1.0088
  217MOL   H14248094   4.537   5.829   1.246  2.2029  1.3597 -1.4144
  217MOL   H14348095   4.549   5.835   1.423  1.7876  1.1065  0.4861
  217MOL   H14448096   4.633   5.707   1.326  1.8826  0.1214 -1.0493
  217MOL   C14548097   4.826   6.142   1.325  0.0275  0.7772  0.2035
  217MOL   C14648098   4.741   6.185   1.452 -0.3332  0.4061 -0.2381
  217MOL   C14748099   4.833   6.266   1.542 -0.0133  0.5018 -0.9285
  217MOL   O14848100   4.822   6.387   1.557  0.4632  0.0538  0.2383
  217MOL   C14948101   4.931   6.195   1.634  0.0633  0.0549  0.2490
  217MOL   H15048102   4.818   6.215   1.245 -2.1296  1.4201  0.9796
  217MOL   H15148103   4.930   6.117   1.344 -0.1165 -0.7586 -0.8985
  217MOL   H15248104   4.700   6.094   1.496  0.5779  0.3743  0.5735
  217MOL   H15348105   4.931   6.088   1.615 -0.0848  0.0976  0.0120
  217MOL   H15448106   5.034   6.228   1.621  0.9893 -1.7217  2.5255
  217MOL   H15548107   4.906   6.213   1.739 -0.4292  0.4097  0.0723
  217MOL   C15648108   4.622   6.273   1.409 -0.7431 -0.0103  0.5139
  217MOL   C15748109   4.494   6.270   1.503  0.2880  0.2715 -0.0383
  217MOL   C15848110   4.416   6.140   1.492 -0.4811  1.0445  0.5658
  217MOL   O15948111   4.430   6.066   1.395  0.4127 -0.1496  0.1054
  217MOL   C16048112   4.318   6.109   1.610 -0.5368  0.2447  0.1782
  217MOL   H16148113   4.650   6.377   1.396 -1.0882 -0.1737 -1.7496
  217MOL   H16248114   4.589   6.244   1.309  2.9981 -1.2171 -0.4562
  217MOL   H16348115   4.522   6.276   1.608  1.5255 -1.1551 -0.2848
  217MOL   H16448116   4.217   6.146   1.592 -0.4752 -0.3211 -1.4762
  217MOL   H16548117   4.353   6.164   1.697 -0.6054  1.2132 -0.3957
  217MOL   H16648118   4.319   6.004   1.639 -1.1660  0.4361  0.8982
  217MOL   C16748119   4.393   6.377   1.453 -0.1518  0.4140 -0.3080
  217MOL   C16848120   4.425   6.521   1.485  0.3099  0.3837  0.9523
  217MOL   C16948121   4.409   6.551   1.635  0.1916 -1.4229 -0.5567
  217MOL   O17048122   4.298   6.554   1.687 -0.9674  0.4916  0.1025
  217MOL   C17148123   4.540   6.569   1.725  0.6837  0.0610 -0.5012
  217MOL   H17248124   4.367   6.367   1.348  0.7188 -1.6146 -0.3533
  217MOL   H17348125   4.290   6.361   1.486 -0.1917 -1.3694 -1.2373
  217MOL   H17448126   4.533   6.525   1.467 -0.0636  1.6806 -1.2533
  217MOL   H17548127   4.626   6.607   1.672  0.7495  1.4392  0.5761
  217MOL   H17648128   4.564   6.475   1.775  0.1771 -0.3704 -1.0507
  217MOL   H17748129   4.515   6.649   1.795  1.3841  2.3849 -2.8644
  217MOL   C17848130   4.352   6.620   1.384 -0.0111 -0.9160 -0.7080
  217MOL   C17948131   4.426   6.689   1.275 -0.4924 -0.3130 -0.1446
  217MOL   C18048132   4.477   6.592   1.172 -0.9687 -0.5320  0.5549
  217MOL   O18148133   4.596   6.549   1.178  0.7996 -0.3945 -0.1415
  217MOL   C18248134   4.377   6.535   1.071  0.4618  0.2616 -0.3013
  217MOL   H18348135   4.265   6.576   1.334  1.2368 -0.7912 -3.0382
  217MOL   H18448136   4.318   6.703   1.446 -2.4993 -2.1422 -0.3354
  217MOL   H18548137   4.357   6.754   1.221  1.4763  2.0540  0.1176
  217MOL   H18648138   4.414   6.490   0.978  0.7177 -1.2115  0.4997
  217MOL   H18748139   4.305   6.609   1.038  2.3193  1.7790 -1.0165
  217MOL   H18848140   4.317   6.460   1.123 -0.2134  1.1823  0.2508
  217MOL   C18948141   4.540   6.778   1.337 -0.6915  0.4102  0.0722
  217MOL   C19048142   4.608   6.870   1.229 -0.3399 -0.9509 -0.0415
  217MOL   C19148143   4.504   6.964   1.154 -0.5166  0.0780 -0.0148
  217MOL   O19248144   4.399   6.994   1.202  0.1929  0.3825 -0.4151
  217MOL   C19348145   4.537   7.013   1.013  0.5210  0.2968 -0.1534
  217MOL   H19448146   4.491   6.846   1.406  1.0970 -0.1829  2.0005
  217MOL   H19548147   4.605   6.720   1.403 -0.0486  0.3779 -0.5855
  217MOL   H19648148   4.645   6.807   1.148  1.3184  0.0582 -0.0897
  217MOL   H19748149   4.596   7.104   1.015 -1.6780  1.7245  1.1785
  217MOL   H19848150   4.593   6.934   0.963  0.4771  0.1269  0.0645
  217MOL   H19948151   4.445   7.036   0.959  1.6071  1.2480 -1.6153
  217MOL   C20048152   4.732   6.940   1.299 -0.3428 -0.3320 -0.2045
  217MOL   C20148153   4.839   6.985   1.201  0.7219  0.4875 -0.4622
  217MOL   C20248154   4.910   6.868   1.122 -0.7083 -0.1213  0.0883
  217MOL   O20348155   4.918   6.865   0.999 -0.7209 -0.3692 -0.2498
  217MOL   C20448156   4.979   6.763   1.206  0.5860 -0.2277  0.7269
  217MOL   H20548157   4.694   7.021   1.362 -0.8311  0.8136 -1.9368
  217MOL   H20648158   4.780   6.866   1.363  0.9791 -1.0784 -2.0131
  217MOL   H20748159   4.792   7.047   1.125 -1.0444  0.0288  0.2443
  217MOL   H20848160   4.911   6.683   1.235 -1.2185  0.9587 -0.1144
  217MOL   H20948161   5.063   6.737   1.141  0.3433 -0.9193  0.6845
  217MOL   H21048162   5.012   6.811   1.298  0.4013 -0.0894  0.7237
  217MOL   C21148163   4.945   7.075   1.271  0.3014  1.1232 -0.9463
  217MOL   C21248164   5.024   7.153   1.165 -0.0667 -0.0726  0.3957
  217MOL   C21348165   4.964   7.259   1.070 -0.3967  0.5194 -0.5220
  217MOL   O21448166   4.843   7.269   1.075 -1.3171 -1.0170  0.3460
  217MOL   C21548167   5.060   7.331   0.975 -0.0370 -0.5710 -0.3682
  217MOL   H21648168   4.901   7.137   1.349 -0.4086 -0.9642  0.3612
  217MOL   H21748169   5.011   7.006   1.324 -1.7941 -0.4373 -0.2706
  217MOL   H21848170   5.077   7.077   1.108 -0.1321  1.4060 -1.6606
  217MOL   H21948171   5.003   7.399   0.911  0.3888 -0.8823 -1.0862
  217MOL   H22048172   5.137   7.391   1.025  1.0830 -2.2467 -0.0557
  217MOL   H22148173   5.106   7.257   0.910 -1.3505 -2.8585  1.2520
  217MOL   H22248174   5.090   7.208   1.233 -0.1404  0.0253  0.3874
  218MOL     C148175   1.292   0.185   0.518  0.7455 -0.0249  0.6330
  218MOL     C248176   1.341   0.082   0.425 -0.0690 -0.5937 -0.0810
  218MOL     C348177   1.220   0.023   0.349  0.4168  0.0515 -0.3383
  218MOL     O448178   1.173   0.069   0.242  0.3454 -0.8339  0.2342
  218MOL     C548179   1.152   7.756   0.405  0.0628 -0.2720 -0.0724
  218MOL     H648180   1.372   0.212   0.586  1.6214 -0.4623 -0.2148
  218MOL     H748181   1.213   0.149   0.584  0.9985  0.4411  1.1846
  218MOL     H848182   1.381   7.856   0.483 -0.2119 -0.1254  0.7040
  218MOL     H948183   1.208   7.735   0.496  3.8410  0.4564 -2.1427
  218MOL    H1048184   1.055   7.764   0.455  0.3520  1.4753  0.2671
  218MOL    H1148185   1.149   7.671   0.338 -2.4518 -0.9121  0.8008
  218MOL    H1248186   1.250   0.272   0.467 -0.4605 -0.3539  1.0282
  218MOL    C1348187   1.459   0.127   0.332  0.3594  0.3207  0.4477
  218MOL    C1448188   1.483   0.064   0.187  0.4414  1.0265 -0.0150
  218MOL    C1548189   1.532   7.781   0.208  0.0852  0.2200  0.1626
  218MOL    O1648190   1.640   7.756   0.254 -0.3187  0.0815 -0.1447
  218MOL    C1748191   1.432   7.668   0.167  0.8827 -0.3971 -0.2311
  218MOL    H1848192   1.438   0.232   0.312 -0.4024 -0.0689 -0.8748
  218MOL    H1948193   1.555   0.124   0.383  1.2828  1.3648 -1.1760
  218MOL    H2048194   1.397   0.061   0.120  0.7192 -0.4960 -0.3371
  218MOL    H2148195   1.404   7.602   0.249 -2.2547  0.5372 -0.4929
  218MOL    H2248196   1.338   7.703   0.126  0.3135  0.1275  1.4682
  218MOL    H2348197   1.474   7.604   0.089 -2.4048 -0.6479 -1.8876
  218MOL    C2448198   1.587   0.157   0.122  0.2060 -0.0521  0.0905
  218MOL    C2548199   1.647   0.123   7.836 -0.3797  0.3386 -0.2668
  218MOL    C2648200   1.555   0.164   7.714  0.5364  0.8591 -0.0113
  218MOL    O2748201   1.463   0.089   7.672  0.2813 -0.4043 -0.3990
  218MOL    C2848202   1.562   0.306   7.666  0.9392 -0.1948 -0.5196
  218MOL    H2948203   1.546   0.257   0.110  2.0927  0.9068  1.6016
  218MOL    H3048204   1.664   0.166   0.198 -0.2326  0.3711  0.4914
  218MOL    H3148205   1.642   0.014   7.841  2.5887  0.1576 -0.7991
  218MOL    H3248206   1.654   0.354   7.698 -0.6830  1.9206  1.1898
  218MOL    H3348207   1.576   0.313   7.558 -0.7199  1.2342 -0.6754
  218MOL    H3448208   1.475   0.361   7.702  1.5273 -0.2723  1.0514
  218MOL    C3548209   1.794   0.165   7.827 -0.4092 -0.6793  0.0214
  218MOL    C3648210   1.892   0.058   0.027 -0.1672  0.0110  0.1831
  218MOL    C3748211   1.897   7.791   7.791 -0.2138 -0.0984 -0.0052
  218MOL    O3848212   1.867   7.804   7.674 -0.5291  0.3885 -0.2174
  218MOL    C3948213   1.921   7.661   7.853 -0.3711  0.2357  0.8154
  218MOL    H4048214   1.799   0.255   0.030 -2.4596 -2.0366  2.2977
  218MOL    H4148215   1.830   0.184   7.726  0.4623 -0.9838  0.2728
  218MOL    H4248216   1.835   0.022   0.114  0.1697 -0.3302  0.2649
  218MOL    H4348217   1.989   7.614   7.782 -2.2332  0.3730 -1.1079
  218MOL    H4448218   1.826   7.609   7.848  0.0145 -0.4932  0.9885
  218MOL    H4548219   1.952   7.669   0.099 -1.6978  1.1280  1.1546
  218MOL    C4648220   2.031   0.107   0.064 -0.0824  0.1735 -0.0817
  218MOL    C4748221   2.039   0.194   0.188  0.6132 -0.4072 -0.2403
  218MOL    C4848222   2.039   0.109   0.322  0.1694 -0.7570 -0.1190
  218MOL    O4948223   2.142   0.076   0.387  0.0357 -0.0313 -0.1181
  218MOL    C5048224   1.910   0.082   0.380  0.0297  0.1852  0.3457
  218MOL    H5148225   2.067   0.161   7.834  3.3949 -1.8336  0.0105
  218MOL    H5248226   2.107   0.029   0.054  0.7140  0.5769  2.4491
  218MOL    H5348227   1.947   0.253   0.191  0.4071 -0.8037  1.1693
  218MOL    H5448228   1.825   0.142   0.348  0.8596  1.3647  0.3440
  218MOL    H5548229   1.899   7.832   0.365  0.7142  0.2250 -0.5028
  218MOL    H5648230   1.923   0.089   0.488 -1.1341 -0.3019  0.5244
  218MOL    C5748231   2.160   0.293   0.184 -0.2261 -0.2272  0.5332
  218MOL    C5848232   2.162   0.409   0.285  0.6181  0.3371 -0.2145
  218MOL    C5948233   2.236   0.372   0.414  0.2340 -0.6036 -0.3238
  218MOL    O6048234   2.354   0.362   0.425  0.3642  0.2486 -0.4653
  218MOL    C6148235   2.151   0.371   0.539  0.4081 -0.0740 -0.0267
  218MOL    H6248236   2.156   0.325   0.080 -2.1678  0.1706  0.7025
  218MOL    H6348237   2.249   0.231   0.189  0.4414  0.6448 -0.4805
  218MOL    H6448238   2.061   0.437   0.317  0.7045  1.4385 -0.8812
  218MOL    H6548239   2.207   0.346   0.629 -1.8425 -1.9478  0.8803
  218MOL    H6648240   2.112   0.472   0.553  0.0439 -0.4341  1.5685
  218MOL    H6748241   2.067   0.302   0.533 -0.6586  1.2616 -0.9540
  218MOL    C6848242   2.218   0.537   0.222 -0.4150  0.2255  0.5353
  218MOL    C6948243   2.222   0.675   0.295 -0.2815 -0.0456  0.2058
  218MOL    C7048244   2.081   0.709   0.341  0.5180  0.3122 -0.0346
  218MOL    O7148245   1.977   0.661   0.290  0.2404  0.1807  0.0103
  218MOL    C7248246   2.063   0.807   0.453 -0.1310  0.7107 -1.1351
  218MOL    H7348247   2.321   0.514   0.193 -1.1858  0.3461 -2.4616
  218MOL    H7448248   2.168   0.559   0.128  3.2086 -0.3241 -1.6404
  218MOL    H7548249   2.283   0.669   0.386 -0.7665 -1.1020  0.4757
  218MOL    H7648250   2.111   0.898   0.416  1.0075  0.4197 -0.4038
  218MOL    H7748251   1.959   0.827   0.476  0.2974 -1.0909  2.6974
  218MOL    H7848252   2.124   0.777   0.538  0.0513 -1.5563 -2.0177
  218MOL    C7948253   2.279   0.778   0.196  0.0632  1.2374 -0.3688
  218MOL    C8048254   2.429   0.792   0.200 -0.2857 -0.0545 -0.0401
  218MOL    C8148255   2.484   0.854   0.334 -0.8529  0.1955  0.3597
  218MOL    O8248256   2.405   0.901   0.415  0.0616  0.5472 -0.6573
  218MOL    C8348257   2.628   0.871   0.367  0.4194  0.0967  0.2099
  218MOL    H8448258   2.236   0.874   0.227  0.2220  1.2729 -0.2613
  218MOL    H8548259   2.239   0.756   0.097 -1.3947  1.8573  0.0610
  218MOL    H8648260   2.485   0.698   0.192 -2.0273 -1.1275  0.0759
  218MOL    H8748261   2.659   0.975   0.354 -1.7792  0.8839  1.0062
  218MOL    H8848262   2.692   0.803   0.310  1.9031  1.7309 -0.1188
  218MOL    H8948263   2.637   0.842   0.471  0.1041  0.9532  0.4809
  218MOL    C9048264   2.489   0.868   0.078 -0.3601 -0.6074 -0.2883
  218MOL    C9148265   2.618   0.797   0.015  0.0159 -0.4597 -0.4525
  218MOL    C9248266   2.583   0.740   7.734  0.8479  0.1475 -0.1292
  218MOL    O9348267   2.646   0.760   7.634 -0.2766 -0.4123  0.0529
  218MOL    C9448268   2.475   0.630   7.732  0.5284 -0.2159  0.4074
  218MOL    H9548269   2.415   0.894   0.003  0.2221 -0.0991 -0.6977
  218MOL    H9648270   2.519   0.969   0.107 -2.4050 -0.0266 -0.1512
  218MOL    H9748271   2.654   0.721   0.084  0.9180  0.7245  0.3895
  218MOL    H9848272   2.392   0.662   7.669  2.4234  1.5138 -1.3087
  218MOL    H9948273   2.519   0.542   7.685 -1.4870 -1.1095  0.1192
  218MOL   H10048274   2.450   0.598   7.832  1.9190 -0.8135  0.5769
  218MOL   C10148275   2.726   0.899   7.854 -0.2019 -1.2283 -0.4802
  218MOL   C10248276   2.869   0.840   7.830  0.6025  0.2451  0.5181
  218MOL   C10348277   2.915   0.745   0.071 -0.0926  0.0118  0.1465
  218MOL   O10448278   2.871   0.738   0.185  0.2587 -0.2826  0.2921
  218MOL   C10548279   3.029   0.647   0.028 -0.1469  0.0520  0.0509
  218MOL   H10648280   2.694   0.982   7.791  0.6876  2.3857  3.6586
  218MOL   H10748281   2.736   0.952   0.091  0.2502  0.7263 -1.5921
  218MOL   H10848282   2.864   0.777   7.742 -0.7260  0.6042  0.3254
  218MOL   H10948283   3.006   0.595   7.793 -0.2498 -0.3364  0.2930
  218MOL   H11048284   3.124   0.700   0.017  0.7228 -1.4640  0.1450
  218MOL   H11148285   3.052   0.576   0.108 -2.2869 -1.1469 -0.3713
  218MOL   C11248286   2.968   0.954   7.825 -0.3875 -0.6660  0.2888
  218MOL   C11348287   2.968   1.029   7.687  0.2167 -0.0828 -0.1307
  218MOL   C11448288   3.026   0.928   7.586 -0.5132  0.7334 -0.0314
  218MOL   O11548289   3.130   0.869   7.601 -0.0543 -0.1633  0.8415
  218MOL   C11648290   2.929   0.887   7.471 -1.2268 -0.0144 -0.3433
  218MOL   H11748291   3.067   0.929   0.007 -0.6692  0.3127  1.6551
  218MOL   H11848292   2.946   1.021   0.050 -1.2715 -1.3505  0.6087
  218MOL   H11948293   2.866   1.053   7.658 -0.1542 -0.1606  1.0892
  218MOL   H12048294   2.824   0.908   7.491 -0.7877  1.8388  0.0998
  218MOL   H12148295   2.961   0.955   7.392  2.2241  0.3333  1.2524
  218MOL   H12248296   2.944   0.784   7.439  1.1800  0.4820 -0.9403
  218MOL   C12348297   3.049   1.159   7.704 -0.3392  0.4617  0.5594
  218MOL   C12448298   3.057   1.254   7.575  0.1329 -0.0723  0.5080
  218MOL   C12548299   3.156   1.367   7.599  0.8639 -0.0055 -0.0365
  218MOL   O12648300   3.174   1.419   7.710 -0.4540 -0.2782 -0.6352
  218MOL   C12748301   3.241   1.413   7.483 -0.3777  0.3811  0.6165
  218MOL   H12848302   3.149   1.144   7.745  0.2810 -0.5358 -1.2565
  218MOL   H12948303   2.996   1.210   7.784  1.4433 -2.0425  3.4205
  218MOL   H13048304   3.103   1.189   7.500  1.0209  0.9805  0.1340
  218MOL   H13148305   3.318   1.490   7.487  0.3280 -0.2673 -0.2161
  218MOL   H13248306   3.185   1.444   7.395  1.8298  1.6680 -0.3829
  218MOL   H13348307   3.302   1.326   7.459  0.1229  0.0818  2.8748
  218MOL   C13448308   2.914   1.310   7.539 -0.2393 -0.2157  0.4329
  218MOL   C13548309   2.911   1.403   7.414  0.3660  0.0675 -0.1971
  218MOL   C13648310   2.930   1.334   7.275 -0.6358 -0.1918  0.3293
  218MOL   O13748311   2.888   1.219   7.252  0.5972  0.3505  0.2373
  218MOL   C13848312   3.016   1.401   7.171  0.4868 -0.5932 -0.4268
  218MOL   H13948313   2.871   1.367   7.622  2.3661  1.5730  0.6326
  218MOL   H14048314   2.831   1.242   7.523 -1.0794  1.3156 -1.9163
  218MOL   H14148315   2.992   1.472   7.434 -0.1248  1.7133 -3.5607
  218MOL   H14248316   3.120   1.395   7.205  0.0571  0.8394  1.1878
  218MOL   H14348317   2.997   1.508   7.173  2.1212 -0.3049  0.6815
  218MOL   H14448318   3.014   1.353   7.073  1.7879 -1.7621  0.1037
  218MOL   C14548319   2.790   1.491   7.426  0.5667  0.0222 -0.3015
  218MOL   C14648320   2.654   1.433   7.402  0.0205 -0.0039  0.2442
  218MOL   C14748321   2.587   1.370   7.527 -0.1302 -0.1798  0.2393
  218MOL   O14848322   2.581   1.248   7.537  0.0192  0.9251 -0.5395
  218MOL   C14948323   2.540   1.461   7.636 -0.3343 -0.3990  0.1071
  218MOL   H15048324   2.809   1.567   7.350  0.5575 -0.9570 -1.2827
  218MOL   H15148325   2.796   1.551   7.517 -0.5057 -1.2015  0.5885
  218MOL   H15248326   2.670   1.355   7.328  1.4699  0.4748  0.0530
  218MOL   H15348327   2.431   1.456   7.642 -0.4890 -0.2987 -2.3777
  218MOL   H15448328   2.594   1.437   7.728 -1.1689 -2.3878  0.1233
  218MOL   H15548329   2.576   1.561   7.615 -0.0412 -0.2850  1.1254
  218MOL   C15648330   2.568   1.542   7.334 -0.6235  1.0794  0.4890
  218MOL   C15748331   2.416   1.526   7.326 -0.5176  0.0935 -0.5934
  218MOL   C15848332   2.393   1.395   7.236 -0.0952  0.4793 -1.0948
  218MOL   O15948333   2.482   1.341   7.171 -0.1296 -0.3511 -0.0788
  218MOL   C16048334   2.248   1.352   7.223  0.1158 -0.4281 -0.5353
  218MOL   H16148335   2.588   1.636   7.384  0.2803  0.9796  0.3190
  218MOL   H16248336   2.605   1.557   7.233  2.8687 -0.3958  1.5046
  218MOL   H16348337   2.369   1.510   7.423 -0.3989 -0.9093 -0.6949
  218MOL   H16448338   2.247   1.244   7.216 -1.0480 -0.3713 -1.4013
  218MOL   H16548339   2.203   1.398   7.134 -0.5385 -1.5925 -0.8127
  218MOL   H16648340   2.200   1.388   7.314 -0.4995 -2.0581 -0.1950
  218MOL   C16748341   2.351   1.649   7.258 -0.7446  0.0849  0.2419
  218MOL   C16848342   2.338   1.781   7.344  0.1611 -0.0984 -0.4982
  218MOL   C16948343   2.257   1.764   7.468  0.2860 -0.7070  0.4930
  218MOL   O17048344   2.165   1.681   7.478 -0.3558  0.1652  0.1932
  218MOL   C17148345   2.289   1.870   7.577  0.0833 -0.3604  0.0402
  218MOL   H17248346   2.393   1.667   7.159 -0.4119  0.0896  0.3823
  218MOL   H17348347   2.245   1.634   7.240 -0.7795  0.5749  0.0424
  218MOL   H17448348   2.437   1.817   7.374  1.0187 -1.3607 -1.7372
  218MOL   H17548349   2.312   1.812   7.666  2.9668  2.2833  1.0925
  218MOL   H17648350   2.207   1.940   7.589  1.5523  1.1906  1.3263
  218MOL   H17748351   2.371   1.937   7.549  0.3311  0.3313  2.3058
  218MOL   C17848352   2.275   1.890   7.254 -0.0105 -0.5309 -0.2166
  218MOL   C17948353   2.380   1.979   7.181 -0.1183 -0.5215  0.2714
  218MOL   C18048354   2.483   2.042   7.268 -0.3825 -0.2092 -0.1201
  218MOL   O18148355   2.606   2.016   7.250 -0.1220 -0.0470  0.6051
  218MOL   C18248356   2.439   2.157   7.363  0.5375  0.1616 -0.4240
  218MOL   H18348357   2.201   1.845   7.187  2.1727 -1.5145 -2.0530
  218MOL   H18448358   2.230   1.957   7.326  0.4887 -1.6209  1.1308
  218MOL   H18548359   2.438   1.923   7.107 -0.4210  1.0327 -1.1723
  218MOL   H18648360   2.521   2.206   7.416 -0.8971  0.8677  1.1875
  218MOL   H18748361   2.383   2.111   7.444 -0.3710  0.8595 -0.6486
  218MOL   H18848362   2.377   2.233   7.316 -0.3501  0.6416  1.4844
  218MOL   C18948363   2.310   2.078   7.084  0.4518  0.1217  0.6807
  218MOL   C19048364   2.393   2.170   6.994 -0.3611 -0.2583  0.2695
  218MOL   C19148365   2.458   2.089   6.871  0.5341  0.1235  0.4678
  218MOL   O19248366   2.389   2.062   6.774  0.0354 -0.0097  0.3722
  218MOL   C19348367   2.595   2.027   6.892 -0.4294  0.2579 -0.1945
  218MOL   H19448368   2.239   2.022   7.022  0.1708  1.8962 -0.6163
  218MOL   H19548369   2.243   2.141   7.143  1.5156  3.4504 -1.5576
  218MOL   H19648370   2.465   2.220   7.059 -0.1211  2.2800 -1.8612
  218MOL   H19748371   2.588   1.934   6.948  1.9810 -0.2722 -0.7229
  218MOL   H19848372   2.652   2.006   6.802 -0.1943 -0.4322  0.1079
  218MOL   H19948373   2.650   2.107   6.943 -0.3332 -0.4595  0.8562
  218MOL   C20048374   2.307   2.294   6.941 -0.4151  0.7532 -1.1418
  218MOL   C20148375   2.367   2.438   6.952  0.3511 -0.3125 -0.0092
  218MOL   C20248376   2.508   2.456   6.899 -0.3535 -0.3319  0.3945
  218MOL   O20348377   2.595   2.374   6.903 -0.6785 -0.2117  0.1112
  218MOL   C20448378   2.554   2.593   6.850  0.2249 -0.2886 -0.5991
  218MOL   H20548379   2.290   2.267   6.837  1.3546 -2.2557 -0.7185
  218MOL   H20648380   2.214   2.291   6.998 -0.1252  0.1761 -0.6992
  218MOL   H20748381   2.301   2.488   6.881 -0.2323  2.4431  2.4097
  218MOL   H20848382   2.614   2.648   6.921  0.0035 -2.0900  1.0375
  218MOL   H20948383   2.610   2.570   6.759  1.1389  1.0813 -0.3834
  218MOL   H21048384   2.473   2.656   6.813 -0.3513  0.8118  2.4160
  218MOL   C21148385   2.356   2.499   7.098  0.0084  0.5248  0.1751
  218MOL   C21248386   2.224   2.571   7.120  0.4233 -0.7447  0.2935
  218MOL   C21348387   2.217   2.701   7.041 -0.7155 -0.2115 -0.0739
  218MOL   O21448388   2.325   2.757   7.009  0.2742 -0.5388  0.4389
  218MOL   C21548389   2.079   2.771   7.035 -0.2447 -0.4858  0.5073
  218MOL   H21648390   2.348   2.416   7.169 -0.1560  0.1547 -0.2749
  218MOL   H21748391   2.441   2.558   7.132  1.0735 -1.8941  1.9348
  218MOL   H21848392   2.202   2.584   7.226 -0.3907 -1.7683  0.2535
  218MOL   H21948393   2.058   2.819   6.939 -0.4573 -1.8619 -0.1403
  218MOL   H22048394   2.011   2.687   7.049 -2.4293  0.6567 -2.7434
  218MOL   H22148395   2.071   2.848   7.111  0.5200  1.1695 -1.0431
  218MOL   H22248396   2.148   2.501   7.085  0.7394 -1.2321  0.5697
  219MOL     C148397   3.970   1.670   2.245 -0.1331 -0.6253 -0.6107
  219MOL     C248398   4.082   1.581   2.309  0.7085 -0.3560  0.0815
  219MOL     C348399   4.024   1.498   2.421  0.2042  0.0737  0.8013
  219MOL     O448400   4.036   1.376   2.428  0.5221  0.1131 -0.3940
  219MOL     C548401   3.948   1.573   2.528 -0.1865 -0.0606  0.5917
  219MOL     H648402   3.887   1.601   2.228  0.4483 -1.2935 -0.7615
  219MOL     H748403   3.998   1.705   2.145 -1.1746  2.2539  0.0741
  219MOL     H848404   4.155   1.650   2.351 -0.2529  0.2998  0.6926
  219MOL     H948405   3.872   1.638   2.484  0.0728 -1.5518 -2.1623
  219MOL    H1048406   3.911   1.500   2.600  1.5187 -0.5015  1.0250
  219MOL    H1148407   4.015   1.644   2.576 -0.8954  1.9167 -1.2713
  219MOL    H1248408   3.938   1.758   2.302  1.4165 -0.1374 -0.4663
  219MOL    C1348409   4.155   1.502   2.200 -1.1534  0.3224  0.1766
  219MOL    C1448410   4.290   1.551   2.148 -0.5665 -0.1265 -0.5787
  219MOL    C1548411   4.393   1.545   2.260 -0.5063  0.3647 -0.2971
  219MOL    O1648412   4.396   1.640   2.342 -0.2472 -0.2068  0.0543
  219MOL    C1748413   4.486   1.418   2.276 -0.0439  0.0620 -0.1101
  219MOL    H1848414   4.161   1.395   2.224  0.8347  0.3708 -0.0281
  219MOL    H1948415   4.083   1.485   2.119 -0.1977  1.2350 -0.8790
  219MOL    H2048416   4.322   1.468   2.086  1.1080  1.2301 -1.5795
  219MOL    H2148417   4.439   1.321   2.259 -0.5084  0.1925  0.4101
  219MOL    H2248418   4.574   1.439   2.215  0.2144 -0.9716 -0.1028
  219MOL    H2348419   4.507   1.417   2.383 -1.8727  0.0128  0.2718
  219MOL    C2448420   4.280   1.691   2.080  0.3943  0.2875  0.1843
  219MOL    C2548421   4.411   1.742   2.012  0.4374 -0.2610  0.2846
  219MOL    C2648422   4.457   1.643   1.907  0.2596  0.4645 -0.5512
  219MOL    O2748423   4.395   1.616   1.810  0.6604  1.0865  0.3211
  219MOL    C2848424   4.595   1.583   1.917  0.1276 -0.1507  0.1149
  219MOL    H2948425   4.205   1.670   2.004  0.3270  0.2430  0.2626
  219MOL    H3048426   4.242   1.760   2.156  0.0266 -0.4849  0.7068
  219MOL    H3148427   4.494   1.745   2.082  0.2765  0.1627  0.4536
  219MOL    H3248428   4.666   1.640   1.857 -1.4569  2.6923  0.8641
  219MOL    H3348429   4.621   1.586   2.023 -0.9412  0.0062  0.3773
  219MOL    H3448430   4.598   1.481   1.879 -0.4645  0.4225 -1.4888
  219MOL    C3548431   4.388   1.878   1.949 -0.3559 -0.6450  0.8177
  219MOL    C3648432   4.360   2.000   2.047  0.1076  0.7969  0.6779
  219MOL    C3748433   4.480   2.016   2.137 -0.0971  0.8580 -0.1001
  219MOL    O3848434   4.587   2.069   2.099  0.7972 -0.2550  0.1009
  219MOL    C3948435   4.480   1.969   2.285  0.4922  0.0058 -0.6585
  219MOL    H4048436   4.303   1.883   1.881  1.7671  0.8980 -1.8478
  219MOL    H4148437   4.473   1.903   1.886 -0.0628  1.1635  1.8949
  219MOL    H4248438   4.277   1.979   2.114 -1.8033  0.9057 -1.6146
  219MOL    H4348439   4.385   1.923   2.314  0.8963  0.8660  2.1941
  219MOL    H4448440   4.499   2.057   2.347  0.7733 -1.2801  1.1123
  219MOL    H4548441   4.566   1.911   2.316 -0.7293 -1.4308  0.1029
  219MOL    C4648442   4.322   2.130   1.964 -0.1826  0.7456  0.2761
  219MOL    C4748443   4.244   2.239   2.039 -0.4512 -0.2304  0.2948
  219MOL    C4848444   4.102   2.194   2.080  0.7251  0.8183 -0.3654
  219MOL    O4948445   4.059   2.214   2.193  0.2527  0.3998 -0.4241
  219MOL    C5048446   4.017   2.116   1.975  0.1821 -0.4520 -0.2002
  219MOL    H5148447   4.275   2.109   1.868  0.3209  1.7719 -0.2063
  219MOL    H5248448   4.414   2.181   1.936 -1.1727  1.2454 -2.1908
  219MOL    H5348449   4.223   2.316   1.964 -1.0272  1.1990  1.9000
  219MOL    H5448450   4.056   2.145   1.877 -1.6710  0.1729 -0.7630
  219MOL    H5548451   4.018   2.012   2.008  2.8556 -0.8266 -1.3171
  219MOL    H5648452   3.914   2.150   1.981  0.1778 -0.3722 -0.7296
  219MOL    C5748453   4.323   2.304   2.151 -0.6997 -0.4652  0.2229
  219MOL    C5848454   4.259   2.429   2.218 -0.2070  0.1357  0.0129
  219MOL    C5948455   4.261   2.409   2.369 -0.7851 -0.4204  0.0029
  219MOL    O6048456   4.361   2.368   2.428 -0.2552  0.0214 -0.2409
  219MOL    C6148457   4.135   2.454   2.439  0.2749  0.5606 -0.1903
  219MOL    H6248458   4.425   2.325   2.120  0.5163 -1.4715  3.3050
  219MOL    H6348459   4.332   2.226   2.227  1.7566 -0.4725 -0.0410
  219MOL    H6448460   4.152   2.438   2.197 -0.0352 -1.5867 -1.6985
  219MOL    H6548461   4.072   2.513   2.373  0.4172  1.0599  0.1081
  219MOL    H6648462   4.085   2.370   2.488 -2.4269  2.2087  0.0003
  219MOL    H6748463   4.162   2.521   2.522  0.5638 -0.0078  0.1778
  219MOL    C6848464   4.339   2.553   2.180  0.7804 -0.5432 -1.1743
  219MOL    C6948465   4.265   2.684   2.206 -0.1464  0.1328 -0.3105
  219MOL    C7048466   4.162   2.706   2.092  0.1188 -0.2114  0.5142
  219MOL    O7148467   4.041   2.701   2.105  0.0559 -0.4509 -0.2791
  219MOL    C7248468   4.214   2.727   1.949 -0.5335  0.8699 -0.3136
  219MOL    H7348469   4.430   2.553   2.240  1.0325  0.7390 -1.5452
  219MOL    H7448470   4.378   2.554   2.078 -0.8843  1.0641 -1.8118
  219MOL    H7548471   4.208   2.661   2.296  1.3831  1.3150  0.9784
  219MOL    H7648472   4.316   2.766   1.952 -0.4297  0.6864 -1.3181
  219MOL    H7748473   4.225   2.635   1.893 -0.2816  2.3406 -2.7667
  219MOL    H7848474   4.161   2.810   1.901  1.1941  1.7309 -0.7542
  219MOL    C7948475   4.359   2.804   2.216 -0.2637  0.2609 -0.4377
  219MOL    C8048476   4.306   2.949   2.250  0.3473 -0.0808  0.0815
  219MOL    C8148477   4.197   2.948   2.367 -0.0548  0.3789  0.4908
  219MOL    O8248478   4.171   2.847   2.428  0.5049 -0.5930 -1.2193
  219MOL    C8348479   4.136   3.082   2.413 -0.3738 -0.4503  0.5494
  219MOL    H8448480   4.419   2.809   2.125 -0.7303  0.5826 -0.7302
  219MOL    H8548481   4.433   2.791   2.295 -0.7330  0.5320  0.0513
  219MOL    H8648482   4.385   3.016   2.285  0.3593 -1.1744  2.2418
  219MOL    H8748483   4.079   3.070   2.505  0.9333  0.6429  1.5130
  219MOL    H8848484   4.079   3.131   2.334  0.6484  1.5769  1.0446
  219MOL    H8948485   4.218   3.150   2.437 -0.2430 -0.9931  1.7114
  219MOL    C9048486   4.241   3.015   2.132  0.2777  0.2850 -0.2187
  219MOL    C9148487   4.253   3.171   2.121 -0.2202 -0.0026 -0.1379
  219MOL    C9248488   4.385   3.218   2.054 -0.0289 -0.2627 -0.2361
  219MOL    O9348489   4.461   3.290   2.116  0.3102 -0.3153  0.7182
  219MOL    C9448490   4.410   3.176   1.909 -0.0092  0.3617  0.5236
  219MOL    H9548491   4.288   2.973   2.043  0.6224 -1.9712  0.9867
  219MOL    H9648492   4.136   2.986   2.128  0.9595 -2.0947 -2.2198
  219MOL    H9748493   4.255   3.205   2.225 -0.2637  2.3460 -0.8829
  219MOL    H9848494   4.408   3.067   1.908  1.5265  0.3158  0.8867
  219MOL    H9948495   4.326   3.214   1.851  0.3751  0.6129  0.1289
  219MOL   H10048496   4.511   3.210   1.887 -0.1008  1.6043  2.0224
  219MOL   C10148497   4.124   3.225   2.045  0.1607 -0.0989  0.2526
  219MOL   C10248498   4.106   3.380   2.025  0.4412  0.1991 -0.5308
  219MOL   C10348499   4.091   3.456   2.152 -1.1166 -0.1074 -0.2549
  219MOL   O10448500   3.981   3.515   2.176 -0.2758 -0.4739  0.2679
  219MOL   C10548501   4.211   3.482   2.236 -0.2009 -0.3263 -0.1967
  219MOL   H10648502   4.117   3.172   1.950  1.9064  0.8907 -0.4484
  219MOL   H10748503   4.038   3.188   2.101 -1.0842 -1.1417 -2.2749
  219MOL   H10848504   4.197   3.416   1.978  0.6387  0.1092 -0.2170
  219MOL   H10948505   4.209   3.584   2.274 -0.7476 -0.2026 -0.5577
  219MOL   H11048506   4.211   3.406   2.315 -0.6448 -1.4114 -1.2193
  219MOL   H11148507   4.305   3.470   2.182  0.0004  0.0875  0.0655
  219MOL   C11248508   4.008   3.405   1.914 -0.2912 -0.5413  0.2509
  219MOL   C11348509   4.008   3.548   1.854 -0.4157 -0.1995  0.5887
  219MOL   C11448510   3.868   3.589   1.792 -0.0446 -0.7297 -0.3948
  219MOL   O11548511   3.846   3.606   1.675 -0.2364 -0.3123 -0.0765
  219MOL   C11648512   3.745   3.580   1.882 -0.1639  0.2621  0.3915
  219MOL   H11748513   3.913   3.405   1.967  0.6924  2.0875  2.1520
  219MOL   H11848514   4.011   3.320   1.847 -0.8004 -0.7487  0.4902
  219MOL   H11948515   4.009   3.620   1.935  0.8827  1.4153 -0.8022
  219MOL   H12048516   3.726   3.482   1.926  2.5292 -1.3961 -1.9724
  219MOL   H12148517   3.755   3.655   1.960  2.4252 -0.1321  0.4940
  219MOL   H12248518   3.667   3.622   1.819  0.5631  1.5583  0.3301
  219MOL   C12348519   4.130   3.578   1.769  0.2711 -0.6734  0.1490
  219MOL   C12448520   4.182   3.730   1.771 -0.1110  0.5212  0.2645
  219MOL   C12548521   4.131   3.804   1.649 -0.5164  0.4787  0.3918
  219MOL   O12648522   4.199   3.817   1.546 -0.7152 -0.1639  0.5134
  219MOL   C12748523   4.000   3.879   1.667 -0.2546  0.6473 -0.0914
  219MOL   H12848524   4.114   3.533   1.670 -1.9636 -2.8676  1.4311
  219MOL   H12948525   4.212   3.519   1.809 -0.8305 -0.2611  3.1321
  219MOL   H13048526   4.129   3.763   1.861  2.0452  0.2893  1.6415
  219MOL   H13148527   3.958   3.863   1.766 -1.6324  1.7632 -0.4740
  219MOL   H13248528   3.929   3.828   1.601  0.3738  1.2531 -1.2510
  219MOL   H13348529   4.010   3.982   1.633 -1.9191  0.1196 -2.3212
  219MOL   C13448530   4.333   3.741   1.790  0.3580  0.5700 -0.1343
  219MOL   C13548531   4.387   3.854   1.885  0.0975  0.5862  0.4582
  219MOL   C13648532   4.361   3.822   2.032 -0.2186  0.3173  0.0138
  219MOL   O13748533   4.358   3.706   2.074  0.2623  0.3141 -0.5023
  219MOL   C13848534   4.336   3.940   2.126  0.0241  0.8734  0.1071
  219MOL   H13948535   4.385   3.753   1.695 -0.3937 -2.8696 -1.0552
  219MOL   H14048536   4.367   3.645   1.828 -0.6182 -0.0813 -0.8727
  219MOL   H14148537   4.341   3.949   1.859  3.2139  1.7079 -1.2598
  219MOL   H14248538   4.392   4.027   2.093  0.2482  0.9537  0.7090
  219MOL   H14348539   4.357   3.919   2.231  1.1326 -0.4660 -0.3718
  219MOL   H14448540   4.231   3.965   2.108 -0.6611  0.0365  2.7665
  219MOL   C14548541   4.535   3.879   1.864  0.2616  0.5643  0.0677
  219MOL   C14648542   4.635   3.764   1.883  0.1770 -0.3579 -0.5030
  219MOL   C14748543   4.660   3.681   1.756 -0.7694  0.4488 -0.2983
  219MOL   O14848544   4.670   3.724   1.646  0.2517  0.4408  0.5303
  219MOL   C14948545   4.651   3.528   1.775  0.2225  0.3403 -0.5808
  219MOL   H15048546   4.562   3.960   1.933  0.3238  2.3010 -1.9436
  219MOL   H15148547   4.559   3.920   1.766 -1.1505 -2.5374 -1.6590
  219MOL   H15248548   4.595   3.691   1.954 -0.3057  1.0674  0.7031
  219MOL   H15348549   4.637   3.470   1.684  0.0529 -0.3583 -0.1078
  219MOL   H15448550   4.749   3.496   1.809 -0.6522  0.4030  2.1274
  219MOL   H15548551   4.573   3.493   1.843  1.3552 -1.4654 -0.1968
  219MOL   C15648552   4.773   3.810   1.947  0.2021 -0.1719  1.2786
  219MOL   C15748553   4.867   3.698   2.001  0.7491  0.4021  0.1661
  219MOL   C15848554   4.789   3.610   2.105  0.3464  0.0530  0.4778
  219MOL   O15948555   4.752   3.495   2.085 -0.8503 -0.3133  0.0154
  219MOL   C16048556   4.739   3.684   2.230 -0.2583  0.2274 -0.1191
  219MOL   H16148557   4.823   3.856   1.862  1.4945  0.8091  2.5236
  219MOL   H16248558   4.760   3.888   2.023 -2.1945 -1.8030  2.6013
  219MOL   H16348559   4.888   3.622   1.926 -0.7029 -0.3521  0.5119
  219MOL   H16448560   4.744   3.628   2.324  0.6626  0.3316 -0.1064
  219MOL   H16548561   4.635   3.715   2.214 -0.4168 -0.4860 -0.5146
  219MOL   H16648562   4.803   3.770   2.244 -0.6385  0.3422  0.9693
  219MOL   C16748563   5.007   3.753   2.051 -0.3571 -0.0828  0.1851
  219MOL   C16848564   5.099   3.654   2.124 -0.2543 -0.1788 -0.4843
  219MOL   C16948565   5.213   3.726   2.184  0.3008 -0.0191 -0.4202
  219MOL   O17048566   5.309   3.770   2.114  0.0475 -0.1573  0.2529
  219MOL   C17148567   5.212   3.763   2.332  0.1132 -0.9573 -0.3303
  219MOL   H17248568   5.055   3.797   1.963  0.1921  2.9018  1.8945
  219MOL   H17348569   4.991   3.840   2.115 -1.7470 -0.9947  1.0932
  219MOL   H17448570   5.038   3.603   2.199  1.7479 -2.8320 -0.5538
  219MOL   H17548571   5.308   3.811   2.350 -0.6426  0.0449  1.1191
  219MOL   H17648572   5.212   3.670   2.389 -2.8573 -0.5733  0.3500
  219MOL   H17748573   5.142   3.840   2.364  0.1270 -1.4382  0.8700
  219MOL   C17848574   5.141   3.540   2.029  0.2693 -0.0887  0.4912
  219MOL   C17948575   5.214   3.417   2.094  0.0438  0.3756 -0.2608
  219MOL   C18048576   5.288   3.333   1.993 -0.0834  0.1133 -0.3886
  219MOL   O18148577   5.251   3.220   1.957  0.1380 -0.0832 -0.8267
  219MOL   C18248578   5.427   3.382   1.954 -0.0053  0.2118 -0.3258
  219MOL   H18348579   5.049   3.507   1.982  0.7737  1.9885 -2.0040
  219MOL   H18448580   5.195   3.592   1.951 -1.7510 -0.0203 -0.8980
  219MOL   H18548581   5.297   3.454   2.154 -1.8048  4.1278  0.1462
  219MOL   H18648582   5.454   3.355   1.851 -0.9882 -0.1991 -0.4810
  219MOL   H18748583   5.507   3.356   2.023 -0.5609  0.0165  0.2404
  219MOL   H18848584   5.423   3.491   1.953 -0.5276  0.1952  0.5998
  219MOL   C18948585   5.117   3.339   2.184  0.1423 -0.3694  0.5982
  219MOL   C19048586   5.176   3.253   2.301 -0.2817  0.6001 -0.6163
  219MOL   C19148587   5.228   3.338   2.419  0.0153 -0.5380 -0.1645
  219MOL   O19248588   5.168   3.365   2.524 -1.1083  0.3657  0.2206
  219MOL   C19348589   5.366   3.409   2.408  0.1760 -0.0041 -0.4588
  219MOL   H19448590   5.042   3.408   2.222  0.8733  0.2627  0.9004
  219MOL   H19548591   5.056   3.277   2.118 -1.0373  1.1865  0.1799
  219MOL   H19648592   5.267   3.210   2.260 -1.0759 -1.1168 -0.6333
  219MOL   H19748593   5.418   3.347   2.335 -0.3537  0.1576 -0.9779
  219MOL   H19848594   5.356   3.508   2.363  0.1929 -0.0871 -0.6468
  219MOL   H19948595   5.428   3.418   2.497 -0.8433 -1.7619  0.4616
  219MOL   C20048596   5.083   3.134   2.346  0.2897 -0.1561  0.4792
  219MOL   C20148597   5.158   3.006   2.408  0.2363 -0.0497 -0.9373
  219MOL   C20248598   5.071   2.876   2.397 -0.8202 -0.1660  0.3886
  219MOL   O20348599   4.948   2.885   2.424 -0.1776  0.4625  0.1381
  219MOL   C20448600   5.141   2.744   2.362 -0.6097 -0.1802 -0.2433
  219MOL   H20548601   4.996   3.165   2.405 -1.5545 -2.3322 -1.0333
  219MOL   H20648602   5.036   3.091   2.258 -1.0111  0.8053  0.6952
  219MOL   H20748603   5.236   2.983   2.335  0.7855  0.3184 -0.4702
  219MOL   H20848604   5.186   2.694   2.447  2.0749 -0.7546 -1.9502
  219MOL   H20948605   5.062   2.674   2.331 -1.6408 -0.5600  3.0407
  219MOL   H21048606   5.212   2.760   2.281  0.9423 -1.2720  0.8648
  219MOL   C21148607   5.226   3.021   2.549  0.0328  0.1064  0.3008
  219MOL   C21248608   5.385   3.014   2.548  0.0376  0.3198  0.5311
  219MOL   C21348609   5.437   2.888   2.492 -0.3770  0.7670 -0.2957
  219MOL   O21448610   5.466   2.873   2.373 -0.2083  0.0297 -0.3902
  219MOL   C21548611   5.456   2.769   2.586 -0.0137 -0.0758  0.4868
  219MOL   H21648612   5.198   3.118   2.592  0.8689  0.3683  0.2738
  219MOL   H21748613   5.192   2.941   2.613 -0.0167 -0.4146 -0.3746
  219MOL   H21848614   5.423   3.019   2.650 -0.5597 -0.3608  0.7930
  219MOL   H21948615   5.474   2.803   2.688  1.6694  3.2004 -0.8396
  219MOL   H22048616   5.367   2.707   2.601 -0.1576  0.1999  0.7739
  219MOL   H22148617   5.540   2.711   2.547  0.1648  0.0909  0.6230
  219MOL   H22248618   5.418   3.102   2.493 -0.1753  0.4400  0.5962
  220MOL     C148619   5.226   4.258   6.918 -0.0703  0.2826 -0.2918
  220MOL     C248620   5.283   4.253   7.061 -0.0922  1.0254  0.2058
  220MOL     C348621   5.171   4.237   7.167 -0.4198 -0.6237  0.1795
  220MOL     O448622   5.168   4.148   7.249  0.1660 -0.1044 -0.1845
  220MOL     C548623   5.073   4.352   7.165 -0.0487  0.6790  0.3674
  220MOL     H648624   5.177   4.166   6.887 -0.4174  0.9478 -1.7682
  220MOL     H748625   5.303   4.280   6.844  1.0749  0.5100  0.9459
  220MOL     H848626   5.325   4.351   7.085  0.7698  0.4001  1.2529
  220MOL     H948627   5.113   4.438   7.219 -1.7444  1.5778  0.2183
  220MOL    H1048628   5.048   4.376   7.062 -0.3250  0.2751  0.3398
  220MOL    H1148629   4.988   4.322   7.226  1.3633 -0.4157  1.8434
  220MOL    H1248630   5.161   4.345   6.903  0.7057  1.0580  0.7039
  220MOL    C1348631   5.393   4.141   7.069 -0.5734 -0.1489 -0.4279
  220MOL    C1448632   5.468   4.122   7.197 -0.1267 -0.1775  1.2889
  220MOL    C1548633   5.528   4.250   7.264  0.3343 -0.6352  1.1789
  220MOL    O1648634   5.564   4.348   7.199  0.1783 -0.4282 -0.0667
  220MOL    C1748635   5.533   4.260   7.415 -0.0446 -0.2609 -0.7191
  220MOL    H1848636   5.349   4.044   7.044 -0.8391  0.1707 -1.1992
  220MOL    H1948637   5.476   4.160   7.001 -1.0576  0.2765 -0.9059
  220MOL    H2048638   5.397   4.085   7.271 -0.1386 -1.1859  0.7837
  220MOL    H2148639   5.514   4.180   7.486 -1.3888  0.3198 -0.4087
  220MOL    H2248640   5.631   4.298   7.445  0.1444 -1.3096  0.0056
  220MOL    H2348641   5.470   4.344   7.444  1.4839  0.0958  1.7217
  220MOL    C2448642   5.572   4.010   7.185  0.2262  0.1748 -0.0214
  220MOL    C2548643   5.604   3.950   7.323  0.7084 -0.3838 -0.0973
  220MOL    C2648644   5.496   3.844   7.353 -0.6955 -0.0870 -0.4381
  220MOL    O2748645   5.524   3.725   7.339  0.1002  0.4362  0.9088
  220MOL    C2848646   5.355   3.880   7.397 -0.5943  0.4188 -0.4004
  220MOL    H2948647   5.545   3.925   7.123 -1.4531  0.0891  0.8087
  220MOL    H3048648   5.659   4.046   7.130 -0.4779  3.7073  1.0281
  220MOL    H3148649   5.585   4.028   7.397  0.2079 -0.0994 -0.5164
  220MOL    H3248650   5.308   3.796   7.448 -1.3845  0.1297 -1.5749
  220MOL    H3348651   5.352   3.972   7.455  1.5393  0.6647 -0.6440
  220MOL    H3448652   5.297   3.895   7.305  0.1887 -0.6812 -1.0803
  220MOL    C3548653   5.755   3.922   7.337  0.0446 -0.5138  0.3167
  220MOL    C3648654   5.805   3.888   7.473  0.3390  0.1016  0.4393
  220MOL    C3748655   5.947   3.822   7.469  0.6413  0.0911  0.1435
  220MOL    O3848656   6.026   3.859   7.388 -0.0775  0.0985 -0.7807
  220MOL    C3948657   5.962   3.687   7.543  0.7740 -0.6266 -0.4990
  220MOL    H4048658   5.806   4.012   7.301 -0.3151  0.2886  1.7752
  220MOL    H4148659   5.781   3.856   7.254 -2.8829 -3.8379  1.9330
  220MOL    H4248660   5.739   3.809   7.509  0.6200  0.0138  0.7658
  220MOL    H4348661   6.070   3.681   7.559  0.2365 -0.9589  3.3745
  220MOL    H4448662   5.931   3.599   7.488  0.4994  0.0821 -1.4947
  220MOL    H4548663   5.914   3.696   7.640  0.5195 -0.9242 -0.5960
  220MOL    C4648664   5.807   4.012   7.558  0.4911 -0.0370 -0.2333
  220MOL    C4748665   5.768   3.991   7.707 -0.2197 -1.0080  0.2039
  220MOL    C4848666   5.820   4.108   7.791  0.2663 -0.7744 -0.0411
  220MOL    O4948667   5.751   4.202   7.834  0.1213 -0.1598 -0.8026
  220MOL    C5048668   5.967   4.104   7.842  0.1141  0.6007 -0.3512
  220MOL    H5148669   5.760   4.094   7.505 -0.1589 -1.8442 -2.5148
  220MOL    H5248670   5.910   4.048   7.550  0.6902 -0.3548  0.8827
  220MOL    H5348671   5.822   3.901   7.735  0.0132 -0.8067  0.4025
  220MOL    H5448672   6.034   4.160   7.777 -0.9098  0.5358 -1.4887
  220MOL    H5548673   5.968   4.158   0.079  0.3527  0.8844 -0.5166
  220MOL    H5648674   6.010   4.004   7.832  1.2436  0.9016  1.3154
  220MOL    C5748675   5.613   3.965   7.716  0.3068 -0.4689 -0.4519
  220MOL    C5848676   5.553   3.919   7.852  0.2293 -0.0395  0.0005
  220MOL    C5948677   5.401   3.916   7.837 -0.3025  0.9194  0.0695
  220MOL    O6048678   5.334   3.813   7.826  0.0533  0.0409  0.0193
  220MOL    C6148679   5.342   4.048   7.854  1.0540  0.0314 -0.4506
  220MOL    H6248680   5.587   3.893   7.638 -1.0283  2.4596 -2.8065
  220MOL    H6348681   5.565   4.054   7.676  0.2736 -1.2416 -2.1597
  220MOL    H6448682   5.587   3.982   0.077 -1.8288  3.8202 -1.9386
  220MOL    H6548683   5.372   4.123   7.781 -0.3366  1.1136  0.0565
  220MOL    H6648684   5.233   4.040   0.003  1.1088 -0.1068  0.3833
  220MOL    H6748685   5.388   4.090   0.086 -1.7219 -0.6295  1.3356
  220MOL    C6848686   5.600   3.772   0.038 -0.1878  1.2498  0.4899
  220MOL    C6948687   5.572   3.732   0.184  0.4565  0.8391 -0.0480
  220MOL    C7048688   5.669   3.805   0.279 -0.2762 -0.2398  0.4018
  220MOL    O7148689   5.748   3.888   0.237  0.4281 -0.0455 -0.3460
  220MOL    C7248690   5.663   3.790   0.434 -0.1693 -0.9374  0.7546
  220MOL    H7348691   5.551   3.696   7.836  0.7227  1.1434 -0.1311
  220MOL    H7448692   5.705   3.760   0.013  0.2081  1.9369  1.7496
  220MOL    H7548693   5.474   3.769   0.216 -0.9555 -1.0589 -2.0532
  220MOL    H7648694   5.562   3.800   0.473  0.9449  1.2836  3.1688
  220MOL    H7748695   5.698   3.693   0.470 -1.3303 -2.0576 -1.0573
  220MOL    H7848696   5.716   3.873   0.481 -1.2216 -0.0012  0.3083
  220MOL    C7948697   5.584   3.576   0.200  0.7416  0.2716  0.2396
  220MOL    C8048698   5.447   3.505   0.216  0.8768 -0.1274  0.3360
  220MOL    C8148699   5.354   3.572   0.316 -0.5001 -0.9039 -0.9261
  220MOL    O8248700   5.387   3.565   0.433 -0.0339  0.5119  0.5631
  220MOL    C8348701   5.230   3.643   0.273 -0.5418  0.3959 -0.8833
  220MOL    H8448702   5.646   3.554   0.287  1.4318  0.4588 -0.2037
  220MOL    H8548703   5.635   3.528   0.117 -0.4084  0.7907 -0.7794
  220MOL    H8648704   5.399   3.511   0.119  0.1015  1.3881  0.7911
  220MOL    H8748705   5.220   3.646   0.164 -1.2154  1.1477 -0.8017
  220MOL    H8848706   5.248   3.748   0.294 -0.7435  0.4966 -1.2082
  220MOL    H8948707   5.141   3.610   0.326 -0.2453 -0.6305 -1.0042
  220MOL    C9048708   5.462   3.353   0.246  0.9196 -0.0532  0.3061
  220MOL    C9148709   5.328   3.269   0.246 -0.0332 -0.0367  0.3115
  220MOL    C9248710   5.269   3.249   0.104  0.3902 -0.4694  0.3003
  220MOL    O9348711   5.178   3.320   0.071  0.0395  0.0558  0.0148
  220MOL    C9448712   5.330   3.157   0.002  0.6612  0.2971  0.3271
  220MOL    H9548713   5.547   3.313   0.190  2.0128  2.1419  0.3519
  220MOL    H9648714   5.511   3.351   0.344  1.9076  0.3208 -0.1732
  220MOL    H9748715   5.248   3.313   0.306 -0.0349  0.0116  0.2738
  220MOL    H9848716   5.297   3.053   0.011  1.6887 -0.1384 -0.8434
  220MOL    H9948717   5.295   3.194   7.763 -0.9762  0.7941  1.0869
  220MOL   H10048718   5.439   3.163   0.005  0.6166  1.3977 -0.0218
  220MOL   C10148719   5.353   3.136   0.312  0.0952 -0.0245 -0.2139
  220MOL   C10248720   5.235   3.045   0.348 -0.2558 -0.0531 -0.1618
  220MOL   C10348721   5.132   3.129   0.421  0.4305 -0.0785 -0.6271
  220MOL   O10448722   5.153   3.156   0.539 -0.1963 -0.7184 -0.4429
  220MOL   C10548723   4.997   3.158   0.354  0.9563  0.2996 -0.2202
  220MOL   H10648724   5.415   3.082   0.240  1.7909 -0.0390  1.2127
  220MOL   H10748725   5.410   3.155   0.403 -1.2033 -1.3338  0.9063
  220MOL   H10848726   5.190   3.025   0.251 -0.3189 -0.0643 -0.1308
  220MOL   H10948727   5.017   3.189   0.251 -0.6841 -0.8007 -0.8942
  220MOL   H11048728   4.938   3.066   0.359 -2.0149  2.2079  1.0308
  220MOL   H11148729   4.940   3.235   0.406 -0.3501  0.8555 -2.4024
  220MOL   C11248730   5.283   2.918   0.417 -0.2779 -0.0221 -0.0291
  220MOL   C11348731   5.185   2.808   0.460  0.2401  0.0752 -0.1473
  220MOL   C11448732   5.260   2.723   0.563  0.2468 -0.8504 -0.2846
  220MOL   O11548733   5.340   2.636   0.525 -0.0847  0.3416  0.4710
  220MOL   C11648734   5.251   2.754   0.712 -0.0020  0.6859 -0.6573
  220MOL   H11748735   5.338   2.960   0.501 -0.0877 -2.1883  0.9616
  220MOL   H11848736   5.358   2.870   0.355 -1.7400 -1.3158 -0.8333
  220MOL   H11948737   5.100   2.852   0.512  0.7584 -0.8934  1.5617
  220MOL   H12048738   5.263   2.670   0.779 -1.2130  0.8920 -0.1687
  220MOL   H12148739   5.331   2.820   0.744 -0.0421  0.1694  0.5140
  220MOL   H12248740   5.155   2.805   0.724 -0.1688 -0.2501  2.1111
  220MOL   C12348741   5.129   2.716   0.343  0.6199 -0.4200 -0.7539
  220MOL   C12448742   5.052   2.589   0.375 -0.1769  0.1325  0.3880
  220MOL   C12548743   5.051   2.493   0.247 -0.4431  0.3775  0.0268
  220MOL   O12648744   5.035   2.532   0.132 -0.1526 -0.8620 -0.2879
  220MOL   C12748745   5.048   2.346   0.271 -0.2347 -0.3284  0.2409
  220MOL   H12848746   5.223   2.688   0.296  0.3934 -1.6555 -0.4798
  220MOL   H12948747   5.066   2.765   0.270 -0.1472 -0.8702 -0.3968
  220MOL   H13048748   5.098   2.530   0.454 -0.9063  0.6132  1.1859
  220MOL   H13148749   5.075   2.326   0.375 -0.0890  2.3891  0.7806
  220MOL   H13248750   5.132   2.306   0.215 -1.2537 -1.0900 -0.7630
  220MOL   H13348751   4.950   2.302   0.253  0.6415 -2.8290  1.4740
  220MOL   C13448752   4.907   2.620   0.428 -0.0145 -0.2581 -0.2513
  220MOL   C13548753   4.846   2.520   0.528 -0.2418 -0.0387 -0.1622
  220MOL   C13648754   4.919   2.493   0.659  0.6524 -0.0542  0.2191
  220MOL   O13748755   4.984   2.587   0.708 -0.0699 -0.2054  0.7041
  220MOL   C13848756   4.888   2.365   0.737  0.4008  0.1810  0.3571
  220MOL   H13948757   4.836   2.635   0.347 -1.7002 -2.4853  0.7387
  220MOL   H14048758   4.903   2.719   0.472 -0.0036 -0.0090 -0.8144
  220MOL   H14148759   4.866   2.424   0.481  1.9819  1.6038 -2.6969
  220MOL   H14248760   4.815   2.297   0.693  2.2098 -3.0995  2.2345
  220MOL   H14348761   4.860   2.392   0.839 -0.1395 -1.7653  0.7382
  220MOL   H14448762   4.981   2.308   0.743 -0.9331 -1.9067  1.9654
  220MOL   C14548763   4.693   2.514   0.534 -0.2556  0.7062 -0.1820
  220MOL   C14648764   4.633   2.609   0.640  0.2134 -0.5665 -0.6861
  220MOL   C14748765   4.645   2.760   0.605 -0.3989  0.1079 -0.4262
  220MOL   O14848766   4.596   2.803   0.499 -0.0266  0.0224 -0.5428
  220MOL   C14948767   4.716   2.854   0.706 -0.5976  0.0937 -0.0794
  220MOL   H15048768   4.668   2.412   0.566 -0.7327  0.6410 -0.7471
  220MOL   H15148769   4.645   2.538   0.439  1.5663  1.0147 -1.0348
  220MOL   H15248770   4.692   2.585   0.728 -1.0155  0.0407  0.3365
  220MOL   H15348771   4.730   2.949   0.655 -2.5537  0.3569 -0.1653
  220MOL   H15448772   4.666   2.866   0.802  3.5576  0.4908  2.1354
  220MOL   H15548773   4.812   2.804   0.722 -0.8398  0.0071  1.0844
  220MOL   C15648774   4.492   2.565   0.688  0.0717 -0.0144  0.0990
  220MOL   C15748775   4.458   2.611   0.831 -0.2578 -0.0911 -0.0540
  220MOL   C15848776   4.551   2.548   0.937 -0.0015  0.2384  0.5565
  220MOL   O15948777   4.582   2.430   0.943 -0.3325  0.1454 -0.9753
  220MOL   C16048778   4.597   2.640   1.051  0.9506  0.3099  0.2457
  220MOL   H16148779   4.421   2.596   0.612  0.0037 -0.2908  0.0485
  220MOL   H16248780   4.483   2.456   0.685 -1.1586  0.0993 -0.6415
  220MOL   H16348781   4.478   2.718   0.826 -0.3152 -0.1456 -2.0798
  220MOL   H16448782   4.549   2.610   1.144 -0.2669  0.2103 -0.4107
  220MOL   H16548783   4.569   2.741   1.021  0.0282 -0.6652 -2.2880
  220MOL   H16648784   4.704   2.643   1.074  1.2861  2.9046 -1.3444
  220MOL   C16748785   4.311   2.584   0.859  0.1862  0.2873 -0.2384
  220MOL   C16848786   4.254   2.624   1.001  0.2309 -0.8025  0.7153
  220MOL   C16948787   4.125   2.554   1.028 -0.4713  0.1975  0.1474
  220MOL   O17048788   4.111   2.508   1.142  0.6902  0.2109  0.0050
  220MOL   C17148789   4.023   2.546   0.921  0.4872  0.4015  0.3569
  220MOL   H17248790   4.264   2.643   0.780 -0.7825 -2.4780 -1.7870
  220MOL   H17348791   4.291   2.478   0.849  4.2286 -0.8451  2.5581
  220MOL   H17448792   4.316   2.579   1.079 -1.1288  0.6605  2.6631
  220MOL   H17548793   3.971   2.642   0.922  0.7643  0.5711 -0.8716
  220MOL   H17648794   3.949   2.470   0.948  1.3567 -1.1519 -1.5087
  220MOL   H17748795   4.064   2.530   0.821  2.1120 -0.8101  1.2099
  220MOL   C17848796   4.239   2.776   1.031 -0.4137 -0.5394 -0.2844
  220MOL   C17948797   4.228   2.809   1.179  0.7986  0.3416  0.0046
  220MOL   C18048798   4.094   2.881   1.200 -0.0722  0.0726 -0.2746
  220MOL   O18148799   4.069   3.000   1.165 -0.4852  0.1558 -0.1005
  220MOL   C18248800   3.990   2.795   1.268 -0.3112  0.3700 -0.1835
  220MOL   H18348801   4.331   2.826   1.000  0.2022 -1.9718 -0.8184
  220MOL   H18448802   4.171   2.837   0.972 -1.4248 -0.9929  0.4034
  220MOL   H18548803   4.213   2.713   1.229 -0.8824 -0.6762 -2.3648
  220MOL   H18648804   3.898   2.852   1.280 -0.2224  0.3238  0.7640
  220MOL   H18748805   4.031   2.757   1.361  1.2183 -3.6564 -2.3531
  220MOL   H18848806   3.959   2.718   1.197 -0.7358  0.2778  0.1037
  220MOL   C18948807   4.347   2.880   1.243 -0.1274  0.0747  0.0534
  220MOL   C19048808   4.345   2.897   1.398  0.5471  0.1281  1.1819
  220MOL   C19148809   4.348   2.765   1.472  0.1913 -0.1725  0.6350
  220MOL   O19248810   4.416   2.669   1.434 -0.3213 -0.7415 -0.6135
  220MOL   C19348811   4.279   2.771   1.609 -0.1311  0.2180  0.2044
  220MOL   H19448812   4.435   2.819   1.221  0.9062  1.8976 -0.9488
  220MOL   H19548813   4.362   2.975   1.193  0.3048 -0.4079 -0.7319
  220MOL   H19648814   4.244   2.934   1.415  0.2899  0.6616 -1.3363
  220MOL   H19748815   4.181   2.725   1.604  1.0034 -2.2622 -0.5600
  220MOL   H19848816   4.320   2.711   1.691  0.9947 -1.2426 -1.3717
  220MOL   H19948817   4.275   2.874   1.641  1.0704  0.3059  0.1288
  220MOL   C20048818   4.460   2.991   1.458 -0.6247 -0.3969 -0.0136
  220MOL   C20148819   4.430   3.145   1.459 -0.9444 -0.1958 -0.0467
  220MOL   C20248820   4.560   3.205   1.513  1.3111  0.4214 -0.0727
  220MOL   O20348821   4.565   3.240   1.629 -0.0257  0.0953 -0.3440
  220MOL   C20448822   4.681   3.221   1.419  0.7363  0.3424 -0.5777
  220MOL   H20548823   4.501   2.970   1.557  1.5809  0.9576 -0.5986
  220MOL   H20648824   4.550   2.992   1.397 -0.6408  1.1210 -0.0453
  220MOL   H20748825   4.435   3.180   1.356 -1.2799  0.5118  0.1747
  220MOL   H20848826   4.675   3.306   1.351 -0.7466  0.8442  0.1609
  220MOL   H20948827   4.764   3.258   1.479 -0.1571 -0.1525  0.9840
  220MOL   H21048828   4.706   3.136   1.356 -1.7463 -1.4666  0.8112
  220MOL   C21148829   4.299   3.195   1.542 -0.0532  0.4257  0.0819
  220MOL   C21248830   4.191   3.242   1.441 -0.7483 -0.4358 -0.1886
  220MOL   C21348831   4.073   3.304   1.503 -0.3771 -0.3801 -0.0565
  220MOL   O21448832   4.038   3.271   1.620 -0.2013 -0.0382 -0.5671
  220MOL   C21548833   4.002   3.414   1.427  0.9944  0.2399  0.3503
  220MOL   H21648834   4.273   3.107   1.601  3.7215  0.4040  1.8239
  220MOL   H21748835   4.326   3.279   1.606 -1.4865 -0.6023  2.0759
  220MOL   H21848836   4.156   3.144   1.407 -0.8761 -0.3471 -0.3140
  220MOL   H21948837   4.061   3.504   1.407  0.7613  0.5364  0.9775
  220MOL   H22048838   3.964   3.373   1.334 -1.6190  1.7612  0.6871
  220MOL   H22148839   3.909   3.440   1.477  0.5427  0.6802 -0.7026
  220MOL   H22248840   4.242   3.301   1.365  0.1673 -1.0642 -0.0718
  221MOL     C148841   2.844   6.257   5.050  0.1848  0.1077 -0.2808
  221MOL     C248842   2.698   6.243   5.017 -0.3454 -0.2982  0.0911
  221MOL     C348843   2.618   6.348   5.089 -0.2323 -0.9931  0.0475
  221MOL     O448844   2.619   6.468   5.051 -1.3675 -0.0024  0.0290
  221MOL     C548845   2.517   6.299   5.195 -0.2275  0.3928 -0.1702
  221MOL     H648846   2.857   6.271   5.157 -1.3083  0.2840 -0.1040
  221MOL     H748847   2.897   6.344   5.011 -0.2503 -0.2238 -1.6388
  221MOL     H848848   2.662   6.145   5.049  0.3650 -0.8481 -0.7741
  221MOL     H948849   2.469   6.207   5.161  0.5432  0.2425 -0.8679
  221MOL    H1048850   2.551   6.282   5.297 -1.2997 -2.5150 -0.2277
  221MOL    H1148851   2.430   6.364   5.204  1.0999  2.2001 -0.0898
  221MOL    H1248852   2.892   6.167   5.012 -0.5663  0.2514 -1.5983
  221MOL    C1348853   2.674   6.235   4.863  0.0644  0.2297  0.1853
  221MOL    C1448854   2.537   6.250   4.791 -0.0570 -0.3583  0.7526
  221MOL    C1548855   2.457   6.121   4.803  0.9137 -0.3013 -0.1001
  221MOL    O1648856   2.466   6.035   4.716  0.2713  0.5892  0.5633
  221MOL    C1748857   2.378   6.090   4.927 -0.0016  0.5561 -0.1270
  221MOL    H1848858   2.740   6.318   4.836  0.9562  0.1168  1.9669
  221MOL    H1948859   2.720   6.144   4.823  1.1526  1.3751 -1.2281
  221MOL    H2048860   2.479   6.322   4.848  0.3847  0.6993 -0.1124
  221MOL    H2148861   2.296   6.024   4.899  0.4317  0.8156 -2.1351
  221MOL    H2248862   2.442   6.035   4.995 -0.2805  0.3313 -0.0492
  221MOL    H2348863   2.335   6.184   4.962 -0.5352 -0.3230  1.6110
  221MOL    C2448864   2.548   6.318   4.652 -0.3459  0.4882  0.2785
  221MOL    C2548865   2.414   6.324   4.569  0.3345 -0.1268 -0.0149
  221MOL    C2648866   2.304   6.400   4.637 -0.3180  0.0826  0.5694
  221MOL    O2748867   2.330   6.511   4.684  0.0257 -0.3416  0.3261
  221MOL    C2848868   2.164   6.337   4.634 -0.7017  0.1059 -0.9022
  221MOL    H2948869   2.614   6.405   4.647  1.3497 -0.7096  1.1867
  221MOL    H3048870   2.601   6.241   4.596  2.2098  1.4273  1.3306
  221MOL    H3148871   2.376   6.223   4.554  1.3020 -0.2707 -1.5798
  221MOL    H3248872   2.131   6.311   4.534 -0.4861 -1.5668 -0.5529
  221MOL    H3348873   2.172   6.238   4.680 -2.3815 -0.1566 -1.1227
  221MOL    H3448874   2.082   6.377   4.694  2.2114  1.7839  2.1430
  221MOL    C3548875   2.435   6.394   4.433 -0.4647  0.6562 -0.0257
  221MOL    C3648876   2.535   6.331   4.335  0.2764  0.1436 -0.0578
  221MOL    C3748877   2.479   6.194   4.293 -0.5269  0.2242  0.0015
  221MOL    O3848878   2.365   6.192   4.253 -0.1069 -0.4688 -0.3053
  221MOL    C3948879   2.562   6.074   4.283 -0.0682  0.0633  0.6916
  221MOL    H4048880   2.477   6.493   4.448 -0.8633  1.0769 -1.6015
  221MOL    H4148881   2.338   6.393   4.384  0.2671 -1.4582 -1.5355
  221MOL    H4248882   2.628   6.299   4.382 -0.6929 -1.9950  0.4631
  221MOL    H4348883   2.515   6.007   4.211  0.4476 -0.6993  1.0683
  221MOL    H4448884   2.575   6.032   4.383 -0.7250 -0.2388  0.6510
  221MOL    H4548885   2.655   6.115   4.244 -2.1177  2.1286 -2.2345
  221MOL    C4648886   2.584   6.413   4.203  0.1455  0.0577  0.9989
  221MOL    C4748887   2.467   6.455   4.106 -0.1396 -0.1209  0.5842
  221MOL    C4848888   2.393   6.571   4.171  0.8973  0.3305 -0.7696
  221MOL    O4948889   2.447   6.670   4.214 -0.3230  0.4539  0.2327
  221MOL    C5048890   2.242   6.576   4.165  0.1447 -0.7083  0.4368
  221MOL    H5148891   2.656   6.341   4.163  0.4946  0.2429  1.2898
  221MOL    H5248892   2.641   6.501   4.232  0.3920  0.7383 -1.4970
  221MOL    H5348893   2.397   6.371   4.099 -1.7853  1.1263  1.6699
  221MOL    H5448894   2.180   6.490   4.193 -0.0905 -0.3339  1.0837
  221MOL    H5548895   2.214   6.653   4.237 -1.3330  1.0426 -1.9374
  221MOL    H5648896   2.212   6.598   4.063 -1.3115  2.3460  1.4550
  221MOL    C5748897   2.506   6.509   3.964  0.2104 -0.2517 -0.1610
  221MOL    C5848898   2.598   6.415   3.884 -0.5707  0.1634  0.5846
  221MOL    C5948899   2.521   6.287   3.847 -0.4807 -0.5630  0.6922
  221MOL    O6048900   2.421   6.291   3.781 -0.3769 -0.0466  0.5006
  221MOL    C6148901   2.550   6.170   3.934  0.3767  0.3499  0.2170
  221MOL    H6248902   2.571   6.594   3.985 -1.7517  0.5972  2.7457
  221MOL    H6348903   2.418   6.542   3.909  1.1926 -0.2684 -1.7728
  221MOL    H6448904   2.676   6.387   3.955 -1.2383 -0.5702  1.0423
  221MOL    H6548905   2.563   6.079   3.875  0.0356  1.3264 -1.3944
  221MOL    H6648906   2.639   6.187   3.995  1.0473 -2.0365 -0.0530
  221MOL    H6748907   2.474   6.146   4.008 -0.8682 -0.0129 -1.1698
  221MOL    C6848908   2.658   6.484   3.755 -0.0194  0.3120 -0.7000
  221MOL    C6948909   2.780   6.408   3.708  0.2566 -0.6605 -0.0701
  221MOL    C7048910   2.910   6.417   3.799 -0.9133  0.0955  0.5402
  221MOL    O7148911   2.950   6.523   3.846 -0.0373  0.4732 -0.3828
  221MOL    C7248912   3.004   6.298   3.805 -0.1022  0.0263  0.5120
  221MOL    H7348913   2.578   6.475   3.681 -0.3542 -0.7797 -0.2092
  221MOL    H7448914   2.679   6.586   3.786  2.3417 -0.7631  1.3918
  221MOL    H7548915   2.746   6.304   3.709 -0.6973 -0.3777 -0.9989
  221MOL    H7648916   2.967   6.221   3.874 -0.6304 -0.4641 -0.3132
  221MOL    H7748917   3.007   6.258   3.704  0.6322 -0.5325  0.7486
  221MOL    H7848918   3.110   6.314   3.825 -0.0738 -1.1519  1.4237
  221MOL    C7948919   2.812   6.442   3.559  0.2095  0.0983 -0.0857
  221MOL    C8048920   2.849   6.327   3.470 -0.3132  0.6528  0.3749
  221MOL    C8148921   2.910   6.393   3.346  0.0755  0.3617  0.1579
  221MOL    O8248922   2.841   6.422   3.246  0.0133  0.0816  0.0579
  221MOL    C8348923   3.056   6.421   3.341 -0.3315  0.1767 -0.6663
  221MOL    H8448924   2.893   6.514   3.562  0.3669 -0.1038  1.0705
  221MOL    H8548925   2.719   6.488   3.525 -0.0644 -0.1867  0.2642
  221MOL    H8648926   2.933   6.272   3.514 -0.1291  1.0197  0.4858
  221MOL    H8748927   3.079   6.440   3.236 -0.8777 -4.1677 -1.6305
  221MOL    H8848928   3.111   6.332   3.372 -1.0915  0.2551  0.9678
  221MOL    H8948929   3.092   6.512   3.391 -1.2501 -0.1608  0.6338
  221MOL    C9048930   2.732   6.242   3.432  0.6485 -0.1420  0.8657
  221MOL    C9148931   2.756   6.116   3.349 -0.3346 -0.2992  0.1378
  221MOL    C9248932   2.869   6.027   3.406 -0.3665  0.8279 -0.0875
  221MOL    O9348933   2.897   6.028   3.532  0.4829  0.1532  0.6653
  221MOL    C9448934   2.941   5.936   3.303 -0.7117 -0.4127  0.0313
  221MOL    H9548935   2.670   6.234   3.521 -2.1837 -0.7785 -1.1232
  221MOL    H9648936   2.674   6.309   3.370  0.5211 -0.5846  0.5040
  221MOL    H9748937   2.806   6.152   3.260 -0.1567 -1.4470 -0.2301
  221MOL    H9848938   2.936   5.830   3.326  2.1822 -0.2988  1.4553
  221MOL    H9948939   2.897   5.940   3.203 -1.4723 -0.4200  0.3564
  221MOL   H10048940   3.047   5.959   3.292 -0.8257  0.4735  0.7177
  221MOL   C10148941   2.626   6.040   3.321  0.3807  0.5324 -0.1926
  221MOL   C10248942   2.536   6.125   3.226 -0.1902 -0.7110 -0.3209
  221MOL   C10348943   2.395   6.064   3.229 -0.4837 -0.6213 -0.0809
  221MOL   O10448944   2.365   5.954   3.190  0.8179  0.4676  0.0095
  221MOL   C10548945   2.288   6.144   3.297 -0.2238 -0.2745  0.0486
  221MOL   H10648946   2.664   5.948   3.277  0.1406 -0.1190  0.9698
  221MOL   H10748947   2.575   6.010   3.412  1.5785 -2.4655 -0.4567
  221MOL   H10848948   2.531   6.228   3.262  0.8610 -0.2253 -1.5137
  221MOL   H10948949   2.305   6.251   3.310 -0.1329 -0.2657 -0.1404
  221MOL   H11048950   2.196   6.131   3.240  0.4379  0.7908 -1.2822
  221MOL   H11148951   2.270   6.107   3.398  0.1033 -1.5116 -0.3367
  221MOL   C11248952   2.590   6.129   3.076  0.1391  0.4027 -0.2812
  221MOL   C11348953   2.584   6.270   3.008  0.4056  0.2025 -0.1458
  221MOL   C11448954   2.438   6.304   2.996  0.1512 -0.1221  0.1635
  221MOL   O11548955   2.379   6.248   2.904  0.2290 -0.0309  0.4320
  221MOL   C11648956   2.368   6.402   3.091 -0.5194 -0.6374 -0.1446
  221MOL   H11748957   2.538   6.058   3.013  0.7191  0.9998 -1.4558
  221MOL   H11848958   2.693   6.091   3.074  0.5117  1.3997 -0.6261
  221MOL   H11948959   2.628   6.344   3.074 -0.9864  1.6567 -0.8009
  221MOL   H12048960   2.401   6.401   3.194 -0.5504  0.5263 -0.1243
  221MOL   H12148961   2.412   6.494   3.055 -1.4513  0.1726  0.7746
  221MOL   H12248962   2.262   6.424   3.078 -0.2858  0.5833  0.0425
  221MOL   C12348963   2.653   6.262   2.865 -0.1277 -0.0165  0.1330
  221MOL   C12448964   2.647   6.393   2.786  0.1326  0.0111  0.4671
  221MOL   C12548965   2.689   6.370   2.645 -0.0005  0.2906 -0.1071
  221MOL   O12648966   2.810   6.363   2.619 -0.4912  0.0365  0.3256
  221MOL   C12748967   2.577   6.350   2.540 -1.1110  0.5587  0.3821
  221MOL   H12848968   2.598   6.190   2.804 -1.0938  2.1942 -1.6589
  221MOL   H12948969   2.756   6.228   2.875 -0.4886 -0.4690  2.6901
  221MOL   H13048970   2.543   6.421   2.774  0.5479  1.3211 -0.2308
  221MOL   H13148971   2.563   6.246   2.514  1.2169  0.5517 -1.0056
  221MOL   H13248972   2.597   6.404   2.448  0.9114 -1.0884 -0.1640
  221MOL   H13348973   2.484   6.401   2.568 -0.9950  2.7431 -2.9087
  221MOL   C13448974   2.737   6.492   2.856  0.5641 -0.4662  0.2724
  221MOL   C13548975   2.734   6.643   2.799  0.4533  0.7186  0.3206
  221MOL   C13648976   2.595   6.715   2.834  0.2067  0.1736  0.0546
  221MOL   O13748977   2.539   6.691   2.943 -0.2220  0.2699  0.2142
  221MOL   C13848978   2.530   6.811   2.727 -0.0104 -0.2612  1.0442
  221MOL   H13948979   2.839   6.455   2.850 -0.2621 -2.4578 -2.7304
  221MOL   H14048980   2.703   6.505   2.959 -1.2119  1.8510 -0.5545
  221MOL   H14148981   2.751   6.642   2.692  0.5706 -1.6035  0.3181
  221MOL   H14248982   2.449   6.870   2.771 -0.8428 -1.2208  0.8271
  221MOL   H14348983   2.486   6.764   2.639  1.6106  1.1060 -0.5390
  221MOL   H14448984   2.603   6.885   2.693  0.8433 -1.0731  1.1122
  221MOL   C14548985   2.851   6.719   2.864  0.5207 -0.7666 -0.4048
  221MOL   C14648986   2.995   6.679   2.834 -0.2758  0.4477 -0.2824
  221MOL   C14748987   3.038   6.726   2.689  0.1795 -0.2943 -1.2054
  221MOL   O14848988   3.099   6.837   2.677  0.0367  0.2182 -0.1659
  221MOL   C14948989   3.016   6.632   2.577  0.3739  0.6248 -0.3430
  221MOL   H15048990   2.837   6.700   2.971  1.9189 -0.9012 -0.2293
  221MOL   H15148991   2.842   6.828   2.860  0.8144 -0.7379 -0.3695
  221MOL   H15248992   3.000   6.570   2.844  3.2627  0.4319 -1.2730
  221MOL   H15348993   3.022   6.531   2.618 -1.5251  0.9208  0.7202
  221MOL   H15448994   2.921   6.643   2.523 -0.6400  0.6011  1.4066
  221MOL   H15548995   3.103   6.629   2.512  0.8977 -0.3167  0.3898
  221MOL   C15648996   3.085   6.735   2.949 -0.1709 -0.0351  0.5672
  221MOL   C15748997   3.236   6.718   2.940 -1.0983 -0.4468  0.3003
  221MOL   C15848998   3.290   6.573   2.942 -0.0277 -0.7515  0.2253
  221MOL   O15948999   3.245   6.478   3.013  0.0827 -0.3569  0.7210
  221MOL   C16049000   3.385   6.543   2.831  0.2816 -0.2413 -0.2523
  221MOL   H16149001   3.060   6.841   2.959  0.6769  0.0419  1.9026
  221MOL   H16249002   3.055   6.691   3.044  1.5671 -0.0144  1.1396
  221MOL   H16349003   3.275   6.755   2.846  1.4580  3.3158  2.7078
  221MOL   H16449004   3.410   6.437   2.825 -1.2652 -0.7170  1.1676
  221MOL   H16549005   3.472   6.604   2.855 -0.1674  0.7440 -1.0945
  221MOL   H16649006   3.344   6.575   2.736  1.6085 -0.7350 -0.9992
  221MOL   C16749007   3.313   6.791   3.050 -0.4350 -0.7667  0.3343
  221MOL   C16849008   3.291   6.942   3.052 -0.0801 -0.4393  0.7300
  221MOL   C16949009   3.429   7.013   3.018  0.0122  0.1062 -0.3987
  221MOL   O17049010   3.514   7.028   3.107 -0.0319 -0.1704  0.3155
  221MOL   C17149011   3.457   7.032   2.869  0.2287 -0.2092  0.1164
  221MOL   H17249012   3.287   6.741   3.143 -0.2265 -1.6137 -0.0585
  221MOL   H17349013   3.415   6.756   3.032 -0.4878 -2.0353  2.3705
  221MOL   H17449014   3.218   6.970   2.976  1.0959  1.2415  0.1775
  221MOL   H17549015   3.564   7.052   2.863  0.4730 -1.5557 -0.2260
  221MOL   H17649016   3.397   7.109   2.821 -1.3212 -0.2356  1.9191
  221MOL   H17749017   3.443   6.937   2.817  2.8253 -1.4662  1.6151
  221MOL   C17849018   3.234   7.007   3.180  1.0230 -0.0961 -0.3648
  221MOL   C17949019   3.079   6.997   3.201  0.1209  0.4226  0.3212
  221MOL   C18049020   3.001   7.094   3.103  0.0182 -0.4271 -0.9530
  221MOL   O18149021   2.899   7.046   3.047  0.3115  0.1425 -0.1338
  221MOL   C18249022   3.033   7.239   3.096  0.2038  0.8218 -0.3314
  221MOL   H18349023   3.279   6.956   3.265 -2.3132  0.4385  1.8155
  221MOL   H18449024   3.264   7.111   3.195 -0.4384  0.4852 -1.3579
  221MOL   H18549025   3.040   6.898   3.176  0.8089  0.3775 -0.5921
  221MOL   H18649026   3.060   7.285   3.191 -0.3429 -1.3980  0.9412
  221MOL   H18749027   2.946   7.297   3.063  1.0751  1.2246 -1.9694
  221MOL   H18849028   3.117   7.254   3.028  0.1953  0.8915 -0.3271
  221MOL   C18949029   3.037   7.016   3.352 -0.7710 -0.5888  0.2463
  221MOL   C19049030   2.901   6.960   3.391 -0.1579  0.1784  0.1617
  221MOL   C19149031   2.890   6.809   3.367 -0.9804 -1.2079 -0.5276
  221MOL   O19249032   2.980   6.729   3.391 -0.1854 -0.5739  0.1016
  221MOL   C19349033   2.750   6.763   3.334 -0.7633  0.0918 -0.0108
  221MOL   H19449034   3.110   6.971   3.419  0.5534 -2.1228 -2.1598
  221MOL   H19549035   3.039   7.123   3.374  0.2309 -0.6744  0.5711
  221MOL   H19649036   2.833   7.012   3.324 -0.3150  4.3903  3.4161
  221MOL   H19749037   2.694   6.831   3.269  0.3180  0.5804 -0.4286
  221MOL   H19849038   2.768   6.669   3.282 -2.4284  0.4880 -1.3458
  221MOL   H19949039   2.690   6.748   3.425 -2.3942 -0.1277 -1.0985
  221MOL   C20049040   2.862   7.000   3.535  0.5117 -0.1246 -0.0192
  221MOL   C20149041   2.715   6.976   3.587  0.2442 -0.6213  0.5540
  221MOL   C20249042   2.612   7.048   3.500 -0.4223  0.0017  0.0766
  221MOL   O20349043   2.519   6.986   3.454 -0.0910 -0.4781 -0.1064
  221MOL   C20449044   2.627   7.199   3.479 -0.0009  0.4146 -0.2241
  221MOL   H20549045   2.930   6.949   3.603  1.9970  2.7076  0.7044
  221MOL   H20649046   2.874   7.108   3.547  0.8304 -0.3084  1.4018
  221MOL   H20749047   2.700   6.870   3.569 -2.0521 -0.2209 -0.0370
  221MOL   H20849048   2.533   7.254   3.483  0.1177  0.5420  0.7894
  221MOL   H20949049   2.685   7.231   3.566  0.5434 -1.4879  0.1331
  221MOL   H21049050   2.679   7.218   3.385 -2.0656 -1.1876 -1.7214
  221MOL   C21149051   2.703   7.002   3.739 -0.3999 -0.0726  0.5283
  221MOL   C21249052   2.593   6.907   3.811 -0.2989 -0.2895 -0.2628
  221MOL   C21349053   2.447   6.971   3.801  0.4815  0.4259  0.2341
  221MOL   O21449054   2.430   7.091   3.773 -0.3930 -0.0610 -0.7275
  221MOL   C21549055   2.330   6.883   3.830  0.2754  0.2779 -0.6052
  221MOL   H21649056   2.800   6.976   3.781 -1.2628 -0.5574  2.2979
  221MOL   H21749057   2.694   7.106   3.769 -1.7333 -0.0294  0.0347
  221MOL   H21849058   2.616   6.889   3.916 -2.2658  1.7340  0.5862
  221MOL   H21949059   2.251   6.924   3.893 -0.2038 -1.2937 -0.1642
  221MOL   H22049060   2.290   6.838   3.739 -1.8039  3.2095 -1.2283
  221MOL   H22149061   2.357   6.803   3.899  1.0260 -0.2165 -1.4703
  221MOL   H22249062   2.585   6.815   3.752 -0.2784 -0.5101  0.0790
  222MOL     C149063   1.215   6.226   0.442 -0.0646 -0.3868 -0.2530
  222MOL     C249064   1.256   6.083   0.408 -0.3296  0.0107 -0.0588
  222MOL     C349065   1.237   6.056   0.258 -0.4654 -0.8749 -0.5135
  222MOL     O449066   1.257   6.146   0.171 -0.8531  0.2410 -0.1892
  222MOL     C549067   1.194   5.921   0.207  0.0128  0.5870 -0.1167
  222MOL     H649068   1.283   6.302   0.403 -0.1625  0.0686  0.4508
  222MOL     H749069   1.206   6.245   0.549  1.6541  0.7026 -0.2867
  222MOL     H849070   1.177   6.019   0.449 -0.6929  0.4079 -0.1389
  222MOL     H949071   1.090   5.930   0.174  0.4468 -0.1575 -1.7579
  222MOL    H1049072   1.262   5.889   0.128 -1.0679  1.4892 -1.4374
  222MOL    H1149073   1.198   5.846   0.286  0.8545 -0.9056 -1.5348
  222MOL    H1249074   1.116   6.240   0.397 -0.5450  1.2412  1.2552
  222MOL    C1349075   1.399   6.049   0.454  0.2000 -0.2268 -0.0451
  222MOL    C1449076   1.414   5.907   0.496  0.0938  0.3049 -0.3687
  222MOL    C1549077   1.364   5.893   0.641  0.6645  0.0753 -0.0745
  222MOL    O1649078   1.351   5.993   0.707  0.0752 -0.7721  0.3443
  222MOL    C1749079   1.346   5.759   0.697  0.1255 -0.7958  0.2869
  222MOL    H1849080   1.473   6.060   0.374  0.0514  0.5364 -0.0879
  222MOL    H1949081   1.438   6.129   0.517  0.6418 -0.3513 -0.1601
  222MOL    H2049082   1.341   5.843   0.446  0.4187  1.7256 -2.6971
  222MOL    H2149083   1.444   5.719   0.722  0.3926 -0.1688  0.2603
  222MOL    H2249084   1.287   5.751   0.789  1.7255  2.2529  1.6564
  222MOL    H2349085   1.309   5.690   0.621  0.8892 -0.6702 -0.2057
  222MOL    C2449086   1.560   5.855   0.489 -0.4561  0.2837  0.2006
  222MOL    C2549087   1.587   5.722   0.412  0.4803  0.3720 -0.4592
  222MOL    C2649088   1.475   5.674   0.319  0.2149  0.1823  0.8723
  222MOL    O2749089   1.443   5.735   0.211  0.0579  0.3131  0.3793
  222MOL    C2849090   1.395   5.555   0.363  0.4290 -0.3216 -0.3093
  222MOL    H2949091   1.617   5.939   0.450  0.4433 -0.4427 -0.0590
  222MOL    H3049092   1.601   5.845   0.589 -1.9779 -1.6686  0.6734
  222MOL    H3149093   1.589   5.649   0.493  1.1562  0.3641 -0.4771
  222MOL    H3249094   1.365   5.494   0.278 -0.8962 -0.9571  0.5793
  222MOL    H3349095   1.441   5.501   0.446 -0.5532 -0.7479 -0.0274
  222MOL    H3449096   1.299   5.592   0.401 -0.7896  0.6443 -4.1660
  222MOL    C3549097   1.724   5.734   0.344  0.0050  0.3271  0.7685
  222MOL    C3649098   1.788   5.600   0.291 -0.2163  0.2009 -0.3116
  222MOL    C3749099   1.828   5.596   0.135  0.7383  0.0926 -0.3743
  222MOL    O3849100   1.944   5.598   0.101  0.2356 -0.0817  0.8011
  222MOL    C3949101   1.719   5.554   0.036 -0.0345  0.0220  0.2851
  222MOL    H4049102   1.795   5.791   0.404 -0.3310  0.3083  1.1836
  222MOL    H4149103   1.703   5.798   0.259  1.1988  0.9242  0.9055
  222MOL    H4249104   1.712   5.525   0.316 -0.6856  0.3132 -1.3718
  222MOL    H4349105   1.758   5.549   7.792  0.2400 -1.8692  0.4794
  222MOL    H4449106   1.638   5.628   0.047 -2.2852 -2.1867 -0.8864
  222MOL    H4549107   1.713   5.448   0.059  0.6918 -0.0150  0.3101
  222MOL    C4649108   1.909   5.561   0.387 -0.4241 -0.1960  0.5912
  222MOL    C4749109   1.944   5.410   0.414 -0.5578  0.3635 -0.7598
  222MOL    C4849110   2.082   5.359   0.373 -0.0083  0.5445 -0.1741
  222MOL    O4949111   2.162   5.311   0.454  0.1802  0.1109 -0.4383
  222MOL    C5049112   2.131   5.373   0.230  0.6776 -0.2745 -0.3058
  222MOL    H5149113   1.892   5.606   0.484  0.1535 -0.4375  0.8053
  222MOL    H5249114   1.996   5.613   0.347  0.2344 -0.9685  1.0139
  222MOL    H5349115   1.872   5.351   0.356 -0.2652 -0.6018 -0.1670
  222MOL    H5449116   2.051   5.356   0.158 -0.4237  1.1661  0.5304
  222MOL    H5549117   2.171   5.471   0.203 -1.3042  0.2279 -1.5084
  222MOL    H5649118   2.202   5.293   0.213  0.9267 -0.3295  0.9631
  222MOL    C5749119   1.896   5.349   0.547 -0.0127 -0.7662 -0.1878
  222MOL    C5849120   1.837   5.201   0.535 -0.1655  0.0107  0.9929
  222MOL    C5949121   1.870   5.122   0.656  0.4310 -0.1234  0.5775
  222MOL    O6049122   1.898   5.175   0.762  0.2982 -0.0222 -0.6373
  222MOL    C6149123   1.875   4.968   0.650 -0.6200  0.0231 -0.0978
  222MOL    H6249124   1.807   5.403   0.579 -1.3458 -2.0649 -1.6599
  222MOL    H6349125   1.970   5.353   0.627 -0.9468 -0.9126  0.6927
  222MOL    H6449126   1.885   5.154   0.450  0.2397  1.0068  0.6640
  222MOL    H6549127   1.821   4.923   0.567 -0.7748 -1.8250  0.9607
  222MOL    H6649128   1.983   4.957   0.637 -0.7909 -0.5636 -1.0903
  222MOL    H6749129   1.840   4.918   0.741  1.5846 -1.1272  0.1608
  222MOL    C6849130   1.690   5.219   0.503 -0.0344  0.1749  0.2622
  222MOL    C6949131   1.604   5.105   0.448 -0.3563 -0.6229 -0.6829
  222MOL    C7049132   1.660   5.037   0.324  0.0950  0.9178  0.3983
  222MOL    O7149133   1.710   5.102   0.237  0.4306 -0.2439  0.2214
  222MOL    C7249134   1.635   4.885   0.314  0.1722  0.4740  0.1619
  222MOL    H7349135   1.639   5.258   0.590 -3.0138  0.5798 -1.6043
  222MOL    H7449136   1.684   5.300   0.430 -0.4068 -1.7837 -1.9383
  222MOL    H7549137   1.607   5.025   0.523 -0.4578  2.0157  2.2410
  222MOL    H7649138   1.661   4.834   0.407  1.6085 -1.1589 -1.1191
  222MOL    H7749139   1.527   4.872   0.305 -0.2765  1.3977  3.5828
  222MOL    H7849140   1.685   4.834   0.232  0.6432 -1.2632  1.4854
  222MOL    C7949141   1.458   5.154   0.433  0.4364 -0.3377 -0.1610
  222MOL    C8049142   1.384   5.172   0.564 -0.2992 -0.0819  0.0640
  222MOL    C8149143   1.404   5.063   0.663  0.5020 -0.5483  0.6873
  222MOL    O8249144   1.470   5.081   0.764  0.0585  0.2546  0.1481
  222MOL    C8349145   1.339   4.923   0.636 -0.4634  0.0163  0.4746
  222MOL    H8449146   1.396   5.083   0.378 -0.7440 -0.1372  0.8987
  222MOL    H8549147   1.464   5.243   0.371  2.2616 -0.2438  0.1121
  222MOL    H8649148   1.418   5.262   0.615  0.2690 -0.8170  1.0054
  222MOL    H8749149   1.328   4.909   0.528  2.5576  0.5918  0.0295
  222MOL    H8849150   1.238   4.921   0.675 -0.5573  1.3598  0.3067
  222MOL    H8949151   1.404   4.840   0.663 -0.9470 -0.7116 -0.5448
  222MOL    C9049152   1.232   5.202   0.550 -0.8100  0.4460 -0.0995
  222MOL    C9149153   1.154   5.233   0.680  0.8315  0.6196  0.1772
  222MOL    C9249154   1.218   5.357   0.742  0.0733 -0.0512  0.0754
  222MOL    O9349155   1.228   5.468   0.687 -0.0627 -0.1037 -0.1055
  222MOL    C9449156   1.281   5.332   0.880  0.3022  0.0807  0.2776
  222MOL    H9549157   1.197   5.274   0.476 -0.2846  0.9350  0.1252
  222MOL    H9649158   1.179   5.118   0.504 -0.5624  0.9450 -1.3145
  222MOL    H9749159   1.155   5.151   0.751 -0.2946  0.6643  0.2559
  222MOL    H9849160   1.206   5.299   0.952 -0.5523 -1.2219 -1.1577
  222MOL    H9949161   1.355   5.252   0.888 -0.0377 -0.2068  0.6130
  222MOL   H10049162   1.320   5.424   0.922 -0.6904  0.6131  0.0367
  222MOL   C10149163   1.001   5.260   0.647 -0.2022 -0.2929  0.2186
  222MOL   C10249164   0.907   5.274   0.769  0.6970 -0.0990 -0.0753
  222MOL   C10349165   0.842   5.144   0.815  0.4624 -0.2740  0.3293
  222MOL   O10449166   0.827   5.052   0.735 -0.2541  0.4803 -0.2547
  222MOL   C10549167   0.793   5.144   0.964  0.3398 -0.3584  0.1871
  222MOL   H10649168   0.990   5.358   0.602  0.2041 -0.4021 -0.1177
  222MOL   H10749169   0.967   5.185   0.576  1.4380 -0.3641 -0.5171
  222MOL   H10849170   0.962   5.317   0.853  1.9195 -0.8546 -0.4792
  222MOL   H10949171   0.685   5.139   0.950  0.3447  0.1784 -0.0857
  222MOL   H11049172   0.829   5.064   1.028 -1.2189  0.0309  1.5795
  222MOL   H11149173   0.818   5.242   1.006  2.6711 -1.2264  0.8748
  222MOL   C11249174   0.807   5.390   0.746  0.3262 -0.5751 -0.8671
  222MOL   C11349175   0.868   5.531   0.766  0.2110  0.3566  0.4734
  222MOL   C11449176   0.882   5.566   0.919 -0.1536 -0.3929  0.0757
  222MOL   O11549177   0.832   5.495   1.002  0.4601 -0.5667  0.3963
  222MOL   C11649178   0.948   5.699   0.959 -0.2664  0.4625 -0.0987
  222MOL   H11749179   0.712   5.384   0.799  0.0988  0.6092 -1.1268
  222MOL   H11849180   0.762   5.380   0.647 -0.6489 -0.3159 -0.4562
  222MOL   H11949181   0.967   5.537   0.720 -0.3391 -2.5095 -1.1824
  222MOL   H12049182   0.907   5.785   0.907  2.9689  1.7244 -0.6737
  222MOL   H12149183   0.955   5.707   1.067 -1.2468  3.6898 -0.2325
  222MOL   H12249184   1.051   5.686   0.924 -0.7714 -1.2617 -1.0346
  222MOL   C12349185   0.784   5.643   0.690 -0.3580  0.5148 -0.7846
  222MOL   C12449186   0.793   5.643   0.534  0.4652 -0.3204 -0.2701
  222MOL   C12549187   0.924   5.701   0.481 -0.4012 -0.5550 -0.4655
  222MOL   O12649188   0.965   5.816   0.499  0.2557 -0.3803  0.5159
  222MOL   C12749189   1.002   5.603   0.392  0.1712  0.5805  0.2931
  222MOL   H12849190   0.826   5.740   0.715  1.1968 -0.5886  0.9762
  222MOL   H12949191   0.678   5.638   0.718  0.1731 -0.5224  1.1669
  222MOL   H13049192   0.787   5.539   0.504  0.4454 -0.3247 -0.2512
  222MOL   H13149193   0.947   5.520   0.348  1.7138 -2.2860  3.5988
  222MOL   H13249194   1.082   5.563   0.455  1.2869  0.1891 -1.3255
  222MOL   H13349195   1.045   5.651   0.303  0.2288 -0.9946 -0.5437
  222MOL   C13449196   0.678   5.722   0.467  0.1629 -0.3275 -0.5711
  222MOL   C13549197   0.650   5.682   0.319  0.1372  0.3675 -0.4423
  222MOL   C13649198   0.634   5.538   0.289 -0.1857  0.7569  0.5878
  222MOL   O13749199   0.710   5.487   0.202  0.1590  0.7718  0.1588
  222MOL   C13849200   0.533   5.463   0.367 -0.3893 -0.6281  0.4724
  222MOL   H13949201   0.693   5.829   0.485  0.4590 -0.7490  1.8012
  222MOL   H14049202   0.591   5.689   0.525  2.2497 -1.1770  2.1624
  222MOL   H14149203   0.735   5.717   0.261  1.8492 -1.6109  0.8423
  222MOL   H14249204   0.591   5.431   0.455 -0.8300  0.0691  1.0192
  222MOL   H14349205   0.506   5.372   0.314  0.1499 -0.9209  0.6922
  222MOL   H14449206   0.441   5.518   0.383 -0.8887 -1.8541  2.0279
  222MOL   C14549207   0.522   5.762   0.277 -0.4010  0.2105  0.3946
  222MOL   C14649208   0.462   5.750   0.132  0.4161 -0.1504 -0.0697
  222MOL   C14749209   0.354   5.638   0.134  0.5759  0.0652 -0.0608
  222MOL   O14849210   0.260   5.640   0.217  0.1308 -0.7228 -0.9261
  222MOL   C14949211   0.367   5.526   0.032 -0.4258  0.1877  0.2941
  222MOL   H15049212   0.551   5.864   0.299 -2.5612  1.0857 -0.7051
  222MOL   H15149213   0.444   5.740   0.350 -1.0180  0.3419 -0.2164
  222MOL   H15249214   0.547   5.715   0.073  0.6404 -1.6121  1.0938
  222MOL   H15349215   0.433   5.445   0.065 -2.0940 -1.5630 -0.5759
  222MOL   H15449216   0.266   5.491   0.009 -0.8129  0.7451  1.1130
  222MOL   H15549217   0.403   5.561   7.793  0.8035 -1.2751  0.1974
  222MOL   C15649218   0.410   5.894   0.085  0.0950 -0.2298 -0.7213
  222MOL   C15749219   0.321   5.889   7.816  0.1935 -0.2526 -0.4557
  222MOL   C15849220   0.383   5.825   7.691  0.2765 -0.1867 -0.4404
  222MOL   O15949221   0.499   5.809   7.678  0.3018  0.2158 -0.4416
  222MOL   C16049222   0.292   5.766   7.581  0.1328 -0.1043  0.4567
  222MOL   H16149223   0.364   5.931   0.177  2.7298 -1.1223  1.0049
  222MOL   H16249224   0.489   5.964   0.061  2.5127 -2.7163 -0.2359
  222MOL   H16349225   0.242   5.820   7.847 -0.2361 -0.3049 -1.6330
  222MOL   H16449226   0.255   5.672   7.624 -0.3455  0.6329  1.6661
  222MOL   H16549227   0.352   5.746   7.492 -0.0530  1.6264 -0.0625
  222MOL   H16649228   0.204   5.830   7.569 -0.7772 -1.0123  2.0434
  222MOL   C16749229   0.265   6.026   7.773 -0.1030  0.6773 -0.2531
  222MOL   C16849230   0.146   6.079   0.003 -0.8374 -0.0858 -0.3627
  222MOL   C16949231   0.017   6.066   7.788 -0.1719 -0.5786  0.7634
  222MOL   O17049232   7.857   6.127   7.682  0.6549  0.6672 -0.6176
  222MOL   C17149233   7.785   5.954   7.838  0.3347 -0.0141 -0.6091
  222MOL   H17249234   0.347   6.098   7.773  0.4844  0.0206 -1.5044
  222MOL   H17349235   0.222   6.017   7.673  0.0429 -0.2914 -0.2353
  222MOL   H17449236   0.124   6.018   0.091 -1.1884  1.8881  0.9323
  222MOL   H17549237   7.723   5.999   0.058 -0.1064 -1.7991  0.0940
  222MOL   H17649238   7.818   5.860   0.025  2.3435  1.7494  1.7641
  222MOL   H17749239   7.725   5.934   7.749  0.1654 -0.9595 -0.2881
  222MOL   C17849240   0.173   6.226   0.060 -0.4586  0.9228  0.0927
  222MOL   C17949241   0.099   6.280   0.177  0.5128  0.0265 -0.0542
  222MOL   C18049242   0.138   6.187   0.294  0.3426  0.1198 -0.1482
  222MOL   O18149243   0.068   6.108   0.348  0.5579 -0.1326 -0.3249
  222MOL   C18249244   0.283   6.198   0.346  0.5012  0.5921 -0.5611
  222MOL   H18349245   0.280   6.235   0.082 -0.1672  2.1309 -1.6627
  222MOL   H18449246   0.168   6.301   7.838 -0.3448  1.3083  0.4479
  222MOL   H18549247   0.148   6.369   0.215 -0.0351  0.4592 -0.3570
  222MOL   H18649248   0.319   6.301   0.350  2.7839 -0.2153  0.1978
  222MOL   H18749249   0.356   6.142   0.287  1.7007  0.3907  1.0917
  222MOL   H18849250   0.288   6.152   0.444  0.5434 -0.3907 -1.0158
  222MOL   C18949251   7.809   6.281   0.156  1.0177  0.4733 -0.6282
  222MOL   C19049252   7.739   6.397   0.225 -0.7354  0.5053  0.1075
  222MOL   C19149253   7.814   6.532   0.211 -0.5827 -0.3593 -0.0057
  222MOL   O19249254   0.017   6.553   0.108  0.1535 -0.1288  0.3486
  222MOL   C19349255   7.811   6.637   0.324  1.2118 -0.9747 -0.4075
  222MOL   H19449256   7.792   6.286   0.049  1.8650  3.3173 -0.6877
  222MOL   H19549257   7.755   6.189   0.175  0.1695  0.6545 -2.0734
  222MOL   H19649258   7.738   6.377   0.332 -0.3601 -1.7799 -0.2782
  222MOL   H19749259   0.041   6.699   0.305  0.5926 -0.4226 -1.5350
  222MOL   H19849260   7.725   6.704   0.319  0.5780 -1.6714  0.9621
  222MOL   H19949261   7.828   6.598   0.424  3.0046  1.3887  0.2476
  222MOL   C20049262   7.591   6.419   0.180 -0.1140  0.3527 -0.0517
  222MOL   C20149263   7.576   6.433   0.027 -0.3443  0.5599 -0.4034
  222MOL   C20249264   7.476   6.541   7.849 -0.7341  0.0383  0.2957
  222MOL   O20349265   7.504   6.617   7.754  0.5783  0.1577  0.0344
  222MOL   C20449266   7.336   6.539   0.050  0.3650  0.1631 -0.4115
  222MOL   H20549267   7.519   6.341   0.206  0.2160 -0.1395 -0.5892
  222MOL   H20649268   7.550   6.503   0.237 -2.5359  1.3038 -3.0924
  222MOL   H20749269   7.674   6.455   7.842  0.0621 -0.1827  0.1195
  222MOL   H20849270   7.343   6.589   0.146 -1.6405  0.0604 -0.2013
  222MOL   H20949271   7.254   6.592   0.003  0.2848  1.0690  0.7300
  222MOL   H21049272   7.312   6.433   0.060  0.1331  0.2840  0.3500
  222MOL   C21149273   7.535   6.296   7.817 -0.4888 -0.2157 -0.0867
  222MOL   C21249274   7.526   6.292   7.662 -0.2961  0.0738  0.0458
  222MOL   C21349275   7.516   6.152   7.604 -0.5720 -0.1514 -0.6039
  222MOL   O21449276   7.454   6.057   7.651 -0.4898 -0.2611 -0.0636
  222MOL   C21549277   7.566   6.136   7.464 -0.4109 -0.3085 -0.4304
  222MOL   H21649278   7.610   6.230   0.002  1.8268  2.7676  0.6296
  222MOL   H21749279   7.442   6.265   0.006  0.1416  1.2552  2.2178
  222MOL   H21849280   7.624   6.330   7.632  0.3957  1.2715  3.6534
  222MOL   H21949281   7.556   6.034   7.426  1.3663 -0.7040  0.0974
  222MOL   H22049282   7.494   6.185   7.399 -1.2587 -0.1689  0.6044
  222MOL   H22149283   7.664   6.182   7.448 -0.2959 -0.6400 -0.6877
  222MOL   H22249284   7.442   6.353   7.631  0.2612  0.8306  0.0151
  223MOL     C149285   7.009   5.487   3.500 -0.3667 -0.4454  0.0356
  223MOL     C249286   6.864   5.479   3.434 -0.5823 -0.1212  0.0669
  223MOL     C349287   6.870   5.491   3.283  0.2876 -0.4989 -0.0781
  223MOL     O449288   6.920   5.400   3.218 -0.2502  0.1296  0.2695
  223MOL     C549289   6.854   5.631   3.222  0.4729  0.1957 -0.1365
  223MOL     H649290   7.074   5.403   3.475 -1.0303 -0.7015 -0.8786
  223MOL     H749291   7.013   5.509   3.606 -0.6823  2.5272 -0.5329
  223MOL     H849292   6.803   5.562   3.469 -0.1880 -0.6860  2.2038
  223MOL     H949293   6.946   5.656   3.170 -0.1595  1.2020 -0.7759
  223MOL    H1049294   6.772   5.623   3.151  1.0496 -1.4698 -0.6445
  223MOL    H1149295   6.838   5.707   3.299  2.2659  1.8815 -1.3849
  223MOL    H1249296   7.064   5.558   3.439 -1.1829 -0.8608 -1.2137
  223MOL    C1349297   6.784   5.355   3.486 -0.0147 -0.3125 -0.6587
  223MOL    C1449298   6.633   5.379   3.484  0.4109 -0.6206  0.2778
  223MOL    C1549299   6.594   5.504   3.571 -0.5682 -0.0574 -0.0773
  223MOL    O1649300   6.558   5.614   3.517  0.3720 -0.4394  0.0052
  223MOL    C1749301   6.592   5.481   3.724 -0.2908  1.0126  0.3832
  223MOL    H1849302   6.810   5.267   3.426 -1.9514 -1.0596 -0.4219
  223MOL    H1949303   6.813   5.329   3.588  3.3028  0.4698 -1.3487
  223MOL    H2049304   6.602   5.418   3.387 -0.0218 -0.6283  0.4101
  223MOL    H2149305   6.684   5.498   3.780 -1.1130  0.8561  1.8169
  223MOL    H2249306   6.543   5.569   3.767  1.0699  1.9879 -0.0305
  223MOL    H2349307   6.549   5.385   3.753  0.7448  0.7007  0.9269
  223MOL    C2449308   6.556   5.247   3.518 -0.6080 -0.8446 -0.4693
  223MOL    C2549309   6.512   5.154   3.402 -0.3261 -0.4142  0.3720
  223MOL    C2649310   6.638   5.086   3.335 -0.0852  0.0394  0.3143
  223MOL    O2749311   6.700   5.001   3.395 -0.8424  1.3723 -0.6697
  223MOL    C2849312   6.672   5.132   3.197 -0.0223  0.7244 -0.2514
  223MOL    H2949313   6.614   5.193   3.593  0.9814 -0.1426 -1.1607
  223MOL    H3049314   6.469   5.271   3.579 -0.8064 -0.5369 -0.8687
  223MOL    H3149315   6.457   5.211   3.328 -0.1614 -1.6288 -0.6941
  223MOL    H3249316   6.655   5.057   3.119  0.7485  0.1752  0.1062
  223MOL    H3349317   6.616   5.221   3.168  0.9351  0.5079 -2.9214
  223MOL    H3449318   6.778   5.155   3.201  0.2483 -0.8207  2.8229
  223MOL    C3549319   6.420   5.042   3.452  0.2912  0.4702 -0.5086
  223MOL    C3649320   6.358   4.956   3.337  0.1676  0.4873  0.2497
  223MOL    C3749321   6.321   4.815   3.390  0.4818 -0.2273 -0.0677
  223MOL    O3849322   6.208   4.787   3.434  0.1163 -0.0266 -0.6211
  223MOL    C3949323   6.426   4.708   3.374  0.6504  0.1142 -0.3841
  223MOL    H4049324   6.340   5.086   3.511  0.9351  2.3563 -0.9976
  223MOL    H4149325   6.473   4.975   3.519  0.5846 -0.4338 -1.6158
  223MOL    H4249326   6.423   4.932   3.253  1.2381 -2.1108  1.7632
  223MOL    H4349327   6.475   4.708   3.276 -1.8222 -1.7220 -1.6733
  223MOL    H4449328   6.403   4.602   3.391  3.0385 -0.7279 -2.1142
  223MOL    H4549329   6.512   4.724   3.439 -0.3058 -0.1166  0.9523
  223MOL    C4649330   6.225   5.035   3.278  0.8380 -0.5439  0.7740
  223MOL    C4749331   6.175   4.979   3.140  0.4506 -0.4408  0.4570
  223MOL    C4849332   6.038   5.030   3.111  1.0637  0.4799  0.2208
  223MOL    O4949333   5.954   4.947   3.074 -0.3275 -0.0586 -0.1688
  223MOL    C5049334   5.995   5.171   3.137 -0.6792  0.4446  0.1505
  223MOL    H5149335   6.230   5.143   3.293 -2.0913 -0.0015 -1.8498
  223MOL    H5249336   6.143   5.021   3.348  0.9838 -2.4636  0.5870
  223MOL    H5349337   6.151   4.873   3.150  0.5709 -0.5431 -0.3259
  223MOL    H5449338   5.938   5.184   3.229 -1.3207  0.7807 -0.2911
  223MOL    H5549339   6.082   5.237   3.134  0.6539 -1.2082  1.6264
  223MOL    H5649340   5.913   5.192   3.069 -1.2051 -0.1324  0.5997
  223MOL    C5749341   6.273   5.000   3.016 -0.5807 -0.3144  0.0817
  223MOL    C5849342   6.351   4.872   2.979  0.7858  0.1478  0.4477
  223MOL    C5949343   6.255   4.770   2.926 -0.3463  0.1796  0.1814
  223MOL    O6049344   6.242   4.659   2.979 -0.8567  0.1455  0.0978
  223MOL    C6149345   6.183   4.796   2.798 -0.0845  0.1916  0.1357
  223MOL    H6249346   6.335   5.084   3.047 -0.1249 -0.8574  0.6653
  223MOL    H6349347   6.216   5.031   2.928  0.5460 -1.3485 -1.0289
  223MOL    H6449348   6.407   4.837   3.067 -1.5316 -2.6850  0.8725
  223MOL    H6549349   6.178   4.700   2.747 -1.1771 -0.1514  0.8692
  223MOL    H6649350   6.080   4.819   2.826 -0.4211 -2.0618  0.8659
  223MOL    H6749351   6.234   4.866   2.732 -1.0375 -1.5285 -2.5090
  223MOL    C6849352   6.469   4.907   2.884 -0.8468  1.2496  0.4852
  223MOL    C6949353   6.548   4.788   2.830  0.5013 -0.2087  0.4781
  223MOL    C7049354   6.617   4.721   2.955  0.1757  0.2576 -0.4865
  223MOL    O7149355   6.690   4.785   3.037  0.0679 -0.0459 -0.0643
  223MOL    C7249356   6.591   4.572   2.974 -0.1169  0.3662  0.1783
  223MOL    H7349357   6.420   4.958   2.801 -0.3544  0.3081 -0.4030
  223MOL    H7449358   6.544   4.971   2.930 -1.6534  1.6285  1.2653
  223MOL    H7549359   6.484   4.713   2.783  1.5389 -1.3560  0.8700
  223MOL    H7649360   6.684   4.522   2.999 -0.7636 -0.7975  0.3024
  223MOL    H7749361   6.519   4.556   3.055  0.8007 -0.2804  0.8776
  223MOL    H7849362   6.559   4.512   2.889  2.1738  1.7923 -1.7419
  223MOL    C7949363   6.647   4.844   2.730 -0.3662 -0.3347  0.3683
  223MOL    C8049364   6.758   4.752   2.688  0.3312  0.5094 -0.4886
  223MOL    C8149365   6.865   4.834   2.622 -0.3651  0.2059  0.3512
  223MOL    O8249366   6.834   4.935   2.557 -0.4717  0.1245  0.7234
  223MOL    C8349367   7.010   4.789   2.631 -0.4355  0.2914 -0.0456
  223MOL    H8449368   6.696   4.923   2.788  0.3473 -0.6543  0.2047
  223MOL    H8549369   6.599   4.880   2.640  0.8203  2.0187  0.6241
  223MOL    H8649370   6.812   4.719   2.776 -0.0418 -1.4690 -0.9767
  223MOL    H8749371   7.076   4.874   2.614  1.0910 -1.0245 -0.8071
  223MOL    H8849372   7.034   4.713   2.556 -0.2506  1.2739 -0.9955
  223MOL    H8949373   7.031   4.754   2.732 -0.0762  3.0226  0.8684
  223MOL    C9049374   6.716   4.632   2.604 -0.3056 -0.2327  0.6822
  223MOL    C9149375   6.627   4.661   2.479  0.1857  0.3962 -0.0969
  223MOL    C9249376   6.715   4.691   2.350 -0.5887 -0.0061 -0.1298
  223MOL    O9349377   6.794   4.608   2.302 -0.1654  0.2792 -0.2642
  223MOL    C9449378   6.669   4.808   2.268  0.0485 -0.5593  0.4450
  223MOL    H9549379   6.801   4.574   2.567 -1.1331  0.8450 -3.0800
  223MOL    H9649380   6.665   4.574   2.681  0.6776 -0.5444  1.1097
  223MOL    H9749381   6.551   4.735   2.501  1.3175  1.4477  0.3432
  223MOL    H9849382   6.596   4.765   2.200 -0.0777  0.6450 -0.1940
  223MOL    H9949383   6.619   4.888   2.322 -0.1817 -0.9191  0.7733
  223MOL   H10049384   6.753   4.852   2.214  0.1435 -1.0644  0.1765
  223MOL   C10149385   6.545   4.527   2.447  0.5566 -0.3382 -0.2592
  223MOL   C10249386   6.439   4.536   2.336 -0.6122  0.8436 -0.4741
  223MOL   C10349387   6.321   4.618   2.379 -0.4287 -0.7039 -0.1942
  223MOL   O10449388   6.313   4.737   2.343  0.2368 -0.5391 -0.3733
  223MOL   C10549389   6.217   4.560   2.477  1.0181  0.7765 -0.3846
  223MOL   H10649390   6.620   4.452   2.421  0.0673 -0.0924 -2.4406
  223MOL   H10749391   6.494   4.495   2.538  0.5903 -1.3706 -0.6013
  223MOL   H10849392   6.482   4.588   2.250 -0.8524  1.7462 -0.0586
  223MOL   H10949393   6.160   4.478   2.434 -0.1857  1.3654  0.0656
  223MOL   H11049394   6.261   4.548   2.576 -0.3605  0.3820  0.1985
  223MOL   H11149395   6.148   4.644   2.485 -0.3212 -0.1681 -1.7606
  223MOL   C11249396   6.392   4.394   2.285 -0.7470 -0.1777 -0.4483
  223MOL   C11349397   6.288   4.395   2.168 -0.3104  1.1315  0.3821
  223MOL   C11449398   6.201   4.268   2.175  1.1593  0.0350  0.2202
  223MOL   O11549399   6.081   4.278   2.209  0.1071  0.1440 -0.3601
  223MOL   C11649400   6.263   4.135   2.125  0.2895 -0.3580 -0.2814
  223MOL   H11749401   6.352   4.331   2.364  0.6312  0.1647  0.5378
  223MOL   H11849402   6.470   4.324   2.253 -0.5740 -0.1719 -0.0339
  223MOL   H11949403   6.209   4.469   2.178 -1.4394 -0.1545  1.1888
  223MOL   H12049404   6.302   4.138   2.024  2.2802 -2.1601  0.3930
  223MOL   H12149405   6.340   4.116   2.199  0.7432  0.8650 -0.4370
  223MOL   H12249406   6.182   4.062   2.135  0.2655 -0.6810 -2.6258
  223MOL   C12349407   6.336   4.435   2.024  0.3104  0.1268  0.5698
  223MOL   C12449408   6.244   4.426   1.901  0.2038  0.0910  1.1280
  223MOL   C12549409   6.324   4.425   1.770  0.1332  0.2190 -0.3590
  223MOL   O12649410   6.417   4.502   1.746 -0.3292 -0.8334 -0.7362
  223MOL   C12749411   6.288   4.301   1.685  0.4681  0.0920 -0.0080
  223MOL   H12849412   6.414   4.361   2.008 -2.6927 -2.9326 -0.5159
  223MOL   H12949413   6.375   4.537   2.028  0.1810  0.1758  0.6159
  223MOL   H13049414   6.181   4.338   1.915 -0.7682  0.6558  0.3038
  223MOL   H13149415   6.350   4.219   1.720  3.7872  2.6519  0.3132
  223MOL   H13249416   6.309   4.327   1.581  0.2105  1.2774  0.2250
  223MOL   H13349417   6.183   4.269   1.679  0.1817  0.7665  1.1622
  223MOL   C13449418   6.141   4.543   1.915  0.1279  0.6000  0.0682
  223MOL   C13549419   6.020   4.557   1.815  0.6993 -0.3487  0.7003
  223MOL   C13649420   5.885   4.547   1.886 -0.0079  0.1757 -0.7458
  223MOL   O13749421   5.808   4.641   1.905  0.4216  0.2722 -0.3445
  223MOL   C13849422   5.848   4.415   1.941  0.3136  0.4116  0.4302
  223MOL   H13949423   6.199   4.635   1.912  0.4138  0.4253  0.1779
  223MOL   H14049424   6.101   4.544   2.017 -1.3541 -0.7492 -0.4701
  223MOL   H14149425   6.016   4.476   1.742 -0.8472 -0.4636  0.8839
  223MOL   H14249426   5.750   4.381   1.907  0.2277  1.6827 -0.6445
  223MOL   H14349427   5.855   4.410   2.049  1.0864 -3.0405  0.2837
  223MOL   H14449428   5.929   4.352   1.904  0.0582 -0.7481  1.7991
  223MOL   C14549429   6.043   4.686   1.725 -0.3623  0.2391 -0.1037
  223MOL   C14649430   5.937   4.716   1.621  0.3259  0.4971 -0.4651
  223MOL   C14749431   5.955   4.857   1.566 -0.2408  0.2224 -0.3283
  223MOL   O14849432   5.997   4.872   1.449 -0.2151 -0.0932 -0.3886
  223MOL   C14949433   5.923   4.965   1.669 -0.0627 -0.2278  0.1316
  223MOL   H15049434   6.141   4.676   1.677  0.8776  2.0627  1.9646
  223MOL   H15149435   6.041   4.772   1.792 -1.7819 -1.2249  1.7582
  223MOL   H15249436   5.835   4.722   1.660 -0.3520 -2.3714 -1.7058
  223MOL   H15349437   6.012   5.025   1.685  0.3786 -0.7976 -0.1609
  223MOL   H15449438   5.840   5.024   1.632  0.2249  0.1038  0.0105
  223MOL   H15549439   5.891   4.921   1.763 -3.3630 -0.2543 -0.9506
  223MOL   C15649440   5.931   4.615   1.508  0.4142  0.0974 -0.0406
  223MOL   C15749441   5.802   4.635   1.416  0.2526  0.6043  0.3417
  223MOL   C15849442   5.670   4.580   1.469  0.2124 -0.3103 -0.4842
  223MOL   O15949443   5.668   4.496   1.564  0.1281  0.4783  0.2982
  223MOL   C16049444   5.544   4.656   1.425  0.5003 -0.2947  0.1237
  223MOL   H16149445   6.028   4.617   1.456  0.7539 -0.9663  0.5411
  223MOL   H16249446   5.933   4.516   1.554  2.1018  0.4898  0.7838
  223MOL   H16349447   5.779   4.740   1.403 -0.4957  0.3172 -0.6713
  223MOL   H16449448   5.475   4.597   1.364 -0.8094  0.9338  0.3885
  223MOL   H16549449   5.586   4.731   1.357  0.6369  1.0160  1.6244
  223MOL   H16649450   5.488   4.701   1.507  0.5957 -0.9682  0.5618
  223MOL   C16749451   5.838   4.562   1.281 -0.3585 -0.3364  0.1001
  223MOL   C16849452   5.945   4.639   1.196 -0.6581 -0.6409 -0.1045
  223MOL   C16949453   5.880   4.762   1.122  0.5446  0.7104 -0.1909
  223MOL   O17049454   5.766   4.759   1.082 -0.9401  0.1639 -0.7800
  223MOL   C17149455   5.975   4.886   1.111 -0.2076  0.5662 -0.0128
  223MOL   H17249456   5.873   4.463   1.308 -0.7259 -0.0126  1.8570
  223MOL   H17349457   5.742   4.546   1.231  0.4796  0.2067 -1.7345
  223MOL   H17449458   6.023   4.674   1.263 -0.7183  1.3814 -1.0504
  223MOL   H17549459   5.927   4.973   1.065 -0.0097  2.0977  2.6175
  223MOL   H17649460   6.057   4.868   1.042 -1.1784  2.2777 -1.6863
  223MOL   H17749461   6.006   4.923   1.208 -0.2375  1.0368 -0.1787
  223MOL   C17849462   6.017   4.552   1.095 -0.4964 -0.4892 -0.4427
  223MOL   C17949463   6.105   4.448   1.155  0.1518  0.3703 -0.1184
  223MOL   C18049464   6.225   4.513   1.222 -0.5804 -0.0982 -0.6036
  223MOL   O18149465   6.247   4.482   1.338  0.0442 -0.4369 -0.6019
  223MOL   C18249466   6.316   4.612   1.158 -0.3687 -0.2700  0.2411
  223MOL   H18349467   5.943   4.494   1.041 -0.2010 -0.1606 -1.2028
  223MOL   H18449468   6.079   4.603   1.022 -1.3921  1.2475 -0.0430
  223MOL   H18549469   6.056   4.393   1.235  0.5736 -1.0654 -0.8269
  223MOL   H18649470   6.326   4.571   1.058 -0.3869  0.7140 -0.1670
  223MOL   H18749471   6.422   4.614   1.184 -0.0014 -1.9053 -1.0896
  223MOL   H18849472   6.283   4.716   1.163  2.3652  0.7156 -1.0101
  223MOL   C18949473   6.159   4.340   1.056 -0.0416 -0.0068  0.0021
  223MOL   C19049474   6.228   4.213   1.120  0.1678 -1.1029 -0.1783
  223MOL   C19149475   6.126   4.135   1.201  0.0544  0.0854 -0.3638
  223MOL   O19249476   6.019   4.109   1.151 -0.0502 -0.9725  0.5869
  223MOL   C19349477   6.165   4.081   1.336  0.1276 -0.1392  0.5279
  223MOL   H19449478   6.074   4.316   0.991 -0.7666  2.4186 -0.0025
  223MOL   H19549479   6.236   4.396   1.003 -0.6527  0.6270 -0.2290
  223MOL   H19649480   6.300   4.244   1.196 -1.0109 -0.1566  0.5602
  223MOL   H19749481   6.181   4.166   1.403 -1.0627  1.9696 -1.7466
  223MOL   H19849482   6.072   4.040   1.376  0.4799 -1.4931 -0.0236
  223MOL   H19949483   6.246   4.010   1.322  0.1796 -1.0047  4.5768
  223MOL   C20049484   6.298   4.124   1.016 -0.0629 -0.1325  0.1173
  223MOL   C20149485   6.419   4.038   1.062 -0.2809  0.1572  0.1843
  223MOL   C20249486   6.522   4.120   1.137 -0.0960 -0.3557  0.6888
  223MOL   O20349487   6.545   4.237   1.113 -0.5294 -0.2561  0.1192
  223MOL   C20449488   6.589   4.062   1.258  0.1411 -0.4074 -0.7784
  223MOL   H20549489   6.223   4.063   0.966  0.0052  0.6897 -1.0119
  223MOL   H20649490   6.333   4.180   0.929  1.8055 -1.8496 -0.2614
  223MOL   H20749491   6.382   3.954   1.122  0.7962 -1.0564 -0.8140
  223MOL   H20849492   6.532   3.980   1.302  3.2096 -2.5675 -0.6443
  223MOL   H20949493   6.687   4.021   1.233  0.4393 -0.7864  0.9244
  223MOL   H21049494   6.602   4.139   1.334 -0.4343 -1.7007  0.6668
  223MOL   C21149495   6.489   3.979   0.936 -0.0737  0.0745 -0.2174
  223MOL   C21249496   6.613   3.890   0.956 -0.6377 -0.2496  0.4320
  223MOL   C21349497   6.584   3.739   0.990 -0.5006  0.0070 -0.3274
  223MOL   O21449498   6.526   3.668   0.908 -0.1262 -0.6701 -0.0181
  223MOL   C21549499   6.596   3.698   1.140 -0.5589 -0.3012  0.0465
  223MOL   H21649500   6.417   3.924   0.875  0.7856 -1.1997 -0.1006
  223MOL   H21749501   6.518   4.058   0.867 -0.0378  0.0639 -0.2135
  223MOL   H21849502   6.692   3.923   1.023  0.1524 -0.9023 -0.1700
  223MOL   H21949503   6.505   3.650   1.176  0.4197 -1.8286  0.5232
  223MOL   H22049504   6.669   3.618   1.144  0.5141  0.5159 -2.0699
  223MOL   H22149505   6.631   3.778   1.205  0.4234  0.4968 -1.4419
  223MOL   H22249506   6.661   3.886   0.858  1.3968 -0.8974  1.4188
  224MOL     C149507   3.417   5.777   6.707 -0.1531 -0.0202 -0.1886
  224MOL     C249508   3.282   5.743   6.785  0.0949 -0.2515 -0.3105
  224MOL     C349509   3.279   5.595   6.836 -0.5110 -0.0260  0.1191
  224MOL     O449510   3.326   5.567   6.947  0.1331 -0.7073 -0.5354
  224MOL     C549511   3.225   5.488   6.749  0.0855  0.3607 -0.1834
  224MOL     H649512   3.496   5.702   6.718 -1.4079 -1.2384  0.7411
  224MOL     H749513   3.446   5.881   6.721 -0.7456  0.0964  0.1543
  224MOL     H849514   3.198   5.769   6.721 -0.1429  0.2545  0.2043
  224MOL     H949515   3.235   5.515   6.643  4.1248  1.7743  0.5002
  224MOL    H1049516   3.277   5.393   6.755  0.5499  0.7526  2.8023
  224MOL    H1149517   3.118   5.479   6.767  0.3959 -1.4751  0.8535
  224MOL    H1249518   3.383   5.759   6.605  0.7504 -0.6656 -0.3895
  224MOL    C1349519   3.264   5.829   6.909  0.0066  0.0617  0.6889
  224MOL    C1449520   3.224   5.968   6.868 -0.4360  0.3003 -0.0977
  224MOL    C1549521   3.266   6.074   6.973  0.1632 -0.2516 -0.6220
  224MOL    O1649522   3.190   6.106   7.065  0.3528 -0.2441  0.2962
  224MOL    C1749523   3.409   6.120   6.969  0.6253  0.5066  0.6265
  224MOL    H1849524   3.179   5.790   6.964 -2.1612 -0.3127 -2.8252
  224MOL    H1949525   3.351   5.808   6.971  0.2949 -0.0881  0.2344
  224MOL    H2049526   3.283   5.994   6.780 -0.7591  1.8934  0.1437
  224MOL    H2149527   3.411   6.220   6.925  0.2559 -0.1132 -0.8374
  224MOL    H2249528   3.450   6.132   7.069  0.6194  1.6510  0.4977
  224MOL    H2349529   3.468   6.051   6.908  1.0269 -0.0477  1.6384
  224MOL    C2449530   3.077   5.982   6.834  0.4461 -0.9455  0.5003
  224MOL    C2549531   3.038   6.094   6.740 -0.0627  0.2162  0.4229
  224MOL    C2649532   3.121   6.085   6.605  0.7578  0.2522 -0.7616
  224MOL    O2749533   3.196   6.176   6.570  0.3277 -0.0482  0.6119
  224MOL    C2849534   3.101   5.962   6.513  0.2780  0.0698  0.2363
  224MOL    H2949535   3.041   5.893   6.783  0.7789 -2.0102  2.0664
  224MOL    H3049536   3.012   5.978   6.921  0.3112  0.7491  0.4850
  224MOL    H3149537   3.083   6.186   6.778 -0.7489  0.1711  1.3666
  224MOL    H3249538   3.078   5.872   6.570 -0.0913 -0.1376 -0.2363
  224MOL    H3349539   3.039   5.988   6.428  3.0112  4.1846 -0.6320
  224MOL    H3449540   3.198   5.943   6.467  1.3480  1.9237  1.6503
  224MOL    C3549541   2.886   6.096   6.716  0.3376 -0.0980  0.6732
  224MOL    C3649542   2.807   6.176   6.829  0.2149  0.2058  0.7936
  224MOL    C3749543   2.870   6.314   6.851  0.3146 -0.4140  0.5890
  224MOL    O3849544   2.851   6.401   6.768 -0.1661 -0.6344 -0.5479
  224MOL    C3949545   2.945   6.349   6.976 -0.4901 -0.1928  0.3236
  224MOL    H4049546   2.851   5.994   6.700  1.8640 -0.4712 -0.3941
  224MOL    H4149547   2.853   6.147   6.625 -2.3930 -2.2986  0.3719
  224MOL    H4249548   2.807   6.130   6.928 -0.4783  0.7385  1.0473
  224MOL    H4349549   2.910   6.441   7.024 -0.1231 -0.0624  0.3449
  224MOL    H4449550   3.050   6.363   6.952 -0.9800  0.7891 -1.3349
  224MOL    H4549551   2.931   6.263   7.041 -0.7193  0.5407  1.2608
  224MOL    C4649552   2.657   6.187   6.787 -0.4049  0.5865 -0.2489
  224MOL    C4749553   2.573   6.283   6.876  0.4298 -0.1075 -0.2215
  224MOL    C4849554   2.440   6.315   6.805 -0.2711 -0.2718  0.1612
  224MOL    O4949555   2.352   6.230   6.795 -0.1933  0.9009 -0.0640
  224MOL    C5049556   2.432   6.453   6.745  0.1295  0.7158 -0.6086
  224MOL    H5149557   2.609   6.090   6.799  1.5982 -0.2677  0.9253
  224MOL    H5249558   2.652   6.226   6.685  0.8437  0.4248 -0.3719
  224MOL    H5349559   2.622   6.379   6.890 -0.0620  0.2355 -0.7724
  224MOL    H5449560   2.369   6.510   6.813  1.1419  0.9868  0.1231
  224MOL    H5549561   2.520   6.516   6.730  0.9873 -0.2823  0.1819
  224MOL    H5649562   2.388   6.444   6.646 -1.6508  0.6077  0.1841
  224MOL    C5749563   2.527   6.215   7.010 -0.2244  0.8295 -0.5228
  224MOL    C5849564   2.613   6.256   7.132 -0.4022  0.7617  0.2755
  224MOL    C5949565   2.596   6.401   7.171 -0.3812 -0.5061 -0.5116
  224MOL    O6049566   2.689   6.479   7.167 -0.3272 -0.5064  0.1976
  224MOL    C6149567   2.457   6.443   7.221 -0.3528 -0.4472  0.3045
  224MOL    H6249568   2.522   6.107   6.997  1.2099  0.8314 -1.1589
  224MOL    H6349569   2.421   6.225   7.033  0.0468  0.5421  0.8830
  224MOL    H6449570   2.715   6.239   7.098  0.2840  0.8574  2.2129
  224MOL    H6549571   2.417   6.374   7.295 -0.5997 -0.2667  0.3399
  224MOL    H6649572   2.467   6.543   7.265  1.5954 -0.4640 -0.0803
  224MOL    H6749573   2.383   6.435   7.141  1.9308  0.8008 -2.0279
  224MOL    C6849574   2.595   6.158   7.250  0.0482  0.9562 -0.1040
  224MOL    C6949575   2.708   6.169   7.360  0.3926 -0.8949 -0.1973
  224MOL    C7049576   2.841   6.102   7.318  0.4659  0.0025 -0.1348
  224MOL    O7149577   2.848   6.008   7.238  0.3028  0.4511  0.0570
  224MOL    C7249578   2.969   6.158   7.388  0.5598  0.0776 -0.4438
  224MOL    H7349579   2.497   6.172   7.296  0.4534  0.8270  0.8111
  224MOL    H7449580   2.598   6.057   7.210  1.1807  0.8006  0.3548
  224MOL    H7549581   2.724   6.277   7.373 -0.4292 -0.9109  1.1023
  224MOL    H7649582   3.003   6.074   7.448  1.6241  0.9329  0.1528
  224MOL    H7749583   3.040   6.175   7.307  0.9480  1.1423  0.1170
  224MOL    H7849584   2.950   6.246   7.449 -1.3418 -0.4238 -0.2577
  224MOL    C7949585   2.666   6.139   7.496  0.3705  0.1622 -0.6357
  224MOL    C8049586   2.690   5.998   7.562  0.0271  0.0235  0.0416
  224MOL    C8149587   2.610   5.888   7.488  0.2637  0.2813 -0.6107
  224MOL    O8249588   2.665   5.784   7.458  0.2555 -0.3902 -0.2151
  224MOL    C8349589   2.461   5.904   7.479  0.5526 -0.7449 -0.4566
  224MOL    H8449590   2.561   6.168   7.496  0.2884 -0.1179 -2.0461
  224MOL    H8549591   2.709   6.206   7.571  1.6823 -0.7951 -0.5143
  224MOL    H8649592   2.795   5.967   7.557 -0.1782 -0.5942 -0.5689
  224MOL    H8749593   2.432   6.001   7.519 -0.1077 -1.2239  0.2499
  224MOL    H8849594   2.417   5.824   7.538  0.9253 -0.0140  0.8178
  224MOL    H8949595   2.440   5.890   7.372  1.0628 -0.3044 -0.6163
  224MOL    C9049596   2.653   6.009   7.706  0.2488 -0.4002  0.0596
  224MOL    C9149597   2.673   5.884   7.800 -0.6484  0.3815 -0.7001
  224MOL    C9249598   2.816   5.819   7.778  0.2987  0.0248 -0.2646
  224MOL    O9349599   2.919   5.884   7.767 -0.9095  0.3517  0.1391
  224MOL    C9449600   2.822   5.664   7.766 -0.1114 -0.0673  0.0828
  224MOL    H9549601   2.715   6.087   7.748 -2.1782  2.0948 -0.8284
  224MOL    H9649602   2.551   6.047   7.706  0.1266 -0.6956  1.4317
  224MOL    H9749603   2.595   5.815   7.768 -1.5621  1.5343 -1.0044
  224MOL    H9849604   2.924   5.627   7.767 -0.9497 -2.4246  1.5957
  224MOL    H9949605   2.763   5.604   7.835 -0.0309  0.1737  0.3613
  224MOL   H10049606   2.787   5.640   7.665  1.8709 -0.4516 -0.5193
  224MOL   C10149607   2.659   5.910   0.093 -0.9099  0.4414 -0.2699
  224MOL   C10249608   2.617   5.784   0.173 -0.1197  0.1581 -0.8616
  224MOL   C10349609   2.466   5.788   0.172 -0.4855  0.3408  0.9067
  224MOL   O10449610   2.399   5.872   0.235  0.0654 -0.1431 -0.1809
  224MOL   C10549611   2.385   5.684   0.098 -0.1764  0.3879 -0.1019
  224MOL   H10649612   2.750   5.952   0.135 -1.1870  0.3534  0.4086
  224MOL   H10749613   2.596   5.998   0.103 -1.8482 -0.5357  2.9584
  224MOL   H10849614   2.648   5.695   0.117 -0.3620 -1.3690  1.3816
  224MOL   H10949615   2.384   5.708   7.849 -3.2142  1.7506  0.1717
  224MOL   H11049616   2.432   5.588   0.120 -1.2275 -0.8497 -3.0086
  224MOL   H11149617   2.284   5.687   0.138  0.0684 -0.0476  0.5646
  224MOL   C11249618   2.686   5.760   0.307 -0.2487  0.1259  0.2690
  224MOL   C11349619   2.692   5.616   0.378  0.6096 -0.0893  0.2224
  224MOL   C11449620   2.779   5.519   0.296  0.7397  0.3097  0.0130
  224MOL   O11549621   2.733   5.464   0.195 -0.8208  0.0041  0.5977
  224MOL   C11649622   2.916   5.491   0.341 -0.3597 -0.0351 -0.1946
  224MOL   H11749623   2.659   5.838   0.379  0.5533 -0.3301  1.0896
  224MOL   H11849624   2.788   5.799   0.295 -1.5306  3.4932 -0.1427
  224MOL   H11949625   2.740   5.634   0.474 -0.2708 -0.7679  0.7957
  224MOL   H12049626   2.958   5.396   0.308  1.6574  1.3735 -1.8994
  224MOL   H12149627   2.994   5.567   0.329  1.1275 -1.5049  0.0385
  224MOL   H12249628   2.918   5.484   0.450  1.0363  0.6151 -0.1542
  224MOL   C12349629   2.556   5.553   0.412  0.1276  0.1887 -0.1904
  224MOL   C12449630   2.484   5.607   0.536 -1.3509 -0.3821  0.1420
  224MOL   C12549631   2.543   5.534   0.658  0.3618  0.1498  0.3018
  224MOL   O12649632   2.647   5.575   0.706  0.0184 -0.3611 -0.3497
  224MOL   C12749633   2.475   5.411   0.707 -0.0491 -0.2217 -0.1410
  224MOL   H12849634   2.570   5.446   0.424  0.2389  0.3914  1.5106
  224MOL   H12949635   2.485   5.559   0.330  0.4506 -1.3526 -0.5916
  224MOL   H13049636   2.523   5.705   0.562  0.9140 -1.0273 -0.7447
  224MOL   H13149637   2.401   5.436   0.783  0.5681  2.1196 -0.3008
  224MOL   H13249638   2.549   5.350   0.760  1.3164 -0.1231 -1.9047
  224MOL   H13349639   2.444   5.357   0.617  0.9805  2.3698 -2.1057
  224MOL   C13449640   2.335   5.602   0.536  0.0229 -0.3490 -0.0021
  224MOL   C13549641   2.270   5.674   0.654 -0.5515 -0.5417 -0.2649
  224MOL   C13649642   2.307   5.825   0.648 -0.0289 -0.5950 -0.2326
  224MOL   O13749643   2.238   5.898   0.575  0.0167  0.4014  0.6338
  224MOL   C13849644   2.427   5.871   0.726 -0.6038  0.3218  0.7256
  224MOL   H13949645   2.298   5.499   0.528 -1.2326 -0.0131  1.3678
  224MOL   H14049646   2.298   5.649   0.445  0.6503  3.2987  1.5729
  224MOL   H14149647   2.302   5.619   0.743 -0.3238 -0.5343 -0.3431
  224MOL   H14249648   2.394   5.944   0.800 -0.7382  0.0004  0.9810
  224MOL   H14349649   2.505   5.917   0.665  0.7894 -0.8084  1.6025
  224MOL   H14449650   2.465   5.794   0.793 -2.6438 -0.9072  0.4956
  224MOL   C14549651   2.117   5.653   0.651 -0.3002  0.4188  0.2149
  224MOL   C14649652   2.047   5.710   0.777 -0.5727  0.0629  0.2466
  224MOL   C14749653   1.900   5.747   0.750 -0.0477 -0.6543  0.4116
  224MOL   O14849654   1.806   5.673   0.749  0.5520  0.4840 -0.0222
  224MOL   C14949655   1.884   5.895   0.720  0.0762 -0.2645 -0.0370
  224MOL   H15049656   2.098   5.547   0.632  0.6980  0.3481 -0.4657
  224MOL   H15149657   2.081   5.689   0.555 -1.0411 -1.9902 -0.4350
  224MOL   H15249658   2.090   5.808   0.794 -0.2067 -0.0790  0.1400
  224MOL   H15349659   1.906   5.959   0.805 -0.0391 -0.9814  0.5429
  224MOL   H15449660   1.935   5.915   0.626 -1.6068 -0.6183 -1.0574
  224MOL   H15549661   1.778   5.919   0.707  0.3988  1.4882  0.3979
  224MOL   C15649662   2.068   5.602   0.888  0.2464  0.1179  0.1304
  224MOL   C15749663   2.062   5.665   1.031 -0.2598 -0.1918 -0.0790
  224MOL   C15849664   2.185   5.756   1.049 -0.0636  0.2809 -0.2110
  224MOL   O15949665   2.302   5.721   1.006  0.6626  0.3655 -0.0614
  224MOL   C16049666   2.172   5.892   1.135 -0.0353  0.2351  0.2330
  224MOL   H16149667   2.001   5.517   0.877 -0.3201  0.7281 -1.2332
  224MOL   H16249668   2.165   5.555   0.871  1.4478  1.9964  1.6841
  224MOL   H16349669   1.972   5.724   1.044  0.3237  0.0624  3.1288
  224MOL   H16449670   2.122   5.884   1.231 -0.1898 -0.0742  0.1266
  224MOL   H16549671   2.151   5.980   1.074 -0.3887 -0.6754 -0.9793
  224MOL   H16649672   2.277   5.910   1.160  0.3407 -2.5764  0.7605
  224MOL   C16749673   2.059   5.552   1.141 -0.7398  0.5640  0.3929
  224MOL   C16849674   2.033   5.599   1.287  0.9694  0.1426 -0.5038
  224MOL   C16949675   2.091   5.505   1.392  0.1729 -0.7606 -0.2566
  224MOL   O17049676   2.035   5.399   1.429  0.0790  0.0357  0.3359
  224MOL   C17149677   2.212   5.552   1.468  0.4752  0.0737  0.1905
  224MOL   H17249678   1.984   5.480   1.110 -1.5466  1.0033  1.3057
  224MOL   H17349679   2.151   5.494   1.136 -3.1362 -3.3757  0.2196
  224MOL   H17449680   2.076   5.699   1.287  2.5913 -0.5344  0.5015
  224MOL   H17549681   2.289   5.483   1.433 -0.0626 -0.2791 -0.2945
  224MOL   H17649682   2.200   5.533   1.575  0.0950  1.2026  0.3535
  224MOL   H17749683   2.240   5.651   1.431  0.9953 -0.0069  0.3595
  224MOL   C17849684   1.883   5.615   1.315  0.5964  0.1351  0.2782
  224MOL   C17949685   1.849   5.681   1.451 -0.3436 -0.1017 -1.0613
  224MOL   C18049686   1.712   5.619   1.498 -0.0016  0.2768  0.4672
  224MOL   O18149687   1.602   5.658   1.456  0.3622 -0.0637  0.0714
  224MOL   C18249688   1.713   5.483   1.569 -0.1951 -0.3108  0.2613
  224MOL   H18349689   1.828   5.671   1.239 -2.6857  0.4969  2.8372
  224MOL   H18449690   1.839   5.516   1.302 -2.4685  1.5637 -0.8452
  224MOL   H18549691   1.918   5.650   1.529 -0.4130  0.2133 -0.8748
  224MOL   H18649692   1.609   5.465   1.596 -0.7319  0.1210 -1.4127
  224MOL   H18749693   1.788   5.478   1.647 -1.7386  1.2530  1.8994
  224MOL   H18849694   1.737   5.397   1.507 -0.2354 -0.5339  0.5545
  224MOL   C18949695   1.850   5.840   1.441 -0.2251  1.0322  0.9750
  224MOL   C19049696   1.878   5.908   1.580  0.0505 -0.2824  0.3315
  224MOL   C19149697   2.030   5.925   1.608  0.9768  0.7221  0.3549
  224MOL   O19249698   2.117   5.907   1.523  0.2531 -0.6673  0.1619
  224MOL   C19349699   2.074   5.971   1.746 -0.0484 -0.1321 -0.8614
  224MOL   H19449700   1.929   5.861   1.369 -0.3630 -0.3349  0.4125
  224MOL   H19549701   1.757   5.886   1.407 -0.5959  0.9394  1.8582
  224MOL   H19649702   1.857   5.835   1.658  0.1648 -2.1712 -1.3521
  224MOL   H19749703   2.180   5.952   1.762  0.1034  1.9169  0.8560
  224MOL   H19849704   2.048   6.075   1.767 -1.6154 -0.3397 -1.6636
  224MOL   H19949705   2.021   5.906   1.816  0.3756 -0.2815 -0.6824
  224MOL   C20049706   1.800   6.036   1.611 -0.0953  0.3873  0.1901
  224MOL   C20149707   1.802   6.148   1.499  0.8714  0.0638  0.8001
  224MOL   C20249708   1.946   6.176   1.441  0.2669  0.3491 -0.1100
  224MOL   O20349709   2.034   6.217   1.516 -1.0047  0.5231 -0.4383
  224MOL   C20449710   1.978   6.155   1.293  0.1617  0.0965 -0.4573
  224MOL   H20549711   1.695   6.008   1.624 -0.0592 -0.0699 -0.4956
  224MOL   H20649712   1.823   6.085   1.706  1.4070 -0.7706  0.4418
  224MOL   H20749713   1.749   6.106   1.413 -0.2406 -0.2138  1.6222
  224MOL   H20849714   2.087   6.154   1.286  0.2237 -0.1452  0.4663
  224MOL   H20949715   1.940   6.062   1.252 -0.7345 -0.3559  1.3697
  224MOL   H21049716   1.943   6.241   1.235 -1.9691  0.4174  1.2432
  224MOL   C21149717   1.736   6.279   1.558  0.0686  0.5249  0.2115
  224MOL   C21249718   1.743   6.409   1.470  0.7053 -0.4272 -0.0716
  224MOL   C21349719   1.666   6.402   1.344 -0.9323 -0.1831  0.3134
  224MOL   O21449720   1.681   6.304   1.276 -0.2056 -0.0648 -0.2536
  224MOL   C21549721   1.580   6.524   1.304  0.3813  0.1967 -0.0263
  224MOL   H21649722   1.630   6.258   1.568  0.6225 -2.3315  0.7885
  224MOL   H21749723   1.781   6.312   1.652  1.4702 -0.4106 -0.0993
  224MOL   H21849724   1.845   6.417   1.435  0.4432  0.0452 -0.7438
  224MOL   H21949725   1.619   6.622   1.334  0.0919 -0.1413  1.5122
  224MOL   H22049726   1.563   6.534   1.197  2.0278 -0.5548 -0.3797
  224MOL   H22149727   1.484   6.517   1.355  1.3899 -1.8900  1.7290
  224MOL   H22249728   1.711   6.506   1.509 -0.4238 -0.8027 -0.0468
  225MOL     C149729   3.063   5.151   6.726 -0.2142  0.0568 -0.1809
  225MOL     C249730   3.122   5.089   6.590  0.0456 -0.0901  0.6124
  225MOL     C349731   3.014   5.072   6.489  0.6082  0.2545  0.2840
  225MOL     O449732   2.972   5.159   6.413  0.1036 -0.2196 -0.3786
  225MOL     C549733   2.929   4.949   6.512 -0.1710 -0.3047 -0.0091
  225MOL     H649734   2.998   5.236   6.705 -1.1770 -0.8991 -1.1866
  225MOL     H749735   3.128   5.170   6.811  0.3081 -0.7001 -0.4013
  225MOL     H849736   3.161   4.989   6.608  0.4208 -0.4306 -1.9565
  225MOL     H949737   2.899   4.910   6.415  0.2626 -0.1600 -0.2018
  225MOL    H1049738   2.977   4.861   6.554 -0.5182  0.0038  1.0604
  225MOL    H1149739   2.844   4.978   6.573  1.2864  1.7633  1.1080
  225MOL    H1249740   2.992   5.084   6.776 -0.7813  0.5227 -0.3583
  225MOL    C1349741   3.241   5.187   6.539  0.1339  0.3601 -0.4340
  225MOL    C1449742   3.340   5.143   6.440 -0.6795  0.7979  0.3087
  225MOL    C1549743   3.442   5.033   6.499  0.3950 -0.6252  0.7812
  225MOL    O1649744   3.456   5.025   6.618 -0.0302  0.5460 -1.2711
  225MOL    C1749745   3.522   4.932   6.411  0.7628  0.0592 -0.7005
  225MOL    H1849746   3.196   5.277   6.498 -0.6890  0.9729  1.7237
  225MOL    H1949747   3.303   5.211   6.626  1.1676  0.0999 -1.0903
  225MOL    H2049748   3.287   5.110   6.350  0.6021  0.1223 -0.2036
  225MOL    H2149749   3.525   4.833   6.456 -0.8238  0.0507 -0.5596
  225MOL    H2249750   3.470   4.922   6.316  0.3991  1.6007 -0.6855
  225MOL    H2349751   3.622   4.975   6.399  1.1353 -0.3731  0.8237
  225MOL    C2449752   3.434   5.266   6.412 -0.1243  0.2097  0.0376
  225MOL    C2549753   3.531   5.252   6.293 -0.1005  0.8605 -1.1621
  225MOL    C2649754   3.453   5.216   6.165 -0.8189  0.0198  0.7538
  225MOL    O2749755   3.473   5.104   6.113 -0.7163 -0.2347 -0.3765
  225MOL    C2849756   3.351   5.312   6.100 -0.1231  0.0899 -0.1439
  225MOL    H2949757   3.381   5.355   6.382  2.3698  1.6483 -0.2451
  225MOL    H3049758   3.495   5.287   6.501 -0.4164  3.4495 -0.4920
  225MOL    H3149759   3.591   5.165   6.323  0.1282  0.6746 -2.1421
  225MOL    H3249760   3.394   5.362   6.013  1.6707 -1.0631  0.0438
  225MOL    H3349761   3.268   5.248   6.067  0.4538  0.1275 -1.7272
  225MOL    H3449762   3.316   5.387   6.171  2.6952 -0.0749  1.4732
  225MOL    C3549763   3.646   5.357   6.282  0.7672 -0.6659  0.6121
  225MOL    C3649764   3.613   5.486   6.204 -0.6035 -0.2956  0.3127
  225MOL    C3749765   3.527   5.586   6.288 -0.1343  0.1942  0.0107
  225MOL    O3849766   3.416   5.626   6.247 -0.0689  0.3324  0.3825
  225MOL    C3949767   3.584   5.645   6.410 -0.0468  0.2544  0.0389
  225MOL    H4049768   3.725   5.306   6.227 -0.6510 -3.3051  0.9642
  225MOL    H4149769   3.704   5.387   6.369  2.0216  2.0727 -1.0715
  225MOL    H4249770   3.554   5.447   6.121  1.6375 -0.2866 -1.3428
  225MOL    H4349771   3.689   5.624   6.429 -0.2976 -1.3834 -0.3746
  225MOL    H4449772   3.531   5.611   6.500  1.7024 -1.9135  0.2790
  225MOL    H4549773   3.569   5.753   6.408 -1.9752 -0.0152 -1.4853
  225MOL    C4649774   3.728   5.569   6.138  0.7477 -0.1680  0.2727
  225MOL    C4749775   3.767   5.541   5.994 -0.2650  0.1894 -0.8166
  225MOL    C4849776   3.814   5.391   5.978  0.5286  0.2210  0.4385
  225MOL    O4949777   3.760   5.307   5.902 -0.5334  0.4403 -0.8301
  225MOL    C5049778   3.924   5.344   6.072 -0.0107 -0.1368 -1.3385
  225MOL    H5149779   3.816   5.561   6.202  0.2711  0.6808  1.0455
  225MOL    H5249780   3.697   5.674   6.140  0.7039 -0.1886  0.7981
  225MOL    H5349781   3.856   5.600   5.973  0.3723 -0.3916  0.2226
  225MOL    H5449782   3.934   5.236   6.057 -0.6038 -0.3268 -0.3653
  225MOL    H5549783   4.020   5.385   6.040 -0.3069  1.4920 -0.1747
  225MOL    H5649784   3.920   5.370   6.177  0.0400 -1.1111 -1.0931
  225MOL    C5749785   3.663   5.575   5.876 -0.3016  0.3072  0.1721
  225MOL    C5849786   3.642   5.725   5.851 -0.3555 -0.0369 -0.2317
  225MOL    C5949787   3.768   5.796   5.796 -0.1651  0.5028  0.3551
  225MOL    O6049788   3.854   5.732   5.736  0.2835  0.0153  0.2896
  225MOL    C6149789   3.795   5.945   5.821 -0.5610 -0.5869  0.4671
  225MOL    H6249790   3.567   5.532   5.902 -0.3521  0.3725  0.0926
  225MOL    H6349791   3.681   5.521   5.783 -2.5987  0.4117 -0.3653
  225MOL    H6449792   3.626   5.767   5.950  1.5521 -0.2634  0.1977
  225MOL    H6549793   3.813   5.987   5.722 -0.9712 -1.0764  0.1793
  225MOL    H6649794   3.702   5.976   5.868 -1.7560 -1.2912 -1.3528
  225MOL    H6749795   3.878   5.959   5.890  0.0612 -0.6537 -0.2569
  225MOL    C6849796   3.532   5.769   5.751  0.7034 -0.0407  0.7830
  225MOL    C6949797   3.384   5.743   5.787 -0.4115  0.3410 -0.1894
  225MOL    C7049798   3.334   5.614   5.732 -0.3520  0.1913  0.0284
  225MOL    O7149799   3.293   5.524   5.799 -0.1138 -0.4121  0.7366
  225MOL    C7249800   3.310   5.603   5.584  0.6809  0.7612  0.3109
  225MOL    H7349801   3.547   5.873   5.721 -1.5947  0.6123  1.8717
  225MOL    H7449802   3.552   5.707   5.663 -0.9871  0.8496 -0.2626
  225MOL    H7549803   3.378   5.720   5.893  1.6189  0.8150  0.0530
  225MOL    H7649804   3.201   5.590   5.580  0.4103  1.4119  3.8933
  225MOL    H7749805   3.355   5.691   5.537 -0.6011  1.1401 -0.2495
  225MOL    H7849806   3.361   5.519   5.538  0.3378  0.0930  1.1396
  225MOL    C7949807   3.295   5.872   5.753  0.4160  0.2579 -0.1659
  225MOL    C8049808   3.294   5.972   5.868 -0.0130  0.3138 -0.2108
  225MOL    C8149809   3.235   5.915   5.997  0.3082 -0.2210  0.2471
  225MOL    O8249810   3.150   5.827   6.004  0.1910  0.2623  0.1939
  225MOL    C8349811   3.294   5.970   6.126  0.8558 -0.1228  0.1157
  225MOL    H8449812   3.190   5.852   5.731 -0.4128 -1.0352  4.5511
  225MOL    H8549813   3.326   5.912   5.656 -2.5686  0.4138 -1.1207
  225MOL    H8649814   3.402   5.983   5.882  0.6769 -3.1505 -2.1622
  225MOL    H8749815   3.390   6.019   6.111  1.2961 -1.1607 -0.5534
  225MOL    H8849816   3.314   5.894   6.203  1.8905  1.5604  1.5429
  225MOL    H8949817   3.213   6.033   6.162  0.4835 -2.0806  2.9665
  225MOL    C9049818   3.235   6.114   5.835 -0.1744 -0.3605  0.0603
  225MOL    C9149819   3.341   6.222   5.833  0.0668 -0.0706  0.1342
  225MOL    C9249820   3.408   6.249   5.969 -0.1336 -0.0361  0.3495
  225MOL    O9349821   3.532   6.242   5.982  0.0408  0.3830  0.1967
  225MOL    C9449822   3.328   6.312   6.083 -0.4497 -0.2923  0.1755
  225MOL    H9549823   3.174   6.121   5.745 -0.4544  2.3126  0.4167
  225MOL    H9649824   3.157   6.144   5.906 -0.5973 -0.4993 -0.3396
  225MOL    H9749825   3.285   6.314   5.819  0.5655  0.2064 -0.0318
  225MOL    H9849826   3.345   6.257   6.176  1.1999 -0.9253 -0.4992
  225MOL    H9949827   3.338   6.420   6.091  0.9394 -0.5502  2.1780
  225MOL   H10049828   3.221   6.298   6.066 -0.4231 -0.2063 -0.0619
  225MOL   C10149829   3.431   6.217   5.712 -0.2394 -0.7539  0.5052
  225MOL   C10249830   3.518   6.344   5.679 -0.8276  0.0174  0.0008
  225MOL   C10349831   3.431   6.469   5.641 -0.3139 -1.0035 -0.3348
  225MOL   O10449832   3.361   6.461   5.537  0.2553  0.0710  0.4744
  225MOL   C10549833   3.439   6.605   5.721 -0.3918 -0.3199  0.0107
  225MOL   H10649834   3.506   6.140   5.732  0.6742  0.4540  1.8571
  225MOL   H10749835   3.390   6.177   5.620 -0.4776 -0.1012  0.3241
  225MOL   H10849836   3.562   6.378   5.773 -0.0218  1.5288 -0.9158
  225MOL   H10949837   3.451   6.591   5.828  1.4056  1.7786  0.1266
  225MOL   H11049838   3.522   6.661   5.676 -1.0495 -0.0508 -0.8808
  225MOL   H11149839   3.358   6.674   5.696 -0.1359 -0.0778 -0.1641
  225MOL   C11249840   3.621   6.319   5.567  0.5135  0.2816  0.3751
  225MOL   C11349841   3.748   6.413   5.573  0.5437 -0.1219  0.0997
  225MOL   C11449842   3.801   6.410   5.426 -0.6489  0.6847  0.1347
  225MOL   O11549843   3.876   6.315   5.386 -0.0028  0.1544  0.4037
  225MOL   C11649844   3.758   6.513   5.325 -0.6901 -0.5026  0.0586
  225MOL   H11749845   3.569   6.323   5.471 -0.0684 -2.5227  0.5459
  225MOL   H11849846   3.668   6.221   5.579  2.0580  0.8946 -0.5360
  225MOL   H11949847   3.711   6.515   5.585  0.6771 -0.1375  0.6299
  225MOL   H12049848   3.650   6.524   5.321 -0.4634  1.6051 -1.7088
  225MOL   H12149849   3.797   6.614   5.339 -2.1010  0.2085 -0.9675
  225MOL   H12249850   3.799   6.468   5.235 -0.9450  1.7518 -1.2361
  225MOL   C12349851   3.850   6.388   5.684  0.0148 -0.0437  0.0812
  225MOL   C12449852   3.935   6.502   5.736 -0.2795 -0.4460  0.3479
  225MOL   C12549853   3.856   6.603   5.817  0.2001 -0.3032 -0.0930
  225MOL   O12649854   3.753   6.658   5.772  0.0348  0.4785  0.0565
  225MOL   C12749855   3.922   6.636   5.948  0.2302 -0.0091 -0.2729
  225MOL   H12849856   3.923   6.310   5.663 -0.9989 -0.6338 -1.3128
  225MOL   H12949857   3.795   6.348   5.769  1.2790 -2.0447  0.0004
  225MOL   H13049858   3.995   6.459   5.816  0.8308  1.9523  0.8423
  225MOL   H13149859   3.940   6.743   5.934 -0.9949  0.0417 -1.4898
  225MOL   H13249860   4.011   6.577   5.970 -0.4135 -0.2989  1.6290
  225MOL   H13349861   3.852   6.606   6.026  3.9666 -4.0127  1.8380
  225MOL   C13449862   4.023   6.576   5.620 -0.0592 -0.7526 -0.3310
  225MOL   C13549863   4.120   6.691   5.677 -0.1083 -0.5003  0.2525
  225MOL   C13649864   4.229   6.630   5.763 -0.0908  0.9241  0.5919
  225MOL   O13749865   4.255   6.510   5.755  0.5776  0.0469  0.2770
  225MOL   C13849866   4.314   6.723   5.851 -0.0862 -0.4447  0.0225
  225MOL   H13949867   3.967   6.633   5.546  0.5176 -1.0400 -0.9961
  225MOL   H14049868   4.091   6.511   5.565 -0.6005 -0.0369 -1.8709
  225MOL   H14149869   4.063   6.753   5.746  1.2304  2.2719 -1.1000
  225MOL   H14249870   4.274   6.822   5.875 -1.9001 -1.2704  0.4536
  225MOL   H14349871   4.422   6.721   5.835 -0.0147 -0.2377  0.4674
  225MOL   H14449872   4.317   6.685   5.953  0.5105 -1.5294 -0.3883
  225MOL   C14549873   4.169   6.789   5.567 -1.0446 -0.1671 -0.0277
  225MOL   C14649874   4.178   6.746   5.415  0.2015  0.1241 -0.1786
  225MOL   C14749875   4.123   6.846   5.313  0.0280  0.4367  0.1892
  225MOL   O14849876   4.178   6.948   5.290 -0.6231  0.4927  0.5541
  225MOL   C14949877   3.994   6.816   5.237 -0.7643  1.0539 -0.4941
  225MOL   H15049878   4.266   6.829   5.597 -0.7905 -0.4648 -0.4593
  225MOL   H15149879   4.103   6.874   5.583 -0.3586  0.1012  1.4996
  225MOL   H15249880   4.105   6.666   5.402 -1.6324  1.6558  0.6021
  225MOL   H15349881   4.012   6.736   5.165 -1.2777  1.5739 -1.2116
  225MOL   H15449882   3.918   6.796   5.312 -0.9159  0.2218 -0.8560
  225MOL   H15549883   3.978   6.903   5.174 -0.6370  0.9091 -0.7295
  225MOL   C15649884   4.317   6.702   5.367  0.4282  0.5164  0.4116
  225MOL   C15749885   4.369   6.565   5.412 -0.1374 -0.0862 -0.3402
  225MOL   C15849886   4.519   6.559   5.425 -0.3726 -0.5221  0.3467
  225MOL   O15949887   4.581   6.483   5.352  0.1244  0.6319 -0.1402
  225MOL   C16049888   4.583   6.639   5.537  0.4409 -0.2684 -0.2523
  225MOL   H16149889   4.317   6.697   5.258  0.0547  0.0592  0.4296
  225MOL   H16249890   4.391   6.780   5.385  2.9580 -1.8367  0.6449
  225MOL   H16349891   4.342   6.559   5.517  0.4991 -0.6734 -0.2054
  225MOL   H16449892   4.639   6.717   5.486 -0.8418 -1.1332 -3.1347
  225MOL   H16549893   4.654   6.571   5.584 -0.0243 -2.4782 -2.5554
  225MOL   H16649894   4.523   6.687   5.614  1.5666  1.0450 -0.1822
  225MOL   C16749895   4.288   6.450   5.351  0.0809  0.2315  0.5692
  225MOL   C16849896   4.312   6.302   5.394  0.1318  1.1721 -0.0458
  225MOL   C16949897   4.280   6.210   5.273 -0.3863 -0.9187 -0.6493
  225MOL   O17049898   4.171   6.174   5.238 -0.4633  0.2364  0.1147
  225MOL   C17149899   4.409   6.174   5.204  0.3976  0.6818 -0.5254
  225MOL   H17249900   4.183   6.478   5.364 -0.6202 -1.6943 -0.7095
  225MOL   H17349901   4.309   6.469   5.245 -0.6973 -1.1377  0.1677
  225MOL   H17449902   4.418   6.298   5.419 -0.4790  0.4058  2.5638
  225MOL   H17549903   4.410   6.239   5.116  0.8102  1.5417  0.1047
  225MOL   H17649904   4.413   6.072   5.168 -0.4801  0.6332 -0.4851
  225MOL   H17749905   4.498   6.199   5.262  1.1163 -1.9291 -0.4469
  225MOL   C17849906   4.221   6.253   5.515 -0.4655 -0.1575 -0.2850
  225MOL   C17949907   4.271   6.123   5.581  0.1883  0.7128  0.4218
  225MOL   C18049908   4.156   6.042   5.650 -0.1095  0.1167  0.6395
  225MOL   O18149909   4.165   6.034   5.772  0.2444  0.1672 -0.2147
  225MOL   C18249910   4.037   5.996   5.568 -0.3111 -0.2500 -0.3851
  225MOL   H18349911   4.210   6.334   5.587  1.5768  1.6620 -1.9546
  225MOL   H18449912   4.117   6.243   5.482 -0.2032 -2.0456 -0.5605
  225MOL   H18549913   4.296   6.057   5.498 -1.0746  1.0586 -0.2581
  225MOL   H18649914   3.977   5.916   5.611 -0.2918 -0.0947 -0.0635
  225MOL   H18749915   4.060   5.964   5.467  0.2433 -1.8231  0.2220
  225MOL   H18849916   3.976   6.086   5.558  0.4137  0.4809  1.6071
  225MOL   C18949917   4.393   6.144   5.676  0.1563 -0.5458 -0.1937
  225MOL   C19049918   4.491   6.022   5.686 -0.3910  0.2162  0.4142
  225MOL   C19149919   4.580   6.004   5.556 -0.2001 -0.3880  0.0339
  225MOL   O19249920   4.654   6.094   5.510 -0.0214 -0.2950 -0.5008
  225MOL   C19349921   4.580   5.873   5.482  0.1220 -0.3153  0.7044
  225MOL   H19449922   4.439   6.232   5.631 -2.6429 -1.1703 -4.6337
  225MOL   H19549923   4.354   6.181   5.771  3.0911 -2.0729  1.6748
  225MOL   H19649924   4.431   5.932   5.694 -0.3809  0.2070  0.3840
  225MOL   H19749925   4.474   5.847   5.478  0.6650 -2.5200  0.4990
  225MOL   H19849926   4.625   5.873   5.383 -2.7043  2.3312 -0.6767
  225MOL   H19949927   4.638   5.797   5.534  1.2852 -0.1634 -0.3667
  225MOL   C20049928   4.582   6.048   5.807  0.6922 -0.4778  0.6840
  225MOL   C20149929   4.704   5.965   5.845  0.5051  0.2489  0.0589
  225MOL   C20249930   4.661   5.818   5.859 -0.0049  0.6376 -0.4254
  225MOL   O20349931   4.688   5.738   5.774 -0.0859  0.0288 -0.0151
  225MOL   C20449932   4.581   5.771   5.975 -0.1692  0.8233 -0.4254
  225MOL   H20549933   4.626   6.145   5.782 -1.3159  0.3139  0.1688
  225MOL   H20649934   4.518   6.053   5.895 -2.1551 -2.3277 -1.1950
  225MOL   H20749935   4.776   5.979   5.764 -0.6381 -0.2130 -1.0527
  225MOL   H20849936   4.501   5.837   6.008  0.2296  0.5802  1.0591
  225MOL   H20949937   4.544   5.673   5.944 -0.2643  0.2054  1.5897
  225MOL   H21049938   4.649   5.763   6.060  0.9859  0.5253 -1.3563
  225MOL   C21149939   4.770   6.007   5.980 -0.4627  0.2218 -0.0585
  225MOL   C21249940   4.882   6.116   5.951  0.7583  0.2340  0.2540
  225MOL   C21349941   4.909   6.203   6.073 -0.5014  0.1474 -0.2113
  225MOL   O21449942   4.810   6.250   6.132 -0.3450 -0.0170 -0.2031
  225MOL   C21549943   5.048   6.209   6.125  0.7691 -0.2272  0.0542
  225MOL   H21649944   4.694   6.049   6.046 -3.0741 -0.6033 -2.4644
  225MOL   H21749945   4.820   5.929   6.036 -0.8746 -1.0299 -1.4269
  225MOL   H21849946   4.848   6.174   5.865 -0.2711  0.7757  1.0235
  225MOL   H21949947   5.070   6.315   6.144  0.3382 -0.1915  0.3495
  225MOL   H22049948   5.057   6.151   6.216 -2.1041 -2.1860 -0.8742
  225MOL   H22149949   5.120   6.169   6.053  2.9324  0.1736  1.9202
  225MOL   H22249950   4.973   6.068   5.914  0.9245  2.9116 -3.1007
   7.85766   7.85766   7.85766
