Control file title. For DL_FIELD 4.10
49910
    1MOL     C1    1   8.087   0.685   8.228 -0.4652  0.0098 -1.0495
    1MOL     C2    2   8.110   0.799   8.324  0.2092  0.1037  0.3843
    1MOL     C3    3   8.159   0.780   0.036  0.0077  0.0513  0.4650
    1MOL    Cl4    4   8.213   0.629   0.092  0.0360  0.3091 -0.0808
    1MOL     C5    5   8.163   0.893   0.123 -0.4405  0.4838  0.1718
    1MOL     C6    6   8.115   1.017   0.077 -0.1958 -0.2604  0.0485
    1MOL     C7    7   8.079   1.042   8.362  0.6599 -0.9776  0.3397
    1MOL     C8    8   8.072   0.927   8.275  0.4370 -0.5165  0.2588
    1MOL     C9    9   7.936   0.644   8.237 -0.3001  0.5460  0.4916
    1MOL    H10   10   8.118   0.722   8.130  0.1282  0.7352 -0.6001
    1MOL    H11   11   8.191   0.881   0.226  0.5132 -0.8140 -0.2258
    1MOL    H12   12   8.138   1.098   0.146 -0.8211 -0.7013  0.7860
    1MOL    H13   13   8.060   1.141   8.324  1.4136  0.2759  3.1598
    1MOL    H14   14   8.034   0.953   8.177  0.9604 -2.0201 -0.3580
    1MOL    H15   15   7.875   0.716   8.182  0.0026 -0.0797 -0.6706
    1MOL    H16   16   7.898   0.629   8.338 -1.9268  0.6466 -0.0885
    1MOL    H17   17   8.149   0.601   8.258  0.7840  1.7286  1.3593
    1MOL    C18   18   7.913   0.517   8.146 -0.0399 -0.2321 -0.5363
    1MOL    C19   19   7.914   0.556   7.991 -0.2263  0.4935  0.0249
    1MOL    C20   20   8.020   0.523   7.902  0.0288 -0.0819 -0.2600
    1MOL   Cl21   21   8.163   0.434   7.967 -0.0134  0.3901 -0.2951
    1MOL    C22   22   8.012   0.560   7.763 -0.3042 -0.7075  0.0598
    1MOL    C23   23   7.897   0.631   7.721  0.1830 -0.0475  0.1464
    1MOL    C24   24   7.793   0.668   7.812 -0.0489 -0.0446  0.2671
    1MOL    C25   25   7.804   0.630   7.946 -0.6753 -0.4804 -0.1019
    1MOL    C26   26   7.785   0.436   8.186 -0.0867 -0.3676  0.7807
    1MOL    H27   27   7.999   0.452   8.159  0.4912  0.5375 -0.2371
    1MOL    H28   28   8.088   0.530   7.692 -2.2045 -2.0801 -1.4495
    1MOL    H29   29   7.901   0.656   7.617  1.7623  1.6186  0.5938
    1MOL    H30   30   7.714   0.735   7.783 -1.1216 -1.2188  0.4459
    1MOL    H31   31   7.732   0.652   8.023 -0.2036  2.2023 -0.3583
    1MOL    H32   32   7.751   0.379   8.100  0.2578 -0.3362  0.6232
    1MOL    H33   33   7.700   0.504   8.194  0.0338 -0.2319  0.9217
    1MOL    C34   34   7.789   0.341   8.306  0.7444  0.1884 -0.5003
    1MOL    C35   35   7.923   0.276   8.335  0.3120 -0.7494 -0.0619
    1MOL    C36   36   8.006   0.313   0.025 -0.1197  0.5665 -0.2503
    1MOL   Cl37   37   7.953   0.427   0.144 -0.0411 -0.2083 -0.2225
    1MOL    C38   38   8.137   0.257   0.030 -0.1346 -0.0681  0.2921
    1MOL    C39   39   8.188   0.174   8.340  0.5709  0.1283  0.7151
    1MOL    C40   40   8.099   0.140   8.229  0.1632  0.8698 -0.3220
    1MOL    C41   41   7.966   0.185   8.239  0.8656 -0.3882  0.4755
    1MOL    C42   42   7.678   0.234   8.308  0.9913  0.4459 -0.1135
    1MOL    H43   43   7.773   0.397   8.398  0.6786  0.8295 -0.9015
    1MOL    H44   44   8.207   0.297   0.101  1.1254 -1.8513  0.0751
    1MOL    H45   45   8.294   0.155   8.333  0.8406  1.1515  1.8735
    1MOL    H46   46   8.131   0.076   8.148  0.0574 -3.1349  2.6007
    1MOL    H47   47   7.905   0.172   8.151  0.2836 -2.0021  1.0866
    1MOL    H48   48   7.703   0.161   8.385  4.5563 -1.3837 -2.8466
    1MOL    H49   49   7.673   0.173   8.218  0.8814  0.0484  0.1593
    1MOL    C50   50   7.539   0.294   8.356  1.0712  0.1136 -0.3868
    1MOL    C51   51   7.540   0.337   0.082 -0.4689 -0.1451 -0.2024
    1MOL    C52   52   7.565   0.476   0.118  0.1420 -0.7038 -0.4747
    1MOL   Cl53   53   7.579   0.611   0.009 -0.1919 -0.0631  0.2385
    1MOL    C54   54   7.583   0.502   0.255  0.9997 -0.4834 -0.8566
    1MOL    C55   55   7.568   0.402   0.350 -0.2089  0.1939  1.0005
    1MOL    C56   56   7.545   0.266   0.313  0.3040 -0.6356  0.3357
    1MOL    C57   57   7.535   0.237   0.177  0.3139 -0.3424  0.2034
    1MOL    C58   58   7.423   0.203   8.305 -0.4535  0.0886 -0.3624
    1MOL    H59   59   7.528   0.392   8.310 -1.4573 -0.2129 -0.5285
    1MOL    H60   60   7.591   0.603   0.291  1.4508 -0.1570 -1.8486
    1MOL    H61   61   7.564   0.439   0.451  0.8032  0.8916  0.7854
    1MOL    H62   62   7.535   0.185   0.383 -0.2017 -3.4732 -2.9008
    1MOL    H63   63   7.516   0.134   0.151  0.8095 -0.5615  0.7175
    1MOL    H64   64   7.335   0.242   8.357  0.1346  1.2284 -0.2112
    1MOL    H65   65   7.431   0.106   8.354 -1.7279 -0.6581 -1.5591
    1MOL    C66   66   7.388   0.198   8.153 -0.3437  0.1380  0.2061
    1MOL    C67   67   7.394   0.329   8.078  0.5799 -0.0326  0.0792
    1MOL    C68   68   7.490   0.354   7.980  0.1604  0.0416  0.2700
    1MOL   Cl69   69   7.596   0.228   7.924  0.4505 -0.0103  0.0884
    1MOL    C70   70   7.504   0.479   7.922 -0.0196  0.1483  0.5003
    1MOL    C71   71   7.426   0.586   7.973  0.1644 -0.6053  0.1262
    1MOL    C72   72   7.326   0.566   8.076 -0.5642  0.6592  0.4904
    1MOL    C73   73   7.315   0.437   8.130 -0.2050 -0.9689  0.1425
    1MOL    C74   74   7.245   0.131   8.145 -0.8281  0.1392  0.5485
    1MOL    H75   75   7.465   0.128   8.119  0.2789 -0.2791  2.3483
    1MOL    H76   76   7.582   0.495   7.849 -0.2189 -0.0169  0.2494
    1MOL    H77   77   7.448   0.679   7.922 -1.4132  0.0098  0.5100
    1MOL    H78   78   7.278   0.653   8.117  0.0115  2.2831 -2.1735
    1MOL    H79   79   7.258   0.425   8.221  0.7093 -3.1938  0.4483
    1MOL    H80   80   7.207   0.128   8.043  0.7051  0.7180 -0.0541
    1MOL    H81   81   7.174   0.181   8.210 -2.4776 -2.0045  0.4604
    1MOL    C82   82   7.246   8.396   8.181 -0.2621  0.0118  0.4957
    1MOL    C83   83   7.305   8.306   8.079  0.3020  0.4723 -0.0186
    1MOL    C84   84   7.408   8.222   8.113 -0.2594  0.0719 -0.6047
    1MOL   Cl85   85   7.474   8.211   8.274  0.5560  0.1505 -0.3655
    1MOL    C86   86   7.472   8.140   8.019  0.1931 -0.1631  0.3174
    1MOL    C87   87   7.428   8.137   7.886 -0.0542  0.2591 -0.3807
    1MOL    C88   88   7.309   8.199   7.855  0.4325 -0.8798 -0.3696
    1MOL    C89   89   7.247   8.284   7.950 -0.2290 -0.1766 -0.2625
    1MOL    C90   90   7.105   8.345   8.219 -0.7328 -0.0672 -0.1962
    1MOL    H91   91   7.306   8.390   8.272  0.4399  0.4989  0.0600
    1MOL    H92   92   7.549   8.072   8.051 -0.3766 -0.6772  0.6244
    1MOL    H93   93   7.469   8.079   7.806  0.3942  0.5936 -0.3912
    1MOL    H94   94   7.278   8.182   7.754 -1.2550  0.6722 -0.1387
    1MOL    H95   95   7.153   8.325   7.916 -1.1545 -0.4940  1.8976
    1MOL    H96   96   7.110   8.236   8.206 -0.3396 -0.2470  1.3415
    1MOL    H97   97   7.032   8.376   8.144 -1.6781  2.7477  1.8201
    1MOL    C98   98   7.057   8.404   8.358  0.3297  0.5613 -0.8277
    1MOL    C99   99   7.133   8.354   0.058  0.2702  0.2536  0.3123
    1MOL   C100  100   7.185   0.022   0.156 -0.6706 -0.6130 -0.1104
    1MOL  Cl101  101   7.166   0.201   0.148 -0.4353  0.4047  0.0816
    1MOL   C102  102   7.248   8.405   0.271  0.8422 -0.3039 -0.5809
    1MOL   C103  103   7.271   8.267   0.292  0.2665  0.1212  0.1407
    1MOL   C104  104   7.236   8.176   0.189 -0.2206  0.2887 -0.2270
    1MOL   C105  105   7.159   8.217   0.081 -0.7591  0.1251 -0.5381
    1MOL   C106  106   6.905   8.366   8.378  0.3648 -0.0010 -0.1256
    1MOL   H107  107   7.066   0.091   8.351 -0.6407  0.6324 -1.1665
    1MOL   H108  108   7.267   0.054   0.352  1.2098 -1.8249  0.6628
    1MOL   H109  109   7.308   8.235   0.389 -2.4222  2.1265  1.8803
    1MOL   H110  110   7.258   8.071   0.191 -0.5143  0.2382  0.7492
    1MOL   H111  111   7.134   8.142   0.007 -2.4787  1.1742 -1.0389
    1MOL   H112  112   6.870   8.349   0.059 -0.3302 -0.8558 -0.5077
    1MOL   H113  113   6.903   8.263   8.341  2.2195  0.3694 -1.3537
    1MOL   C114  114   6.797   0.043   8.316 -0.1492 -0.2809 -0.2971
    1MOL   C115  115   6.781   0.158   8.412 -0.4827  0.0440 -0.2630
    1MOL   C116  116   6.844   0.281   8.390  0.3843  0.2691 -0.2464
    1MOL  Cl117  117   6.918   0.322   8.236 -0.0079  0.3066  0.0137
    1MOL   C118  118   6.842   0.381   0.068 -0.0683 -0.0579  0.5287
    1MOL   C119  119   6.777   0.358   0.193 -0.2086  0.4222 -0.0991
    1MOL   C120  120   6.704   0.239   0.210 -0.8484  0.1289  0.3069
    1MOL   C121  121   6.711   0.143   0.110 -0.2317  0.3896  0.1457
    1MOL   C122  122   6.665   8.390   8.280  0.6854  0.1571 -0.7240
    1MOL   H123  123   6.851   0.073   8.226 -0.1584  0.2375 -0.1336
    1MOL   H124  124   6.879   0.480   0.046  1.2951 -1.0435 -1.7862
    1MOL   H125  125   6.776   0.440   0.263  0.2239  1.3149 -1.1256
    1MOL   H126  126   6.651   0.224   0.303 -2.0616  2.2919  0.0038
    1MOL   H127  127   6.669   0.044   0.118  3.0729 -1.0423  0.6826
    1MOL   H128  128   6.571   0.001   8.325  0.9079 -0.7284  0.4141
    1MOL   H129  129   6.679   8.291   8.324 -1.6787 -0.3508 -1.0491
    1MOL   C130  130   6.659   8.362   8.128  0.0679 -0.3343  0.8097
    1MOL   C131  131   6.637   0.081   8.064 -0.4166  0.4353  0.2041
    1MOL   C132  132   6.737   0.137   7.980 -0.1016  0.0902  0.4599
    1MOL  Cl133  133   6.885   0.057   7.956 -0.2362  0.2454 -0.1054
    1MOL   C134  134   6.707   0.261   7.911  0.1214  0.2830  0.2315
    1MOL   C135  135   6.587   0.323   7.931 -0.2281  1.2391 -0.3827
    1MOL   C136  136   6.483   0.265   8.009 -0.5515  0.5606 -0.5599
    1MOL   C137  137   6.507   0.141   8.070 -0.0562 -0.8779  0.3501
    1MOL   C138  138   6.537   8.270   8.095 -0.5747 -0.1889  0.1615
    1MOL   H139  139   6.751   8.321   8.086  0.0843  0.6018 -0.0782
    1MOL   H140  140   6.775   0.303   7.839  0.7655 -0.3890  0.4477
    1MOL   H141  141   6.567   0.423   7.894  0.4127  1.0160 -1.3420
    1MOL   H142  142   6.399   0.329   8.032  1.0126  3.2681 -2.0068
    1MOL   H143  143   6.429   0.100   8.133 -1.4251  1.5436  0.2989
    1MOL   H144  144   6.512   8.291   7.991 -1.6544 -0.9366  0.2568
    1MOL   H145  145   6.445   8.295   8.148  0.1071  3.1094 -0.1074
    1MOL   C146  146   6.571   8.117   8.094  0.1977  0.3076  0.8045
    1MOL   C147  147   6.718   8.084   8.048  0.3866  1.1116  0.1160
    1MOL   C148  148   6.813   8.037   8.142 -0.7898 -0.1136 -0.1173
    1MOL  Cl149  149   6.770   8.031   8.312  0.1347  0.1841 -0.0584
    1MOL   C150  150   6.940   7.992   8.095  0.2253  0.2019  0.2302
    1MOL   C151  151   6.968   7.995   7.963 -0.7075 -0.1569  0.2057
    1MOL   C152  152   6.887   8.061   7.874  0.2516  0.1307 -0.5265
    1MOL   C153  153   6.760   8.107   7.914 -0.0282 -0.6912 -0.0569
    1MOL   C154  154   6.456   8.038   8.027  0.2068 -0.2403  0.5196
    1MOL   H155  155   6.573   8.088   8.199  0.5384 -1.7515  0.2545
    1MOL   H156  156   7.000   7.954   8.176 -1.4777  2.2664  2.5772
    1MOL   H157  157   7.067   7.967   7.930  0.3065  1.0836  2.0986
    1MOL   H158  158   6.916   8.083   7.773  0.1575  0.1456 -0.5496
    1MOL   H159  159   6.697   8.154   7.840  0.4021 -1.5805 -0.9995
    1MOL   H160  160   6.427   8.084   7.932 -2.0459  2.4775  2.4331
    1MOL   H161  161   6.362   8.063   8.077 -2.1167 -0.6195 -3.3852
    1MOL   C162  162   6.476   7.886   8.030 -0.1408  1.0691  0.1216
    1MOL   C163  163   6.584   7.826   7.938 -0.0052  0.1582  0.5244
    1MOL   C164  164   6.686   7.737   7.975  0.7122 -0.6049 -0.5159
    1MOL  Cl165  165   6.686   7.688   8.138  0.1058  0.0586  0.4405
    1MOL   C166  166   6.785   7.685   7.888  0.1153  0.6144 -0.8533
    1MOL   C167  167   6.774   7.715   7.747  0.1803  1.4483 -0.7565
    1MOL   C168  168   6.674   7.808   7.709 -0.1671  0.3441 -0.2058
    1MOL   C169  169   6.581   7.862   7.801 -0.2957 -0.0143  0.5797
    1MOL   C170  170   6.346   7.807   8.005 -0.3904 -0.0302  0.7394
    1MOL   H171  171   6.519   7.874   8.129 -0.1230  0.0248 -0.0049
    1MOL   H172  172   6.846   7.607   7.930  0.6991  1.1479 -0.7012
    1MOL   H173  173   6.841   7.659   7.684  1.0173  1.7351 -0.1293
    1MOL   H174  174   6.662   7.832   7.605  0.9911 -0.5819 -0.5483
    1MOL   H175  175   6.508   7.932   7.763 -0.9944 -0.0884  1.7590
    1MOL   H176  176   6.379   7.711   7.964  0.7991  0.8029 -0.3046
    1MOL   H177  177   6.293   7.856   7.923  0.1145  0.5609  0.7669
    1MOL   C178  178   6.261   7.777   8.128 -0.3918 -0.6665  0.3386
    1MOL   C179  179   6.335   7.688   8.227  0.3900  0.1744 -0.1213
    1MOL   C180  180   6.390   7.741   8.346 -0.2679 -0.5880  0.4842
    1MOL  Cl181  181   6.386   7.915   8.377 -0.1778 -0.2035 -0.2530
    1MOL   C182  182   6.463   7.656   0.012  0.1277  1.1786  0.4655
    1MOL   C183  183   6.479   7.520   8.407  0.1987  0.0438 -0.4702
    1MOL   C184  184   6.434   7.469   8.286  0.0001  0.3818 -0.6444
    1MOL   C185  185   6.367   7.554   8.191  0.0945  0.3042  0.6907
    1MOL   C186  186   6.128   7.720   8.083 -0.3180 -0.6124 -0.3312
    1MOL   H187  187   6.243   7.875   8.174  0.0607 -1.0782  1.4108
    1MOL   H188  188   6.502   7.688   0.107 -1.2343 -0.8492  1.7168
    1MOL   H189  189   6.542   7.467   0.056 -1.4229 -0.2199  0.8519
    1MOL   H190  190   6.463   7.369   8.258  1.7388  0.3554  1.1248
    1MOL   H191  191   6.324   7.510   8.102 -0.0938 -0.0334  0.9485
    1MOL   H192  192   6.081   7.661   8.162  0.5058  1.0737  1.4673
    1MOL   H193  193   6.158   7.658   7.998  0.7735 -1.6976  0.8245
    1MOL   C194  194   6.019   7.825   8.046 -0.0947 -0.1024 -0.4743
    1MOL   C195  195   5.960   7.900   8.172 -0.9048  0.4141 -0.3709
    1MOL   C196  196   5.970   8.040   8.190  0.2828 -0.4236  0.6165
    1MOL  Cl197  197   6.057   8.137   8.073  0.1534  0.1649  0.3120
    1MOL   C198  198   5.915   8.102   8.303 -0.0837 -0.2852 -0.6648
    1MOL   C199  199   5.859   8.023   8.403 -0.0467  0.3372  0.8671
    1MOL   C200  200   5.853   7.881   8.391  0.7158  0.0167 -0.0247
    1MOL   C201  201   5.899   7.827   8.277  0.0583 -0.3080 -0.1146
    1MOL   C202  202   5.911   7.787   7.947  0.3476  0.0162 -0.4086
    1MOL   H203  203   6.078   7.892   7.983 -0.3336 -0.2062 -0.8080
    1MOL   H204  204   5.929   8.208   8.318  0.7646 -0.2834 -1.4178
    1MOL   H205  205   5.828   8.059   0.080  0.8970  1.2785  0.8266
    1MOL   H206  206   5.814   7.815   0.046 -1.0045  1.5084  0.4087
    1MOL   H207  207   5.894   7.720   8.268  0.3946 -0.1515 -2.7622
    1MOL   H208  208   5.959   7.765   7.852 -1.6315 -0.0992 -1.4051
    1MOL   H209  209   5.849   7.874   7.928  0.7139 -0.0682 -2.0690
    1MOL   C210  210   5.810   7.685   7.987 -0.3527  0.0425  0.2615
    1MOL   C211  211   5.870   7.549   8.000  0.1332  0.2836 -0.2118
    1MOL   C212  212   5.841   7.470   8.116 -0.1235  1.2566 -0.0986
    1MOL  Cl213  213   5.729   7.521   8.243  0.3301 -0.6979 -0.1358
    1MOL   C214  214   5.895   7.331   8.127 -1.3138 -0.3104  0.6604
    1MOL   C215  215   5.981   7.293   8.025  0.1745  1.1101  0.9439
    1MOL   C216  216   6.007   7.372   7.911 -0.3552  0.3969 -0.0795
    1MOL   C217  217   5.954   7.497   7.899 -0.4856 -0.6643 -0.1300
    1MOL   C218  218   5.698   7.687   7.884  0.1842 -0.5776  0.2644
    1MOL   H219  219   5.779   7.712   8.088  0.4535  1.5488  0.1030
    1MOL   H220  220   5.875   7.262   8.207 -0.3077 -2.9756 -1.3270
    1MOL   H221  221   6.013   7.190   8.030 -1.3951  0.5510 -0.0938
    1MOL   H222  222   6.057   7.331   7.825 -2.0404  0.6789 -1.2086
    1MOL   H223  223   5.974   7.556   7.810 -2.1645  1.5394  0.8885
    1MOL   H224  224   5.681   7.586   7.845  0.3789 -0.7087  0.5204
    1MOL   H225  225   5.721   7.739   7.791  1.6076 -2.8827 -0.7402
    1MOL   C226  226   5.555   7.714   7.942 -0.0052  0.4933  0.3991
    1MOL   C227  227   5.440   7.675   7.843  0.4091 -0.1515  0.2594
    1MOL   C228  228   5.322   7.607   7.890  1.0231  0.2371 -0.5771
    1MOL  Cl229  229   5.301   7.567   8.054  0.0191  0.1812 -0.2344
    1MOL   C230  230   5.210   7.582   7.799  0.4237 -0.8391  0.0975
    1MOL   C231  231   5.223   7.619   7.666  0.1396 -0.1535 -0.4295
    1MOL   C232  232   5.344   7.682   7.627  0.1273  0.0631  0.2287
    1MOL   C233  233   5.453   7.709   7.706  0.1393  0.3042 -0.4561
    1MOL   C234  234   5.553   7.861   7.996  0.2797 -0.9550  0.2466
    1MOL   H235  235   5.561   7.649   8.029  0.8730  0.8384  0.6024
    1MOL   H236  236   5.124   7.522   7.825 -0.6231 -0.0117 -1.3947
    1MOL   H237  237   5.147   7.595   7.593 -0.7258 -0.8380  0.6743
    1MOL   H238  238   5.353   7.704   7.522 -0.2038 -1.4688 -0.1308
    1MOL   H239  239   5.531   7.766   7.659  1.6237 -0.8369  0.5969
    1MOL   H240  240   5.527   7.928   7.914  1.1854  1.7247  2.1088
    1MOL   H241  241   5.646   7.897   8.038 -1.2346  2.0100  1.2188
    1MOL   C242  242   5.451   7.886   8.105 -0.3348 -0.6474  0.0572
    1MOL   C243  243   5.432   8.040   8.133  0.8337  0.3069  0.4447
    1MOL   C244  244   5.331   8.115   8.063 -0.1121 -0.4015  0.1591
    1MOL  Cl245  245   5.228   8.052   7.943 -0.0421 -0.2267  0.2812
    1MOL   C246  246   5.333   8.249   8.081 -0.5767 -0.2685  0.0343
    1MOL   C247  247   5.423   8.319   8.167  0.3136  0.3279 -0.6142
    1MOL   C248  248   5.521   8.247   8.238 -0.2597  0.1941 -0.2244
    1MOL   C249  249   5.529   8.109   8.211 -0.0763 -0.0885  0.2517
    1MOL   C250  250   5.475   7.822   8.239  0.0467 -0.8504  0.0030
    1MOL   H251  251   5.357   7.855   8.058 -0.4243  1.9938 -1.6472
    1MOL   H252  252   5.257   8.309   8.033  0.3409 -0.8575 -2.2377
    1MOL   H253  253   5.420   0.006   8.174  2.0342  0.2479  1.6603
    1MOL   H254  254   5.589   8.293   8.308  2.3476 -3.6214 -0.0876
    1MOL   H255  255   5.605   8.050   8.259 -1.8524 -2.7873 -0.1573
    1MOL   H256  256   5.580   7.836   8.265 -0.5623 -0.0964  2.1510
    1MOL   H257  257   5.473   7.714   8.220 -1.1618 -0.6451 -1.1143
    1MOL   C258  258   5.403   7.868   8.369  0.1974 -0.3961 -0.4252
    1MOL   C259  259   5.462   7.785   0.059 -0.9061 -0.4052 -0.5450
    1MOL   C260  260   5.530   7.827   0.173  0.5060 -0.2511  0.4188
    1MOL  Cl261  261   5.546   7.992   0.219  0.1149 -0.0406 -0.1564
    1MOL   C262  262   5.579   7.731   0.263  0.4276 -0.5380 -0.4868
    1MOL   C263  263   5.559   7.593   0.246 -0.3634 -0.3141  0.3810
    1MOL   C264  264   5.508   7.545   0.131  0.1395  0.2497  0.3451
    1MOL   C265  265   5.446   7.642   0.045 -1.3713  0.3194  0.6674
    1MOL   C266  266   5.255   7.857   8.360  0.0742 -0.1060  0.2756
    1MOL   H267  267   5.429   7.973   8.386 -0.4977 -0.2209 -0.4281
    1MOL   H268  268   5.626   7.774   0.351 -0.7000  1.0580 -0.6432
    1MOL   H269  269   5.602   7.525   0.318  1.6113  0.6519  0.1443
    1MOL   H270  270   5.486   7.440   0.120  0.0542  0.1958  1.0095
    1MOL   H271  271   5.381   7.600   8.390 -1.1958  1.9340 -0.3872
    1MOL   H272  272   5.233   7.751   8.342  2.5153 -1.0293  2.3591
    1MOL   H273  273   5.209   7.907   8.275 -0.0787 -0.4859  0.1307
    1MOL   C274  274   5.170   7.899   0.071 -0.7896 -0.5172  0.5336
    1MOL   C275  275   5.025   7.855   0.058 -0.5315  0.1394 -0.1281
    1MOL   C276  276   4.997   7.718   0.082 -0.7531 -0.6548 -0.4971
    1MOL  Cl277  277   5.125   7.620   0.140  0.0370  0.2709 -0.4381
    1MOL   C278  278   4.872   7.670   0.049  0.0166  0.0822  0.1464
    1MOL   C279  279   4.766   7.751   0.002  0.2348  0.2128 -0.4218
    1MOL   C280  280   4.787   7.883   8.398  0.3989  0.4227 -0.7201
    1MOL   C281  281   4.917   7.932   0.008  0.5193  0.0769  1.0658
    1MOL   C282  282   5.180   8.044   0.108 -0.1623  0.5058 -0.7111
    1MOL   H283  283   5.217   7.849   0.156  0.6558 -0.0742  0.0157
    1MOL   H284  284   4.853   7.564   0.062  0.4993  0.0464  0.5753
    1MOL   H285  285   4.665   7.720   8.402  0.6745 -0.3267 -1.8178
    1MOL   H286  286   4.703   7.941   8.363 -1.1659 -0.6934  1.0567
    1MOL   H287  287   4.926   8.037   8.406 -1.1354 -0.4334 -2.2625
    1MOL   H288  288   5.139   8.110   0.033 -0.5722  1.5570  0.4149
    1MOL   H289  289   5.284   8.078   0.109  0.4601 -1.3272  0.7023
    1MOL   C290  290   5.118   8.076   0.244  0.8723 -0.4365 -0.1838
    1MOL   C291  291   5.088   8.234   0.246  0.6196  0.1166  0.1383
    1MOL   C292  292   4.956   8.282   0.271  0.1412  0.6384  0.2075
    1MOL  Cl293  293   4.820   8.180   0.280  0.0105  0.0699  0.1355
    1MOL   C294  294   4.925   8.418   0.291 -0.5065  0.1640  0.2214
    1MOL   C295  295   5.027   0.093   0.268  0.5438 -0.9532 -0.3532
    1MOL   C296  296   5.155   0.046   0.240 -0.3255 -0.4051  0.6334
    1MOL   C297  297   5.190   8.329   0.231  0.3203  0.0183 -0.6740
    1MOL   C298  298   5.205   8.023   0.357 -0.4947 -0.1971 -0.2840
    1MOL   H299  299   5.020   8.027   0.247  1.1309 -1.0329 -1.1452
    1MOL   H300  300   4.828   0.035   0.321  0.1286  3.0393 -1.1521
    1MOL   H301  301   5.001   0.198   0.268 -2.0835 -1.5136  2.4387
    1MOL   H302  302   5.233   0.121   0.233  0.5848 -1.4213 -0.1747
    1MOL   H303  303   5.292   8.295   0.217  0.4593 -0.9288  2.2973
    1MOL   H304  304   5.298   8.079   0.354 -0.5930 -0.0126  0.0447
    1MOL   H305  305   5.223   7.916   0.352  0.4532 -0.0943  0.7230
    1MOL   C306  306   5.143   8.050   0.497  1.0225  1.5266 -0.4145
    1MOL   C307  307   5.245   8.084   0.602 -0.2651 -0.1391 -0.6635
    1MOL   C308  308   5.342   7.993   0.656 -0.3357 -0.5264  0.2607
    1MOL  Cl309  309   5.352   7.826   0.604 -0.0033 -0.0876 -0.1452
    1MOL   C310  310   5.435   8.043   0.749 -0.6527 -0.2517  0.3567
    1MOL   C311  311   5.434   8.181   0.796 -0.2513 -0.2456  0.4536
    1MOL   C312  312   5.327   8.259   0.754  0.3954  0.2009  0.5116
    1MOL   C313  313   5.237   8.215   0.654  0.1565 -0.1507  0.6536
    1MOL   C314  314   5.035   7.940   0.549  0.0663 -0.9255 -0.0522
    1MOL   H315  315   5.081   8.140   0.499 -2.1749 -0.5833  2.5094
    1MOL   H316  316   5.517   7.982   0.784  0.3672  1.3477  0.8028
    1MOL   H317  317   5.503   8.202   0.876  0.0827 -0.1354  0.1420
    1MOL   H318  318   5.314   8.359   0.793  0.1546 -0.1890  1.4558
    1MOL   H319  319   5.154   8.280   0.630 -1.7753 -2.1542  1.6950
    1MOL   H320  320   4.961   7.906   0.477 -0.7801 -1.9979  1.3023
    1MOL   H321  321   4.983   7.972   0.639 -3.4631 -0.4156 -2.2050
    1MOL   H322  322   5.085   7.845   0.570  0.3245 -0.4271  1.6480
    2MOL     C1  323   1.829   5.768   1.143 -0.7150  0.3063  0.5521
    2MOL     C2  324   1.922   5.699   1.045  1.0626  0.7220 -0.2205
    2MOL     C3  325   1.906   5.703   0.908  0.1770  0.3424 -0.1418
    2MOL    Cl4  326   1.766   5.770   0.836  0.1464  0.0540  0.1771
    2MOL     C5  327   1.995   5.633   0.819  0.2541 -0.3870 -0.5596
    2MOL     C6  328   2.099   5.548   0.869  0.1594  0.0383  0.2894
    2MOL     C7  329   2.116   5.552   1.008 -0.5193 -0.2174 -0.0721
    2MOL     C8  330   2.027   5.612   1.096 -0.3208 -0.2601  0.0383
    2MOL     C9  331   1.909   5.874   1.216  0.1650 -0.5377 -0.0466
    2MOL    H10  332   1.752   5.809   1.078  0.4377  1.5494 -0.0653
    2MOL    H11  333   1.968   5.614   0.716 -1.3830 -1.4593  0.0401
    2MOL    H12  334   2.158   5.484   0.805 -1.0671 -0.3438 -0.4627
    2MOL    H13  335   2.190   5.483   1.046 -3.0528 -3.6935 -1.1800
    2MOL    H14  336   2.037   5.611   1.204 -2.7696  0.6017  0.3182
    2MOL    H15  337   1.965   5.920   1.134 -0.8465 -2.1322 -1.6665
    2MOL    H16  338   1.982   5.817   1.273  0.6583  0.1720  0.0390
    2MOL    H17  339   1.773   5.699   1.206  0.7718  0.0382  1.5947
    2MOL    C18  340   1.837   5.986   1.302 -0.1688 -0.8919  0.7443
    2MOL    C19  341   1.702   6.035   1.242  0.6217  0.5071  0.1801
    2MOL    C20  342   1.693   6.109   1.120 -0.3309  0.4886 -0.9482
    2MOL   Cl21  343   1.839   6.174   1.047  0.2429  0.6028 -0.0731
    2MOL    C22  344   1.577   6.129   1.048  0.2324 -0.5714  0.6220
    2MOL    C23  345   1.455   6.083   1.098  0.2573  0.2924  1.2417
    2MOL    C24  346   1.454   6.013   1.222 -0.0590 -0.0491  0.2215
    2MOL    C25  347   1.576   5.990   1.288 -0.2184  0.0547 -0.2877
    2MOL    C26  348   1.940   6.093   1.344  0.0520  0.1557 -0.0320
    2MOL    H27  349   1.820   5.934   1.396  0.9563 -2.0128  0.3406
    2MOL    H28  350   1.577   6.176   0.950  2.0457 -1.9085 -0.0563
    2MOL    H29  351   1.359   6.089   1.049  1.4923  2.2334 -1.0520
    2MOL    H30  352   1.362   5.965   1.250 -0.0416  0.1590  0.6347
    2MOL    H31  353   1.564   5.923   1.372  0.1659 -1.4412 -1.3969
    2MOL    H32  354   1.982   6.149   1.261  1.1835  0.4937  0.7606
    2MOL    H33  355   2.024   6.036   1.383 -2.5214 -2.1750  2.3401
    2MOL    C34  356   1.900   6.186   1.450 -0.3573  0.3240  0.4985
    2MOL    C35  357   1.806   6.294   1.404  0.1505  0.8084 -0.4083
    2MOL    C36  358   1.673   6.302   1.449 -0.1124  0.4660 -0.2662
    2MOL   Cl37  359   1.597   6.193   1.553 -0.1520  0.1268 -0.2610
    2MOL    C38  360   1.590   6.401   1.388  0.1615  0.7557  0.1360
    2MOL    C39  361   1.637   6.492   1.289 -0.0740 -0.4543 -0.3980
    2MOL    C40  362   1.773   6.491   1.258  0.4762  0.0081 -0.4310
    2MOL    C41  363   1.856   6.391   1.315 -0.7850  0.5488  0.2604
    2MOL    C42  364   2.036   6.229   1.520  0.3297  0.3861  0.9900
    2MOL    H43  365   1.848   6.125   1.524 -0.0819  0.5293  0.8600
    2MOL    H44  366   1.487   6.394   1.421  0.0630 -1.7187 -0.6379
    2MOL    H45  367   1.572   6.553   1.229 -0.0489  1.0009  1.0180
    2MOL    H46  368   1.812   6.564   1.188  0.7045  0.2457 -0.0556
    2MOL    H47  369   1.955   6.380   1.273 -0.6332  0.9518  0.5125
    2MOL    H48  370   2.091   6.281   1.441  2.1376  0.3508  2.1917
    2MOL    H49  371   2.089   6.143   1.561  1.2328 -0.1032 -1.1671
    2MOL    C50  372   2.030   6.313   1.648 -0.6262 -0.1708  0.3706
    2MOL    C51  373   2.172   6.363   1.684 -0.0799 -0.9065  0.0040
    2MOL    C52  374   2.227   6.466   1.605 -0.3391  0.2086 -0.0236
    2MOL   Cl53  375   2.137   6.551   1.481 -0.1971 -0.0954  0.1171
    2MOL    C54  376   2.358   6.510   1.625  0.3072 -0.3948 -0.0774
    2MOL    C55  377   2.440   6.443   1.720 -0.3307 -0.6409  0.6595
    2MOL    C56  378   2.384   6.343   1.797 -0.2084  0.2679 -0.2933
    2MOL    C57  379   2.253   6.298   1.778  0.1097 -0.7891 -0.6716
    2MOL    C58  380   1.954   6.246   1.769 -0.1197  0.0302  0.4358
    2MOL    H59  381   1.967   6.400   1.629 -0.0404 -0.0161 -0.8920
    2MOL    H60  382   2.398   6.586   1.559  3.2370  0.1350  2.2068
    2MOL    H61  383   2.541   6.479   1.733 -0.4284 -0.3114  0.5143
    2MOL    H62  384   2.446   6.294   1.870  0.0550  2.8160  1.2160
    2MOL    H63  385   2.213   6.216   1.837 -2.4922 -0.2445 -1.6052
    2MOL    H64  386   2.012   6.177   1.831  2.0133 -0.9882 -2.5525
    2MOL    H65  387   1.880   6.180   1.725 -0.0477  0.8634 -0.9700
    2MOL    C66  388   1.863   6.348   1.854 -0.2957 -0.4005 -0.1181
    2MOL    C67  389   1.945   6.462   1.904 -0.0909  0.4011 -0.7431
    2MOL    C68  390   1.929   6.599   1.853  1.0946 -0.3098 -0.0040
    2MOL   Cl69  391   1.809   6.633   1.732  0.4713  0.3660 -0.2046
    2MOL    C70  392   2.029   6.692   1.889 -0.3458  0.0008  0.3622
    2MOL    C71  393   2.125   6.661   1.987 -0.0544 -0.4223  0.3944
    2MOL    C72  394   2.136   6.529   2.043  0.6026 -0.2117 -0.3650
    2MOL    C73  395   2.042   6.432   2.000 -0.4196 -0.7807 -0.4518
    2MOL    C74  396   1.784   6.287   1.974  0.4382  0.4742  0.3076
    2MOL    H75  397   1.787   6.381   1.784  1.0833  2.9736 -0.1107
    2MOL    H76  398   2.041   6.791   1.846  3.6066  0.1116  1.4752
    2MOL    H77  399   2.199   6.737   2.005 -0.5835  0.8065 -2.3442
    2MOL    H78  400   2.211   6.493   2.111  1.7899 -0.9267 -2.0219
    2MOL    H79  401   2.047   6.333   2.042  0.7767 -0.6105 -0.1962
    2MOL    H80  402   1.841   6.283   2.067 -0.1786 -0.8165  0.6323
    2MOL    H81  403   1.781   6.183   1.941 -0.2162  0.0973  1.5171
    2MOL    C82  404   1.639   6.341   1.994  0.6713 -0.5004  0.5806
    2MOL    C83  405   1.637   6.496   2.022 -0.0205  0.3036 -0.3792
    2MOL    C84  406   1.573   6.592   1.932  0.1665 -0.3984 -0.4738
    2MOL   Cl85  407   1.490   6.541   1.789  0.0837 -0.2584  0.0114
    2MOL    C86  408   1.604   6.728   1.952  0.4912  0.3663  0.1404
    2MOL    C87  409   1.688   6.777   2.055  0.2930  0.6461 -0.5918
    2MOL    C88  410   1.742   6.682   2.149  0.1889  0.3886 -0.6222
    2MOL    C89  411   1.711   6.544   2.129  0.2404  0.3605 -0.1139
    2MOL    C90  412   1.557   6.253   2.093  0.6161  0.4908  0.2909
    2MOL    H91  413   1.575   6.326   1.907  0.2318  1.6581  0.4985
    2MOL    H92  414   1.561   6.800   1.884  0.9758 -2.0129 -2.7903
    2MOL    H93  415   1.718   6.880   2.053 -2.2553  1.4327 -0.7219
    2MOL    H94  416   1.811   6.706   2.229  0.5591 -1.5826 -0.3398
    2MOL    H95  417   1.765   6.479   2.197  1.2228  2.9550  1.6633
    2MOL    H96  418   1.586   6.279   2.194  2.5959  0.3628 -0.2293
    2MOL    H97  419   1.590   6.152   2.069  0.9131  0.3427  1.3201
    2MOL    C98  420   1.398   6.270   2.092 -0.3547  0.9135  0.6079
    2MOL    C99  421   1.348   6.408   2.138 -0.3002  0.3491 -0.8138
    2MOL   C100  422   1.220   6.454   2.091  0.5243  0.3905 -0.4745
    2MOL  Cl101  423   1.128   6.375   1.967 -0.1547 -0.2161  0.1887
    2MOL   C102  424   1.162   6.577   2.142 -0.1660  0.6303 -0.8040
    2MOL   C103  425   1.226   6.651   2.243 -0.2928  0.0379  1.1162
    2MOL   C104  426   1.347   6.596   2.293 -0.6806  0.3381  0.3223
    2MOL   C105  427   1.411   6.481   2.240  0.6963  0.0098  0.1560
    2MOL   C106  428   1.325   6.153   2.163  0.4393  0.1019 -0.1936
    2MOL   H107  429   1.381   6.259   1.985 -1.9808 -0.0326  0.9380
    2MOL   H108  430   1.069   6.616   2.102 -0.4960  1.9666  1.1634
    2MOL   H109  431   1.190   6.747   2.277 -0.3699  0.1520  0.7131
    2MOL   H110  432   1.397   6.657   2.367  1.1033 -0.4021 -0.2427
    2MOL   H111  433   1.503   6.448   2.286  0.0914 -0.0427  1.3350
    2MOL   H112  434   1.219   6.179   2.169 -0.2708 -2.4757 -0.8019
    2MOL   H113  435   1.351   6.148   2.269  1.3714  0.4175 -0.4076
    2MOL   C114  436   1.335   6.016   2.092 -0.6891  0.1552  0.3729
    2MOL   C115  437   1.277   6.014   1.954  0.2899 -0.6938  0.0313
    2MOL   C116  438   1.357   6.002   1.835 -0.7456 -0.3026  0.0670
    2MOL  Cl117  439   1.525   5.967   1.831  0.3520  0.4841  0.3266
    2MOL   C118  440   1.293   6.004   1.710  0.2282  0.0944 -0.1675
    2MOL   C119  441   1.156   6.022   1.698  0.0832  0.8659  0.1095
    2MOL   C120  442   1.078   6.031   1.811 -0.3132  0.3335  0.5995
    2MOL   C121  443   1.138   6.023   1.937  0.3283  0.3332  0.4084
    2MOL   C122  444   1.290   5.902   2.183 -0.3716  0.5248  0.8311
    2MOL   H123  445   1.442   5.999   2.077 -0.7839  0.9848 -1.4012
    2MOL   H124  446   1.354   5.982   1.624 -0.2521  0.2423 -0.5511
    2MOL   H125  447   1.106   6.019   1.602  2.3354 -1.6568 -1.0587
    2MOL   H126  448   0.970   6.034   1.803 -0.3203 -1.7784 -0.4896
    2MOL   H127  449   1.077   6.044   2.024 -1.3357 -0.5930 -0.5081
    2MOL   H128  450   1.188   5.926   2.215 -1.3343 -0.6828 -1.2273
    2MOL   H129  451   1.347   5.897   2.276  1.5548 -0.4438 -0.3906
    2MOL   C130  452   1.274   5.762   2.110  0.6575 -0.1877  0.0134
    2MOL   C131  453   1.177   5.672   2.187 -0.3434  0.9067  0.4295
    2MOL   C132  454   1.067   5.605   2.124 -0.0488  0.4496 -0.3250
    2MOL  Cl133  455   1.053   5.595   1.957  0.0662  0.5016 -0.0763
    2MOL   C134  456   0.984   5.518   2.201  0.2436 -0.2365  0.2228
    2MOL   C135  457   0.989   5.515   2.345 -0.0860  0.2861  0.1793
    2MOL   C136  458   1.095   5.576   2.406  0.7273  0.1128 -0.4461
    2MOL   C137  459   1.190   5.652   2.327  0.9358  0.7355  0.0208
    2MOL   C138  460   1.420   5.702   2.090 -0.1028 -0.0350  0.5356
    2MOL   H139  461   1.228   5.779   2.013  1.3445 -1.1357 -0.4822
    2MOL   H140  462   0.910   5.463   2.144  0.1854  0.9638 -0.8979
    2MOL   H141  463   0.909   5.460   2.391  0.6497  0.3093  1.5111
    2MOL   H142  464   1.110   5.561   2.511 -0.7038 -0.2243 -0.2738
    2MOL   H143  465   1.276   5.688   2.383  0.7099  1.1171  0.1217
    2MOL   H144  466   1.454   5.673   2.190 -0.9300 -0.7861  0.6026
    2MOL   H145  467   1.486   5.774   2.042 -0.9607  0.3740 -0.0372
    2MOL   C146  468   1.421   5.565   2.011 -0.5044 -0.9038 -0.6650
    2MOL   C147  469   1.502   5.457   2.092  0.2070 -0.1835  0.8611
    2MOL   C148  470   1.444   5.353   2.163  0.4426 -0.1550  0.2300
    2MOL  Cl149  471   1.271   5.328   2.171 -0.4862 -0.1825 -0.2110
    2MOL   C150  472   1.521   5.248   2.217 -0.0112  0.2308  0.6514
    2MOL   C151  473   1.659   5.249   2.200  0.1081 -0.2586  0.0951
    2MOL   C152  474   1.723   5.350   2.130 -0.6761  0.2271  0.1615
    2MOL   C153  475   1.642   5.453   2.071  0.3300  0.0580  0.0327
    2MOL   C154  476   1.457   5.576   1.862 -0.4292  0.5251  0.6009
    2MOL   H155  477   1.319   5.526   2.005 -0.4417 -1.0901 -0.5353
    2MOL   H156  478   1.465   5.165   2.259 -1.4570  1.4745  1.2321
    2MOL   H157  479   1.721   5.174   2.247  0.4308 -0.3974 -0.5458
    2MOL   H158  480   1.830   5.354   2.116 -0.6887  2.2643  0.4721
    2MOL   H159  481   1.683   5.529   2.007  1.8118 -0.8314 -0.0911
    2MOL   H160  482   1.554   5.623   1.846 -0.9604  1.1153 -1.0205
    2MOL   H161  483   1.387   5.653   1.832 -0.4943  1.1675  2.3416
    2MOL   C162  484   1.457   5.439   1.784 -0.6725 -0.6662 -0.0180
    2MOL   C163  485   1.549   5.437   1.659 -0.0719 -1.2668  0.1872
    2MOL   C164  486   1.670   5.362   1.649 -0.4297  0.1330 -0.0484
    2MOL  Cl165  487   1.720   5.250   1.759  0.3770 -0.0581  0.2717
    2MOL   C166  488   1.755   5.375   1.539 -0.1030  0.0977  0.7230
    2MOL   C167  489   1.721   5.454   1.430  0.1765  0.0230 -0.8994
    2MOL   C168  490   1.604   5.525   1.438  0.4434  0.2747 -0.0952
    2MOL   C169  491   1.527   5.524   1.557 -0.3871 -0.3520 -0.2526
    2MOL   C170  492   1.312   5.403   1.757  0.8507 -0.2289 -0.0199
    2MOL   H171  493   1.488   5.358   1.851  0.6959 -0.1394 -0.0027
    2MOL   H172  494   1.847   5.318   1.538  0.5896  1.2111 -0.5905
    2MOL   H173  495   1.775   5.447   1.337  0.3329 -0.0871 -0.8018
    2MOL   H174  496   1.580   5.600   1.364 -0.6935  0.1796  0.1650
    2MOL   H175  497   1.444   5.593   1.552  0.1998  0.3272 -0.5263
    2MOL   H176  498   1.274   5.466   1.677 -1.9477 -2.1449 -0.2702
    2MOL   H177  499   1.241   5.436   1.832 -0.4204  0.8757 -1.6602
    2MOL   C178  500   1.293   5.261   1.716  0.8948 -0.0119 -0.1354
    2MOL   C179  501   1.161   5.235   1.639 -0.3870 -0.1965  0.2772
    2MOL   C180  502   1.150   5.134   1.536 -0.1008  0.1738 -0.3802
    2MOL  Cl181  503   1.288   5.061   1.474 -0.0572  0.1484  0.1740
    2MOL   C182  504   1.029   5.113   1.471  0.7301 -0.5562 -0.0472
    2MOL   C183  505   0.911   5.167   1.522 -0.0368  0.3554 -0.1542
    2MOL   C184  506   0.915   5.253   1.635 -0.1255 -0.5197 -0.2725
    2MOL   C185  507   1.039   5.285   1.696  0.0455 -0.1006  0.7162
    2MOL   C186  508   1.301   5.162   1.843  0.1832 -0.1805  0.2962
    2MOL   H187  509   1.372   5.252   1.641 -0.5581 -0.2376 -1.6755
    2MOL   H188  510   1.020   5.043   1.389 -0.0847 -0.1661 -0.3017
    2MOL   H189  511   0.816   5.150   1.474  0.0639  0.0863 -0.2605
    2MOL   H190  512   0.828   5.296   1.684  0.5621  1.2786 -0.5647
    2MOL   H191  513   1.037   5.339   1.790 -2.5169 -1.3446  1.4090
    2MOL   H192  514   1.225   5.203   1.909 -1.1382  0.4492 -1.5705
    2MOL   H193  515   1.391   5.175   1.903 -0.0835  0.5821  0.5272
    2MOL   C194  516   1.278   5.010   1.823 -0.3637 -0.4460 -0.0581
    2MOL   C195  517   1.185   4.949   1.931 -0.1451 -0.4933  0.0638
    2MOL   C196  518   1.071   4.879   1.897  1.0844  0.5328 -0.5340
    2MOL  Cl197  519   1.018   4.856   1.735  0.4707 -0.1018  0.0279
    2MOL   C198  520   1.002   4.812   1.998 -0.3644  0.4394  0.1814
    2MOL   C199  521   1.041   4.813   2.135 -0.3026 -0.7491 -0.2667
    2MOL   C200  522   1.152   4.891   2.166  0.4767 -0.0752 -0.5631
    2MOL   C201  523   1.226   4.955   2.063 -0.5229  0.6576 -0.0066
    2MOL   C202  524   1.412   4.943   1.798 -0.3955 -0.1839 -0.5124
    2MOL   H203  525   1.221   5.001   1.730  0.6667 -2.4585 -0.5253
    2MOL   H204  526   0.913   4.758   1.969 -0.9860 -0.6353  3.7920
    2MOL   H205  527   0.976   4.772   2.211  0.0465  0.9333  0.9716
    2MOL   H206  528   1.191   4.899   2.266 -0.3405  0.7891 -0.3065
    2MOL   H207  529   1.325   4.992   2.084 -0.0766 -1.0278  0.9168
    2MOL   H208  530   1.474   4.958   1.886  0.8240 -2.2077 -0.9880
    2MOL   H209  531   1.468   4.992   1.718 -0.8829  2.9270  0.9951
    2MOL   C210  532   1.402   4.790   1.763 -0.4805 -0.5659 -0.4261
    2MOL   C211  533   1.532   4.722   1.798 -0.0056  0.0659  0.2220
    2MOL   C212  534   1.525   4.612   1.882 -0.0710 -0.5784 -0.1007
    2MOL  Cl213  535   1.388   4.573   1.979  0.3991  0.1174 -0.1233
    2MOL   C214  536   1.645   4.542   1.906 -0.6528  0.0793 -0.4361
    2MOL   C215  537   1.763   4.575   1.838 -0.0334 -0.3280 -0.6669
    2MOL   C216  538   1.767   4.684   1.753 -0.2140  0.0260  0.2667
    2MOL   C217  539   1.651   4.752   1.725 -0.1178  0.0717 -0.1240
    2MOL   C218  540   1.370   4.770   1.612  0.7869 -0.0223 -0.2966
    2MOL   H219  541   1.315   4.765   1.824 -0.0860 -0.3245  0.2418
    2MOL   H220  542   1.632   4.453   1.966 -1.3358 -0.4168 -1.3118
    2MOL   H221  543   1.855   4.523   1.855 -1.4622 -2.8961 -0.5161
    2MOL   H222  544   1.859   4.714   1.704  1.5361 -0.2655  3.2673
    2MOL   H223  545   1.643   4.829   1.651 -1.9266 -0.5979 -0.6453
    2MOL   H224  546   1.432   4.837   1.553 -2.3644  0.4737 -3.1829
    2MOL   H225  547   1.277   4.823   1.592  1.4682  0.1396 -3.1609
    2MOL   C226  548   1.359   4.630   1.568 -0.7343 -0.1667 -0.3458
    2MOL   C227  549   1.377   4.601   1.415 -0.4449 -0.0175  0.2249
    2MOL   C228  550   1.466   4.506   1.373 -0.6072 -0.3185  0.8350
    2MOL  Cl229  551   1.557   4.400   1.477  0.7127  0.7113 -0.9082
    2MOL   C230  552   1.488   4.495   1.236  0.1478  0.1751  0.0305
    2MOL   C231  553   1.423   4.578   1.144 -0.2635  0.2466 -0.5525
    2MOL   C232  554   1.319   4.661   1.191  0.1756  0.1364  0.1834
    2MOL   C233  555   1.300   4.677   1.324 -0.9126  0.4758  0.3306
    2MOL   C234  556   1.222   4.583   1.608 -0.1809  0.1935  0.1430
    2MOL   H235  557   1.430   4.570   1.624 -1.1111 -0.2117  0.0827
    2MOL   H236  558   1.563   4.424   1.203 -0.5350 -0.9475  0.8795
    2MOL   H237  559   1.436   4.572   1.037 -0.3960  0.3834 -0.5764
    2MOL   H238  560   1.266   4.725   1.122  3.1563  0.9332 -1.4743
    2MOL   H239  561   1.231   4.755   1.354 -1.5122 -0.6412  1.8682
    2MOL   H240  562   1.160   4.653   1.552  0.5485 -0.2112 -1.1970
    2MOL   H241  563   1.199   4.606   1.712 -2.1635  1.1327 -0.4686
    2MOL   C242  564   1.179   4.442   1.568  0.0029 -0.2975 -0.2694
    2MOL   C243  565   1.032   4.417   1.560 -0.1803 -0.1422  0.4346
    2MOL   C244  566   0.969   4.395   1.437  0.1224  0.7953 -0.3630
    2MOL  Cl245  567   1.039   4.395   1.282  0.0356  0.2323  0.2080
    2MOL   C246  568   0.834   4.360   1.428  0.8703  0.5682 -0.4367
    2MOL   C247  569   0.762   4.341   1.548 -0.5142 -0.0557  0.1685
    2MOL   C248  570   0.820   4.370   1.674  0.0018  0.2349  0.5392
    2MOL   C249  571   0.952   4.405   1.675 -0.2900 -0.7412  0.3722
    2MOL   C250  572   1.251   4.337   1.651 -0.2349 -0.4525 -0.0108
    2MOL   H251  573   1.211   4.417   1.467 -0.3481 -0.3707 -0.3622
    2MOL   H252  574   0.788   4.327   1.336  2.4646  0.6902 -1.2943
    2MOL   H253  575   0.658   4.312   1.536 -0.4551 -0.8881  1.5367
    2MOL   H254  576   0.760   4.374   1.764 -0.4801 -1.3026  0.3076
    2MOL   H255  577   1.000   4.431   1.768 -1.4572 -2.7212  1.5624
    2MOL   H256  578   1.225   4.350   1.755  2.3027 -2.0214  0.8843
    2MOL   H257  579   1.359   4.353   1.660 -0.2842 -0.4980  0.6275
    2MOL   C258  580   1.218   4.187   1.602 -0.2186 -0.3338 -0.0278
    2MOL   C259  581   1.224   4.084   1.713 -0.2969  0.1246  0.3590
    2MOL   C260  582   1.117   3.997   1.740 -0.3871 -0.4361  0.0998
    2MOL  Cl261  583   0.962   4.014   1.658 -0.0317  0.1657  0.0800
    2MOL   C262  584   1.126   3.891   1.835  0.3249 -0.5352  0.1985
    2MOL   C263  585   1.244   3.870   1.904 -0.8260 -0.4728 -0.4008
    2MOL   C264  586   1.350   3.956   1.876 -0.7059  0.1180  0.1960
    2MOL   C265  587   1.343   4.058   1.780 -0.5305  0.6644  0.6906
    2MOL   C266  588   1.304   4.138   1.481 -0.6199  0.2360 -0.1642
    2MOL   H267  589   1.111   4.191   1.582  0.0305  0.3399 -1.2782
    2MOL   H268  590   1.047   3.818   1.828 -0.8621  0.8612 -1.8474
    2MOL   H269  591   1.251   3.791   1.977  0.9590 -0.1038 -0.1458
    2MOL   H270  592   1.443   3.948   1.930  0.4138  0.2911 -1.6447
    2MOL   H271  593   1.436   4.109   1.758  0.5085 -1.6877 -0.4939
    2MOL   H272  594   1.404   4.116   1.519 -0.9914  1.1588  1.3668
    2MOL   H273  595   1.327   4.214   1.406  1.5271 -2.5560 -2.4633
    2MOL   C274  596   1.248   4.018   1.405  0.4108  0.0341  0.2253
    2MOL   C275  597   1.353   3.939   1.329  0.9682  0.5120  0.3182
    2MOL   C276  598   1.388   3.816   1.372 -0.2076 -0.2662  0.0042
    2MOL  Cl277  599   1.323   3.740   1.514 -0.3178 -0.2475 -0.2166
    2MOL   C278  600   1.477   3.736   1.295 -0.3682 -0.4799 -0.2383
    2MOL   C279  601   1.530   3.789   1.173 -0.1699 -0.2391  0.2192
    2MOL   C280  602   1.498   3.921   1.136  0.7224 -0.2606  0.0295
    2MOL   C281  603   1.406   3.992   1.212 -0.3640 -0.7881  0.8958
    2MOL   C282  604   1.132   4.060   1.309 -0.4497 -0.3953  0.0188
    2MOL   H283  605   1.203   3.959   1.485 -0.4009  1.2676  0.6902
    2MOL   H284  606   1.497   3.635   1.329  0.3071 -1.4322 -3.2459
    2MOL   H285  607   1.594   3.724   1.116 -0.5958 -0.0217 -0.5171
    2MOL   H286  608   1.535   3.972   1.049  0.7272 -1.2856 -0.5751
    2MOL   H287  609   1.376   4.091   1.182  0.3452 -0.9301 -0.3273
    2MOL   H288  610   1.166   4.125   1.228 -3.6447  0.3216 -0.8153
    2MOL   H289  611   1.063   4.119   1.369  1.2495  0.0833  1.5602
    2MOL   C290  612   1.048   3.946   1.236 -0.7649  0.5935 -0.0689
    2MOL   C291  613   1.028   3.989   1.089 -0.3643  0.4029  0.1296
    2MOL   C292  614   1.095   3.926   0.983 -0.6739 -0.9478 -0.6516
    2MOL  Cl293  615   1.201   3.791   0.997 -0.8117 -0.1838 -0.0310
    2MOL   C294  616   1.084   3.973   0.855  0.1006 -0.0756  0.0931
    2MOL   C295  617   1.008   4.088   0.827 -0.7529  0.4152  0.4129
    2MOL   C296  618   0.941   4.156   0.933 -0.6031  0.1319  0.0962
    2MOL   C297  619   0.946   4.104   1.065  0.2936 -0.8953  0.6388
    2MOL   C298  620   0.920   3.908   1.309 -0.3751 -1.1372  0.7440
    2MOL   H299  621   1.109   3.856   1.231  1.1219  1.6322  2.8449
    2MOL   H300  622   1.146   3.924   0.782  0.9083  0.0521  0.6950
    2MOL   H301  623   1.011   4.134   0.729  0.2880  0.4506  0.4536
    2MOL   H302  624   0.893   4.252   0.921  0.9090  0.6986 -1.7079
    2MOL   H303  625   0.890   4.159   1.139 -0.0139  0.0824 -0.2996
    2MOL   H304  626   0.876   4.005   1.333 -0.3465 -0.0578 -3.2327
    2MOL   H305  627   0.941   3.859   1.404  0.7171 -1.0483  0.5520
    2MOL   C306  628   0.820   3.831   1.228 -0.6239  0.1352  0.2093
    2MOL   C307  629   0.684   3.843   1.297 -0.3935 -0.2560 -0.8506
    2MOL   C308  630   0.563   3.854   1.229 -0.4116 -0.4827  0.6228
    2MOL  Cl309  631   0.560   3.879   1.058  0.1148  0.3064 -0.1238
    2MOL   C310  632   0.444   3.866   1.303 -0.1482 -0.1653  0.3733
    2MOL   C311  633   0.434   3.838   1.442 -0.0092 -0.8106  0.4339
    2MOL   C312  634   0.556   3.815   1.508  0.2527  0.1399 -0.9460
    2MOL   C313  635   0.678   3.825   1.438  0.2674  0.0686  0.3913
    2MOL   C314  636   0.857   3.678   1.195  0.3125 -0.0168 -0.6016
    2MOL   H315  637   0.809   3.889   1.136  1.1491 -0.2239 -0.2329
    2MOL   H316  638   0.351   3.888   1.253  0.6449  1.4298 -0.4140
    2MOL   H317  639   0.338   3.846   1.490  0.5113 -0.2514  1.3706
    2MOL   H318  640   0.554   3.792   1.614  0.3781 -3.0784 -1.6024
    2MOL   H319  641   0.768   3.826   1.497  1.2665 -0.1026 -1.1044
    2MOL   H320  642   0.788   3.629   1.126 -0.8538  0.0018  0.5308
    2MOL   H321  643   0.856   3.631   1.293 -0.0511  2.2604  0.5401
    2MOL   H322  644   0.951   3.662   1.142  1.7060  1.0277  1.4886
    3MOL     C1  645   3.262   6.226   0.571  0.4718  0.0428 -0.0831
    3MOL     C2  646   3.146   6.201   0.469  0.0877  0.1555  0.5757
    3MOL     C3  647   3.095   6.306   0.388  0.4194 -0.1420 -0.0075
    3MOL    Cl4  648   3.179   6.458   0.377  0.2962  0.0769  0.0568
    3MOL     C5  649   2.990   6.274   0.294 -0.6007  0.6988 -0.5787
    3MOL     C6  650   2.945   6.140   0.269 -0.0201 -0.6178 -0.0843
    3MOL     C7  651   2.995   6.043   0.355  0.6176 -0.6632 -0.0644
    3MOL     C8  652   3.089   6.077   0.452 -0.2915  0.1512  0.4085
    3MOL     C9  653   3.394   6.179   0.510  0.7832 -0.1703 -0.1813
    3MOL    H10  654   3.257   6.332   0.597 -0.1882  0.3163 -1.3252
    3MOL    H11  655   2.952   6.356   0.235  1.7722  3.7468  1.9969
    3MOL    H12  656   2.867   6.122   0.196  0.9720  1.1628 -1.6265
    3MOL    H13  657   2.952   5.945   0.343 -0.8415 -0.1234  0.6969
    3MOL    H14  658   3.118   5.996   0.518  0.4091  2.2839  2.7609
    3MOL    H15  659   3.427   6.230   0.420  0.7922  0.6269  0.2686
    3MOL    H16  660   3.382   6.073   0.488  0.7964 -0.9265  3.1222
    3MOL    H17  661   3.241   6.166   0.660 -1.4441 -0.1566 -0.6421
    3MOL    C18  662   3.509   6.181   0.609 -0.0167 -0.7029 -0.3077
    3MOL    C19  663   3.515   6.315   0.687  0.8209  0.6333 -0.9651
    3MOL    C20  664   3.503   6.316   0.828 -0.3881 -0.0570 -0.1685
    3MOL   Cl21  665   3.484   6.167   0.929  0.0547  0.0775  0.2951
    3MOL    C22  666   3.501   6.436   0.892  0.0289 -0.5196 -0.1061
    3MOL    C23  667   3.518   6.555   0.817 -0.0099 -0.8525 -0.4133
    3MOL    C24  668   3.526   6.561   0.682  0.1765  0.5295  0.5597
    3MOL    C25  669   3.521   6.434   0.613 -0.4069  0.0907 -0.6139
    3MOL    C26  670   3.647   6.158   0.552  0.3653  0.2012  0.5842
    3MOL    H27  671   3.489   6.102   0.681 -0.7568 -0.9227 -0.7520
    3MOL    H28  672   3.493   6.433   0.999 -1.9370  0.3232 -0.2130
    3MOL    H29  673   3.523   6.652   0.865 -1.0254  0.3088 -2.5863
    3MOL    H30  674   3.536   6.655   0.630 -1.2599  1.1449  1.3749
    3MOL    H31  675   3.525   6.433   0.505 -2.3244  1.9131 -0.7362
    3MOL    H32  676   3.719   6.173   0.633  2.1297  0.0645 -0.9297
    3MOL    H33  677   3.672   6.243   0.488 -0.5320  0.4838  0.5913
    3MOL    C34  678   3.660   6.015   0.477 -0.7121 -0.0721  0.5297
    3MOL    C35  679   3.652   5.894   0.571 -0.4194 -0.2883 -0.1226
    3MOL    C36  680   3.567   5.782   0.537  0.3304  0.8576 -0.2563
    3MOL   Cl37  681   3.469   5.779   0.399  0.0206 -0.1736  0.1609
    3MOL    C38  682   3.543   5.677   0.632 -0.3633  0.3088 -0.5259
    3MOL    C39  683   3.614   5.684   0.752 -0.7299 -0.3807  0.2370
    3MOL    C40  684   3.698   5.791   0.790  0.6483 -0.3212 -0.2879
    3MOL    C41  685   3.723   5.891   0.693 -0.2325 -0.6698  0.0580
    3MOL    C42  686   3.783   6.008   0.381  0.2675  0.1880 -0.0705
    3MOL    H43  687   3.577   5.999   0.408  0.1099 -1.5604 -0.1423
    3MOL    H44  688   3.477   5.593   0.615  0.1287  0.1127 -1.4550
    3MOL    H45  689   3.598   5.604   0.822 -1.5376 -1.3658 -1.0546
    3MOL    H46  690   3.758   5.794   0.879 -0.8706  0.6208  0.7427
    3MOL    H47  691   3.786   5.965   0.740 -0.5264 -0.1742 -0.3230
    3MOL    H48  692   3.784   5.907   0.337 -2.1893  0.5725 -1.1156
    3MOL    H49  693   3.881   6.009   0.428  0.2941  0.2779 -0.1272
    3MOL    C50  694   3.792   6.112   0.267  0.3797  0.0247 -0.3296
    3MOL    C51  695   3.665   6.123   0.184 -0.3869  0.0215 -0.2250
    3MOL    C52  696   3.593   6.244   0.183  0.2604 -0.3857 -0.0367
    3MOL   Cl53  697   3.629   6.387   0.272  0.1182 -0.0428  0.1607
    3MOL    C54  698   3.472   6.254   0.105 -0.3266  0.0468 -1.0026
    3MOL    C55  699   3.438   6.148   0.015  0.6157 -0.1217  0.6698
    3MOL    C56  700   3.508   6.024   0.020 -0.2016  0.3503 -0.2692
    3MOL    C57  701   3.615   6.012   0.110  0.0090  0.0169  0.5782
    3MOL    C58  702   3.913   6.087   0.172 -0.2008  0.4485  0.0063
    3MOL    H59  703   3.813   6.206   0.318 -1.3870  0.2288  0.0586
    3MOL    H60  704   3.424   6.351   0.098  0.5370  0.5604 -0.0376
    3MOL    H61  705   3.355   6.164   8.368  0.9944 -2.3892 -0.4125
    3MOL    H62  706   3.481   5.943   8.374  1.3993  1.2740 -2.0737
    3MOL    H63  707   3.672   5.921   0.120  0.1570  0.2545  1.9695
    3MOL    H64  708   3.905   6.156   0.089  0.6426 -0.1320 -0.5696
    3MOL    H65  709   3.907   5.989   0.125  1.4802  0.3913 -0.1088
    3MOL    C66  710   4.058   6.123   0.221 -0.3157  0.1558 -0.0768
    3MOL    C67  711   4.062   6.272   0.275  0.3824  0.3252  0.1914
    3MOL    C68  712   4.099   6.305   0.412  0.3038  0.0308  0.9055
    3MOL   Cl69  713   4.134   6.185   0.531 -0.1007  0.1653  0.2952
    3MOL    C70  714   4.086   6.436   0.454  0.1760  0.2124 -0.0713
    3MOL    C71  715   4.055   6.541   0.370  0.8443 -0.1955 -0.8122
    3MOL    C72  716   4.035   6.520   0.231 -0.0380  0.8122 -0.9609
    3MOL    C73  717   4.037   6.377   0.193  0.1358 -0.3349  0.1229
    3MOL    C74  718   4.172   6.101   0.117 -0.0467  0.6760 -0.4553
    3MOL    H75  719   4.074   6.058   0.307 -1.0963 -0.2417 -0.2312
    3MOL    H76  720   4.099   6.452   0.560 -0.4494  0.0455  0.0298
    3MOL    H77  721   4.053   6.645   0.400 -0.9839 -0.3432 -0.3738
    3MOL    H78  722   4.032   6.605   0.165 -1.2248  1.9578  0.5505
    3MOL    H79  723   4.025   6.358   0.087 -0.4218 -1.2788  0.3506
    3MOL    H80  724   4.262   6.135   0.168 -0.8040  1.2651  0.5159
    3MOL    H81  725   4.150   6.155   0.025 -0.7548  1.9036  0.4249
    3MOL    C82  726   4.202   5.949   0.095 -0.4558  0.7017  0.4744
    3MOL    C83  727   4.284   5.891   0.213  0.0248  0.2586  0.3183
    3MOL    C84  728   4.230   5.796   0.306 -0.2490  0.8158  0.0892
    3MOL   Cl85  729   4.066   5.743   0.304 -0.0249  0.1278 -0.4647
    3MOL    C86  730   4.308   5.756   0.413 -0.2080 -0.7375  0.4943
    3MOL    C87  731   4.447   5.802   0.424  0.0496 -0.7359 -0.1029
    3MOL    C88  732   4.501   5.883   0.325 -0.3229 -0.3157  0.4097
    3MOL    C89  733   4.420   5.922   0.218  0.0338  0.8786 -0.4160
    3MOL    C90  734   4.272   5.921   8.374  0.9718 -0.2609 -0.1652
    3MOL    H91  735   4.108   5.894   0.095 -0.2694  0.3836  0.5424
    3MOL    H92  736   4.269   5.696   0.494  1.4073 -1.2897  0.8747
    3MOL    H93  737   4.512   5.776   0.505  0.1920 -0.3852 -0.1052
    3MOL    H94  738   4.604   5.915   0.323  0.5617 -3.0663 -3.3461
    3MOL    H95  739   4.475   5.981   0.147 -0.6657 -2.1279 -3.6341
    3MOL    H96  740   4.321   5.824   8.370  0.5288 -0.4427 -1.2439
    3MOL    H97  741   4.356   5.990   8.364  3.1786 -2.6048  1.6107
    3MOL    C98  742   4.171   5.942   8.261 -0.3376  0.1067 -0.8254
    3MOL    C99  743   4.082   5.818   8.247 -0.0019  0.0967  0.0282
    3MOL   C100  744   3.939   5.836   8.213  0.6407  0.7781  0.2021
    3MOL  Cl101  745   3.869   5.992   8.197  0.2529 -0.1710  0.2450
    3MOL   C102  746   3.857   5.728   8.200  0.5853 -0.4789 -0.0798
    3MOL   C103  747   3.911   5.599   8.217 -0.2478  0.1361 -0.3267
    3MOL   C104  748   4.045   5.578   8.244  0.2933 -0.7708  0.0822
    3MOL   C105  749   4.136   5.686   8.262 -0.3785 -0.2437  0.1022
    3MOL   C106  750   4.230   5.982   8.127 -0.3423  0.7807  0.3674
    3MOL   H107  751   4.116   6.036   8.270 -2.1384 -0.9198 -0.9646
    3MOL   H108  752   3.756   5.735   8.163  0.6229 -1.7585 -0.4367
    3MOL   H109  753   3.842   5.516   8.220 -2.5235  1.9816  1.4823
    3MOL   H110  754   4.078   5.480   8.274  0.1538 -2.0614 -3.8069
    3MOL   H111  755   4.241   5.670   8.282 -0.5128 -1.3119 -0.0062
    3MOL   H112  756   4.144   5.975   8.061  2.0604 -0.3982 -2.7484
    3MOL   H113  757   4.305   5.911   8.092 -0.1555  1.6326 -1.0188
    3MOL   C114  758   4.299   6.120   8.111 -0.4883  0.0891 -0.2310
    3MOL   C115  759   4.227   6.240   8.174  0.0282 -0.2455 -0.2898
    3MOL   C116  760   4.279   6.331   8.273 -0.4506 -0.5387 -0.1913
    3MOL  Cl117  761   4.422   6.295   8.361  0.0053 -0.0181  0.1427
    3MOL   C118  762   4.213   6.447   8.309 -0.3970  0.8705 -0.4748
    3MOL   C119  763   4.088   6.474   8.255 -0.0486  0.0547  0.1844
    3MOL   C120  764   4.028   6.389   8.161  0.3226 -0.7722 -0.6280
    3MOL   C121  765   4.096   6.271   8.123  0.6808 -0.4101 -0.4092
    3MOL   C122  766   4.323   6.149   7.950 -0.2900 -0.3702 -0.7299
    3MOL   H123  767   4.397   6.115   8.159 -0.2013 -0.0959 -0.8350
    3MOL   H124  768   4.253   6.507   8.390 -1.3705 -1.4051  1.7738
    3MOL   H125  769   4.040   6.567   8.281  1.5933  0.8266  0.5425
    3MOL   H126  770   3.931   6.425   8.131 -0.2573 -0.1574  1.8468
    3MOL   H127  771   4.046   6.214   8.045 -0.9506 -0.0565  0.3420
    3MOL   H128  772   4.347   6.253   7.929 -0.6417 -0.5551 -2.1311
    3MOL   H129  773   4.226   6.140   7.901 -0.5370 -0.7890 -0.1674
    3MOL   C130  774   4.420   6.072   7.861 -0.1852  0.0845 -1.0994
    3MOL   C131  775   4.560   6.120   7.898 -0.8028 -0.1615 -0.0474
    3MOL   C132  776   4.644   6.057   7.999  0.9044 -0.2850  0.1316
    3MOL  Cl133  777   4.584   5.923   8.089  0.1468 -0.6443  0.3845
    3MOL   C134  778   4.772   6.106   8.026  1.2320 -0.9355 -0.3293
    3MOL   C135  779   4.816   6.224   7.966  0.3723 -1.1411  0.1298
    3MOL   C136  780   4.745   6.290   7.869  0.0429 -0.4711  0.6770
    3MOL   C137  781   4.615   6.236   7.836 -1.2227  0.6734 -0.5045
    3MOL   C138  782   4.378   6.076   7.713 -0.8234  0.2951 -0.4813
    3MOL   H139  783   4.419   5.965   7.886 -0.6475  0.0203 -1.3836
    3MOL   H140  784   4.835   6.061   8.101  1.3004 -1.3620 -0.6473
    3MOL   H141  785   4.915   6.258   7.993  0.1656  0.5546 -1.1581
    3MOL   H142  786   4.788   6.379   7.826  1.6222 -1.5121  0.0827
    3MOL   H143  787   4.552   6.291   7.768 -0.5788  0.0870 -1.6017
    3MOL   H144  788   4.453   6.035   7.645 -0.2512  1.0412 -0.3033
    3MOL   H145  789   4.360   6.178   7.680  1.3446  0.3584 -1.5815
    3MOL   C146  790   4.245   6.002   7.680  0.3130 -0.2125 -0.1692
    3MOL   C147  791   4.213   5.871   7.758  0.4882 -0.2077  0.0305
    3MOL   C148  792   4.097   5.860   7.830  0.5107  0.0645 -0.1926
    3MOL  Cl149  793   3.971   5.982   7.829 -0.2128  0.2031 -0.4264
    3MOL   C150  794   4.066   5.742   7.898 -0.4653  0.0779  0.3402
    3MOL   C151  795   4.171   5.645   7.925 -0.0246 -0.3377  0.4589
    3MOL   C152  796   4.289   5.657   7.851 -0.1148  0.2395 -0.4894
    3MOL   C153  797   4.308   5.765   7.767  0.0791 -0.0827 -0.1580
    3MOL   C154  798   4.232   5.976   7.530  0.2197 -0.0954 -0.0733
    3MOL   H155  799   4.173   6.081   7.701  1.5195  1.1396 -0.9811
    3MOL   H156  800   3.968   5.737   7.942 -0.6354 -1.2924 -0.1823
    3MOL   H157  801   4.152   5.559   7.988 -0.1248  0.1004  1.0319
    3MOL   H158  802   4.369   5.584   7.853  0.3027  0.6598 -1.2917
    3MOL   H159  803   4.402   5.770   7.713 -0.1568 -0.8206 -0.6494
    3MOL   H160  804   4.292   5.888   7.508  0.5513  0.2353 -0.5061
    3MOL   H161  805   4.284   6.061   7.485 -1.1216  0.8949  0.2025
    3MOL   C162  806   4.088   5.964   7.482  0.1380 -0.5830 -0.5145
    3MOL   C163  807   4.049   5.833   7.410 -0.6204  0.1114 -0.3536
    3MOL   C164  808   3.933   5.763   7.438  0.0722 -0.1853  0.0910
    3MOL  Cl165  809   3.827   5.803   7.567 -0.0026  0.1205  0.5746
    3MOL   C166  810   3.894   5.657   7.353  0.2884  0.2450  1.0257
    3MOL   C167  811   3.982   5.618   7.249 -0.5267 -0.0030  0.8104
    3MOL   C168  812   4.102   5.686   7.225  0.1816  0.3672  0.7638
    3MOL   C169  813   4.137   5.789   7.310 -0.3410  0.3165  0.0963
    3MOL   C170  814   4.057   6.079   7.384 -0.2814  0.0678  0.1096
    3MOL   H171  815   4.022   5.972   7.568  1.3871 -1.3896  0.5362
    3MOL   H172  816   3.799   5.608   7.361  0.9781 -1.1591  0.7489
    3MOL   H173  817   3.939   5.546   7.181  0.0953 -0.0562  0.4718
    3MOL   H174  818   4.170   5.658   7.146 -1.8623  1.0452 -1.2959
    3MOL   H175  819   4.226   5.844   7.286  0.4505 -0.8208  0.3832
    3MOL   H176  820   3.953   6.076   7.352 -0.3018 -1.0917  0.2665
    3MOL   H177  821   4.106   6.064   7.288  1.0720 -3.1806  1.2402
    3MOL   C178  822   4.070   6.227   7.429  0.1650 -0.9482  1.4552
    3MOL   C179  823   4.002   6.259   7.564  0.1719  0.6461  0.6099
    3MOL   C180  824   4.056   6.347   7.663 -0.0532  1.2719  1.4125
    3MOL  Cl181  825   4.207   6.421   7.646  0.2875 -0.1923  0.1237
    3MOL   C182  826   3.984   6.384   7.783 -0.1594 -0.2023 -0.3526
    3MOL   C183  827   3.852   6.333   7.799 -0.3760  0.5730 -0.0313
    3MOL   C184  828   3.790   6.252   7.700 -0.5227  0.1195  0.1677
    3MOL   C185  829   3.868   6.219   7.585  0.4870  0.0055 -0.4144
    3MOL   C186  830   4.036   6.332   7.318 -1.0935  0.3138 -0.1890
    3MOL   H187  831   4.177   6.241   7.448  0.7717 -1.7419 -1.1060
    3MOL   H188  832   4.038   6.447   7.853  1.8607 -1.0947 -1.0901
    3MOL   H189  833   3.804   6.347   7.895  0.9440  1.8210  0.4711
    3MOL   H190  834   3.689   6.218   7.710 -1.0832  0.6427 -3.1480
    3MOL   H191  835   3.820   6.168   7.502  2.2760 -0.7259 -1.0207
    3MOL   H192  836   4.012   6.426   7.368 -1.2897 -0.5585  1.4036
    3MOL   H193  837   3.944   6.298   7.271 -0.8055 -1.8455  0.7588
    3MOL   C194  838   4.150   6.350   7.223 -0.5044  0.0429  0.2487
    3MOL   C195  839   4.266   6.431   7.283  0.8131  0.1212  0.1657
    3MOL   C196  840   4.392   6.370   7.306  0.7276  0.3693  0.3405
    3MOL  Cl197  841   4.431   6.203   7.268 -0.1664  0.0973 -0.1953
    3MOL   C198  842   4.499   6.449   7.351 -0.5950  0.5763  0.4581
    3MOL   C199  843   4.478   6.580   7.384  0.1825  0.0860  0.5350
    3MOL   C200  844   4.357   6.647   7.354 -0.2784  0.4285  0.1590
    3MOL   C201  845   4.251   6.567   7.311 -0.0745 -0.3596 -0.0008
    3MOL   C202  846   4.116   6.419   7.089 -0.3707 -0.0851  0.5850
    3MOL   H203  847   4.188   6.250   7.203  1.1044  0.3517  1.6246
    3MOL   H204  848   4.599   6.409   7.345 -1.2343 -0.9807 -0.1166
    3MOL   H205  849   4.567   6.628   7.421  1.0279 -1.5038  0.5895
    3MOL   H206  850   4.346   6.754   7.360  2.4978  0.6564  1.8916
    3MOL   H207  851   4.152   6.610   7.304 -0.5940 -1.6535 -0.7740
    3MOL   H208  852   4.207   6.443   7.035  0.1227 -1.0167  1.0042
    3MOL   H209  853   4.080   6.520   7.111  0.1602  0.1671  0.3074
    3MOL   C210  854   4.026   6.348   6.988  0.5110 -0.7589  0.6985
    3MOL   C211  855   4.069   6.201   6.971  0.7815 -0.0258 -0.0104
    3MOL   C212  856   3.993   6.097   7.031  0.7930 -0.5604  0.2508
    3MOL  Cl213  857   3.836   6.117   7.106  0.0472  0.1755  0.2411
    3MOL   C214  858   4.038   5.964   7.017  0.5144  0.1643 -0.1762
    3MOL   C215  859   4.157   5.938   6.944 -0.1291 -0.5568 -0.2137
    3MOL   C216  860   4.231   6.040   6.875 -0.2786  0.1476  0.0907
    3MOL   C217  861   4.188   6.175   6.890 -0.1990 -0.2754  0.0884
    3MOL   C218  862   3.998   6.425   6.859 -0.3179  0.1567 -0.1058
    3MOL   H219  863   3.926   6.341   7.033  1.2369  0.5114  2.5946
    3MOL   H220  864   3.987   5.874   7.047 -1.2166  1.0170 -0.4631
    3MOL   H221  865   4.201   5.839   6.944 -0.5472 -0.7674  1.5413
    3MOL   H222  866   4.315   6.008   6.815 -1.6951 -1.0229 -1.3566
    3MOL   H223  867   4.233   6.252   6.830  0.9463 -1.0531 -0.0721
    3MOL   H224  868   4.091   6.452   6.810 -0.6077  1.1474 -0.1223
    3MOL   H225  869   3.960   6.520   6.896 -0.0339 -0.1324  0.9473
    3MOL   C226  870   3.911   6.373   6.748  0.5390  0.1279 -0.5789
    3MOL   C227  871   3.988   6.269   6.671  0.5297  0.5402  0.0266
    3MOL   C228  872   3.946   6.129   6.674 -0.9644  0.1195 -0.6087
    3MOL  Cl229  873   3.808   6.073   6.749  0.2581  0.4472 -0.5409
    3MOL   C230  874   4.025   6.035   6.612 -0.6450  0.0461 -0.3073
    3MOL   C231  875   4.135   6.072   6.531  1.0493  0.0686  0.3686
    3MOL   C232  876   4.170   6.203   6.522 -0.4396  0.6184  1.1065
    3MOL   C233  877   4.099   6.295   6.590 -0.6780  0.7730  0.1795
    3MOL   C234  878   3.854   6.486   6.657  0.4830  0.1658 -0.1833
    3MOL   H235  879   3.831   6.327   6.806  0.0644  1.1330 -0.4191
    3MOL   H236  880   3.989   5.933   6.614 -3.9302  1.0906 -2.2809
    3MOL   H237  881   4.197   6.003   6.476  0.3375 -0.5804  0.3760
    3MOL   H238  882   4.247   6.233   6.452 -0.3329 -0.1649  0.8868
    3MOL   H239  883   4.123   6.398   6.568 -0.5475  1.6250  3.9834
    3MOL   H240  884   3.878   6.466   6.553  0.5804 -0.6114 -0.0158
    3MOL   H241  885   3.901   6.583   6.666 -0.9389  0.7004  2.0324
    3MOL   C242  886   3.704   6.505   6.678  0.3078 -0.1874 -0.6607
    3MOL   C243  887   3.672   6.561   6.820  0.8804  0.5202  0.2679
    3MOL   C244  888   3.681   6.694   6.857  0.0955  0.4449  0.5946
    3MOL  Cl245  889   3.709   6.820   6.744 -0.1449  0.1734 -0.1614
    3MOL   C246  890   3.659   6.733   6.988 -0.0651  0.1716  0.6824
    3MOL   C247  891   3.614   6.648   7.084  0.2178 -0.1860  0.2081
    3MOL   C248  892   3.602   6.512   7.051 -0.5645 -0.1079  0.2908
    3MOL   C249  893   3.639   6.470   6.925  0.5143  0.0245 -0.5520
    3MOL   C250  894   3.617   6.378   6.628  0.8262 -0.4732 -1.0116
    3MOL   H251  895   3.682   6.589   6.611 -1.0696  0.0106  0.0168
    3MOL   H252  896   3.685   6.833   7.018 -0.4723  0.1502  1.1224
    3MOL   H253  897   3.583   6.675   7.184  1.1664  0.5700  0.3086
    3MOL   H254  898   3.587   6.447   7.136 -3.8424 -0.6059 -0.5939
    3MOL   H255  899   3.636   6.363   6.909  2.0655 -0.0402 -0.4960
    3MOL   H256  900   3.643   6.288   6.685  0.0340 -0.4120 -0.5426
    3MOL   H257  901   3.651   6.354   6.527 -0.1367  3.8023 -2.4646
    3MOL   C258  902   3.465   6.403   6.620  0.3943 -0.3645 -0.2395
    3MOL   C259  903   3.398   6.282   6.560  0.2208 -0.4597 -0.7134
    3MOL   C260  904   3.349   6.177   6.632 -0.2395 -0.0303  0.3990
    3MOL  Cl261  905   3.346   6.188   6.810  0.3756  0.5008  0.2844
    3MOL   C262  906   3.290   6.066   6.571 -0.4277 -0.9159 -0.0286
    3MOL   C263  907   3.266   6.063   6.434 -1.0868  0.5838  0.2110
    3MOL   C264  908   3.315   6.174   6.361 -0.6756 -0.4147 -0.2569
    3MOL   C265  909   3.381   6.283   6.420  0.2627  0.5452 -0.4582
    3MOL   C266  910   3.434   6.539   6.552 -0.2904 -0.0334  0.6259
    3MOL   H267  911   3.432   6.415   6.724 -0.1981 -1.8883 -0.2490
    3MOL   H268  912   3.248   5.985   6.629 -0.8256 -0.4097  0.3966
    3MOL   H269  913   3.209   5.982   6.393 -0.1458  1.0820 -2.1364
    3MOL   H270  914   3.288   6.179   6.257 -2.8077 -1.7997  0.2078
    3MOL   H271  915   3.417   6.364   6.359  0.6384  0.0408 -0.9124
    3MOL   H272  916   3.493   6.559   6.463  0.5909  2.3186  1.6763
    3MOL   H273  917   3.477   6.619   6.613 -0.4231  1.1179 -0.7848
    3MOL   C274  918   3.284   6.585   6.523 -0.5141 -0.7116  0.7173
    3MOL   C275  919   3.283   6.729   6.459  0.0445 -0.2338 -0.4981
    3MOL   C276  920   3.319   6.846   6.531 -0.1425 -0.1580 -0.4000
    3MOL  Cl277  921   3.362   6.839   6.699  0.2342 -0.1985  0.1226
    3MOL   C278  922   3.324   6.972   6.465 -0.1057 -0.4239  0.1737
    3MOL   C279  923   3.294   6.982   6.330 -1.0642  0.0089 -0.1823
    3MOL   C280  924   3.260   6.867   6.257  0.1116  0.0887  0.1311
    3MOL   C281  925   3.247   6.744   6.322 -0.2050  0.1226  0.3873
    3MOL   C282  926   3.200   6.574   6.654  0.0984 -0.4948 -0.1813
    3MOL   H283  927   3.238   6.518   6.450  2.4036 -0.4088 -1.5102
    3MOL   H284  928   3.345   7.062   6.522 -1.9742 -0.1110  0.4086
    3MOL   H285  929   3.310   7.079   6.284  1.0926 -0.3835 -0.3328
    3MOL   H286  930   3.226   6.862   6.155 -0.0777 -0.4710  0.2263
    3MOL   H287  931   3.216   6.659   6.263 -0.1207  1.2041 -1.2641
    3MOL   H288  932   3.158   6.667   6.694  2.0087 -0.2016  1.2319
    3MOL   H289  933   3.269   6.553   6.736  0.3733  1.4485  0.1203
    3MOL   C290  934   3.087   6.461   6.647  0.0969  0.3248 -0.5394
    3MOL   C291  935   2.977   6.507   6.564  0.6126 -0.1415 -0.7170
    3MOL   C292  936   2.937   6.444   6.447  0.1387  0.5524  0.0974
    3MOL  Cl293  937   3.014   6.303   6.381 -0.2129 -0.3735 -0.3456
    3MOL   C294  938   2.824   6.499   6.376  0.5865 -0.3229  0.5109
    3MOL   C295  939   2.767   6.620   6.413  0.2825  0.3192 -0.3672
    3MOL   C296  940   2.817   6.697   6.519 -0.4894  0.4196 -0.3430
    3MOL   C297  941   2.917   6.636   6.595  0.4319 -0.0899  0.0508
    3MOL   C298  942   3.030   6.423   6.791 -0.2447 -0.6736  0.3164
    3MOL   H299  943   3.129   6.367   6.612  1.4223  1.3026 -1.6199
    3MOL   H300  944   2.788   6.456   6.284  1.6043  1.6284 -0.8334
    3MOL   H301  945   2.679   6.648   6.357  0.2030 -0.2666 -0.5356
    3MOL   H302  946   2.767   6.787   6.551 -0.0155  1.0971 -1.5134
    3MOL   H303  947   2.961   6.694   6.675 -1.4731 -1.8253  2.3942
    3MOL   H304  948   2.983   6.511   6.835 -0.5334 -0.5058 -0.3342
    3MOL   H305  949   3.114   6.396   6.855 -0.2660 -0.7756  0.2996
    3MOL   C306  950   2.923   6.309   6.798 -0.4375  1.1752  0.3438
    3MOL   C307  951   2.793   6.353   6.873 -0.0073  0.6863 -0.1992
    3MOL   C308  952   2.783   6.376   7.010 -0.0450  0.4095  1.0905
    3MOL  Cl309  953   2.911   6.325   7.118  0.0354  0.2446 -0.1034
    3MOL   C310  954   2.652   6.408   7.065  0.0078 -0.3953  0.3721
    3MOL   C311  955   2.539   6.432   6.984 -0.5992 -0.3021  0.2128
    3MOL   C312  956   2.553   6.410   6.842 -0.3381 -0.2335 -0.2576
    3MOL   C313  957   2.678   6.380   6.790  0.0579 -0.5714  0.0283
    3MOL   C314  958   2.979   6.172   6.838 -0.2959 -0.1840  0.0404
    3MOL   H315  959   2.889   6.289   6.696 -2.3999 -0.0474  1.1873
    3MOL   H316  960   2.648   6.400   7.173 -2.4595 -1.3461  0.2300
    3MOL   H317  961   2.443   6.454   7.030 -0.6763  1.2579 -0.6634
    3MOL   H318  962   2.474   6.448   6.779 -1.3488  1.0527  1.7123
    3MOL   H319  963   2.681   6.381   6.682  0.2074  1.1144  0.0327
    3MOL   H320  964   3.057   6.145   6.767  1.3811  3.6622  0.2747
    3MOL   H321  965   2.892   6.108   6.827 -1.3042  1.0104  0.8553
    3MOL   H322  966   3.024   6.154   6.936  1.0206  0.4605 -0.4391
    4MOL     C1  967   4.798   1.762   2.564  0.0669 -0.3693 -0.5621
    4MOL     C2  968   4.821   1.768   2.412  0.1654 -0.0314 -0.8139
    4MOL     C3  969   4.772   1.659   2.329  0.5310 -0.5348 -0.2298
    4MOL    Cl4  970   4.700   1.526   2.406 -0.1090 -0.1202  0.2390
    4MOL     C5  971   4.806   1.655   2.194 -1.2141 -0.1699 -0.0338
    4MOL     C6  972   4.886   1.761   2.142 -0.5906 -0.0064  0.1117
    4MOL     C7  973   4.920   1.877   2.220  0.7845  0.2159  0.4420
    4MOL     C8  974   4.881   1.880   2.351 -0.2312  0.0907  0.0594
    4MOL     C9  975   4.910   1.693   2.640 -0.0741 -0.1735  0.7189
    4MOL    H10  976   4.774   1.865   2.588 -0.5034 -1.1534  2.4493
    4MOL    H11  977   4.777   1.571   2.133 -1.3234 -0.4836  0.4453
    4MOL    H12  978   4.912   1.752   2.038  1.3409 -1.4438  0.6997
    4MOL    H13  979   4.978   1.956   2.174  0.9373  1.7328  3.1714
    4MOL    H14  980   4.904   1.974   2.400 -0.8033 -0.8998  2.2707
    4MOL    H15  981   4.998   1.754   2.619 -1.4988  1.1442 -1.6363
    4MOL    H16  982   4.911   1.597   2.590  1.1027 -0.1634  0.7105
    4MOL    H17  983   4.703   1.713   2.588 -0.3784  0.4485 -0.6522
    4MOL    C18  984   4.880   1.704   2.791 -0.5340  0.2265  0.3177
    4MOL    C19  985   4.861   1.853   2.837  0.0404 -0.4955  0.1254
    4MOL    C20  986   4.736   1.894   2.882  0.0170 -0.2333 -0.6298
    4MOL   Cl21  987   4.601   1.791   2.888 -0.4442 -0.0114  0.0565
    4MOL    C22  988   4.715   2.023   2.936  0.2976 -1.0436  0.0609
    4MOL    C23  989   4.819   2.118   2.932  0.2554 -0.4444 -0.1974
    4MOL    C24  990   4.943   2.081   2.878 -0.7570  0.3842  0.5909
    4MOL    C25  991   4.965   1.951   2.835  1.0169  0.0519 -0.6073
    4MOL    C26  992   4.992   1.644   2.886  0.2092 -0.6038  0.2116
    4MOL    H27  993   4.787   1.650   2.809 -0.5199 -0.4111 -1.3707
    4MOL    H28  994   4.620   2.049   2.979  1.1966  0.1125  1.4122
    4MOL    H29  995   4.782   2.204   2.986 -0.8598 -0.6857 -0.5676
    4MOL    H30  996   5.026   2.150   2.874  0.0938 -0.7056 -2.4557
    4MOL    H31  997   5.064   1.926   2.799  1.1741 -0.0413 -0.1189
    4MOL    H32  998   4.954   1.650   2.988  1.0044  1.6313  0.4066
    4MOL    H33  999   5.080   1.708   2.879 -0.0709 -0.3505 -1.1720
    4MOL    C34 1000   5.037   1.500   2.872  0.1956  0.3178  0.1150
    4MOL    C35 1001   4.923   1.398   2.880  0.6269 -0.2703  0.4355
    4MOL    C36 1002   4.930   1.273   2.809 -0.7927  0.9761 -0.1972
    4MOL   Cl37 1003   5.075   1.219   2.716 -0.2393  0.3353  0.0599
    4MOL    C38 1004   4.837   1.169   2.831  0.5816  0.0782  0.0914
    4MOL    C39 1005   4.727   1.195   2.919  0.2191 -0.0542  0.0291
    4MOL    C40 1006   4.712   1.323   2.985 -1.0715  0.8757 -0.3467
    4MOL    C41 1007   4.812   1.417   2.965 -0.3628 -0.6857  0.1370
    4MOL    C42 1008   5.135   1.465   2.985 -0.0423  0.1164 -0.0776
    4MOL    H43 1009   5.083   1.502   2.773 -1.2996  1.4459 -0.5737
    4MOL    H44 1010   4.861   1.073   2.789  0.6439  0.5243 -0.9173
    4MOL    H45 1011   4.654   1.121   2.946 -0.7798  1.5034  1.7560
    4MOL    H46 1012   4.633   1.338   3.056 -0.8304  0.7090 -0.0406
    4MOL    H47 1013   4.804   1.510   3.019 -0.4371  1.1610 -2.9436
    4MOL    H48 1014   5.153   1.358   2.977  0.7547  0.1676  0.9637
    4MOL    H49 1015   5.084   1.469   3.081  1.4831  1.7313  0.6973
    4MOL    C50 1016   5.277   1.528   2.983  0.3064  0.3539 -0.2211
    4MOL    C51 1017   5.327   1.529   2.841  0.5908  1.1545 -0.0357
    4MOL    C52 1018   5.373   1.649   2.779  0.3684 -0.1799 -0.1339
    4MOL   Cl53 1019   5.352   1.803   2.859 -0.0016 -0.0635 -0.4895
    4MOL    C54 1020   5.427   1.657   2.649  0.6202  0.0028  0.6396
    4MOL    C55 1021   5.465   1.536   2.584 -0.1276  0.0852  0.3798
    4MOL    C56 1022   5.435   1.416   2.646  0.2857  0.3179 -0.1700
    4MOL    C57 1023   5.359   1.412   2.770  0.4165  1.3011  0.5742
    4MOL    C58 1024   5.373   1.454   3.086  0.8470  0.2157 -0.1923
    4MOL    H59 1025   5.280   1.630   3.021  2.6210  1.2613 -2.7710
    4MOL    H60 1026   5.442   1.751   2.598  2.1286 -0.3679  0.3986
    4MOL    H61 1027   5.514   1.534   2.488 -3.4793 -1.2644 -1.3912
    4MOL    H62 1028   5.467   1.324   2.599 -2.6884 -0.3127 -1.0559
    4MOL    H63 1029   5.343   1.311   2.807  1.7182 -0.1555 -2.6134
    4MOL    H64 1030   5.372   1.348   3.059 -0.8354  0.3986 -0.9412
    4MOL    H65 1031   5.336   1.471   3.187 -0.9622 -0.7578 -0.6700
    4MOL    C66 1032   5.521   1.496   3.085 -0.1439  0.1109 -0.2742
    4MOL    C67 1033   5.622   1.387   3.140  0.5670  0.0577 -0.0645
    4MOL    C68 1034   5.713   1.323   3.056 -0.0731  0.3923 -0.4169
    4MOL   Cl69 1035   5.718   1.351   2.887 -0.1116 -0.1260 -0.4793
    4MOL    C70 1036   5.813   1.241   3.113 -0.4413 -0.3003 -0.1993
    4MOL    C71 1037   5.810   1.211   3.253  0.5958 -0.8602 -0.2519
    4MOL    C72 1038   5.717   1.278   3.333  0.5054  0.6248 -0.1729
    4MOL    C73 1039   5.619   1.360   3.279  0.6498  0.4846 -0.0501
    4MOL    C74 1040   5.549   1.626   3.154 -0.4777 -0.6814 -0.2673
    4MOL    H75 1041   5.540   1.517   2.979 -1.7340  1.6578 -0.2787
    4MOL    H76 1042   5.889   1.190   3.054 -0.5066 -0.7982  0.1408
    4MOL    H77 1043   5.889   1.150   3.294  0.5833  0.1135  1.2906
    4MOL    H78 1044   5.715   1.247   3.436 -0.1070 -0.9213 -0.6297
    4MOL    H79 1045   5.549   1.409   3.344  0.6977  1.4776 -0.7268
    4MOL    H80 1046   5.555   1.612   3.262  0.2215 -1.0501 -0.3464
    4MOL    H81 1047   5.470   1.700   3.140 -0.0389 -0.1940 -0.1978
    4MOL    C82 1048   5.687   1.684   3.113 -0.6199 -0.8363  0.1486
    4MOL    C83 1049   5.728   1.801   3.213 -0.5455 -0.2333 -0.2280
    4MOL    C84 1050   5.809   1.770   3.327 -0.2048 -0.0441 -0.5020
    4MOL   Cl85 1051   5.858   1.611   3.369 -0.0314  0.2547  0.0167
    4MOL    C86 1052   5.856   1.882   3.402  0.1012  0.1174  0.3025
    4MOL    C87 1053   5.832   2.016   3.370 -1.0621 -0.2347  0.3853
    4MOL    C88 1054   5.748   2.036   3.262  0.3182 -0.8391  0.0106
    4MOL    C89 1055   5.699   1.930   3.179  0.5219 -0.6552 -0.4009
    4MOL    C90 1056   5.702   1.725   2.964  0.2415 -0.3418  0.1427
    4MOL    H91 1057   5.765   1.610   3.129  1.2293  1.4192  1.9032
    4MOL    H92 1058   5.911   1.852   3.490  0.6856 -0.2450 -0.1748
    4MOL    H93 1059   5.879   2.090   3.432  1.9854  0.3434 -2.5006
    4MOL    H94 1060   5.732   2.136   3.224  1.8273  0.3348  2.3929
    4MOL    H95 1061   5.648   1.955   3.087 -0.2324  3.4014  1.0322
    4MOL    H96 1062   5.616   1.791   2.949 -0.8776 -1.2527  2.2944
    4MOL    H97 1063   5.690   1.642   2.894 -1.9399  0.0178  0.0534
    4MOL    C98 1064   5.829   1.798   2.919 -0.3758 -0.2727 -0.5709
    4MOL    C99 1065   5.794   1.900   2.810  0.2369 -0.2057  0.0064
    4MOL   C100 1066   5.828   2.035   2.823  0.8792 -0.4697 -0.1522
    4MOL  Cl101 1067   5.938   2.089   2.951  0.6312 -0.3327 -0.1673
    4MOL   C102 1068   5.786   2.127   2.719 -0.3122 -0.4478  0.4608
    4MOL   C103 1069   5.709   2.077   2.614 -0.3589  0.8786  0.9987
    4MOL   C104 1070   5.673   1.942   2.604  0.4274 -0.5367  0.1501
    4MOL   C105 1071   5.709   1.850   2.701 -0.4268 -0.3837  0.8388
    4MOL   C106 1072   5.937   1.707   2.861  0.1938  0.1445  0.2283
    4MOL   H107 1073   5.875   1.846   3.006  1.3403 -1.4701 -0.8081
    4MOL   H108 1074   5.820   2.230   2.719 -0.4885 -0.3813 -1.1896
    4MOL   H109 1075   5.670   2.154   2.548  0.8709  0.6678  0.0185
    4MOL   H110 1076   5.613   1.910   2.519  0.7195  1.5034 -0.8480
    4MOL   H111 1077   5.693   1.743   2.688 -0.8902  0.0380 -2.5215
    4MOL   H112 1078   5.921   1.692   2.755  0.0254 -2.5134  0.5943
    4MOL   H113 1079   5.926   1.605   2.898  2.3681 -1.4008 -3.1045
    4MOL   C114 1080   6.084   1.743   2.893 -0.3513  0.0922  0.5911
    4MOL   C115 1081   6.178   1.634   2.846 -0.2225  0.0140  0.6778
    4MOL   C116 1082   6.259   1.647   2.729 -0.7181 -0.1116  0.7290
    4MOL  Cl117 1083   6.256   1.804   2.650  0.0278 -0.2556 -0.0872
    4MOL   C118 1084   6.345   1.543   2.693 -0.1309  0.0176  0.2863
    4MOL   C119 1085   6.351   1.419   2.763  0.7050  0.2619  0.3570
    4MOL   C120 1086   6.263   1.406   2.872 -0.7678  0.2733  0.3190
    4MOL   C121 1087   6.174   1.509   2.911 -0.0583 -0.2430 -0.4184
    4MOL   C122 1088   6.107   1.768   3.043  0.2564  0.3334 -0.0891
    4MOL   H123 1089   6.107   1.840   2.849  2.0139  0.1514  1.9113
    4MOL   H124 1090   6.411   1.545   2.607 -0.4175 -1.7676 -0.0115
    4MOL   H125 1091   6.425   1.344   2.738 -0.8148 -1.9061  2.1853
    4MOL   H126 1092   6.252   1.314   2.926 -0.8522 -0.5786 -1.1237
    4MOL   H127 1093   6.100   1.486   2.987 -0.9026 -1.1051 -1.4721
    4MOL   H128 1094   6.057   1.690   3.099 -0.7847  0.5208 -0.7499
    4MOL   H129 1095   6.059   1.862   3.070 -2.6404 -0.4917 -2.0616
    4MOL   C130 1096   6.254   1.776   3.089 -0.3480 -0.2115 -0.2278
    4MOL   C131 1097   6.264   1.716   3.227 -0.0299  0.5548 -0.1155
    4MOL   C132 1098   6.348   1.604   3.255 -0.1023  0.4852 -0.3195
    4MOL  Cl133 1099   6.450   1.532   3.131  0.1246 -0.5781 -0.0657
    4MOL   C134 1100   6.363   1.559   3.391  0.4502  0.0889  0.1879
    4MOL   C135 1101   6.291   1.628   3.490  0.0626 -0.0927  0.3458
    4MOL   C136 1102   6.200   1.732   3.462 -0.3445 -0.1579  0.7070
    4MOL   C137 1103   6.182   1.765   3.331  0.1250  0.7075 -0.3581
    4MOL   C138 1104   6.300   1.921   3.093  0.1760  0.2612  0.0268
    4MOL   H139 1105   6.320   1.724   3.020 -1.0942 -2.1500  0.4862
    4MOL   H140 1106   6.426   1.479   3.428  0.6832  1.1062  2.0362
    4MOL   H141 1107   6.313   1.601   3.593 -0.9489  0.6650  0.7688
    4MOL   H142 1108   6.140   1.778   3.540 -0.2232 -0.4028  0.9472
    4MOL   H143 1109   6.107   1.840   3.309 -2.1795 -0.6945  2.4295
    4MOL   H144 1110   6.280   1.968   3.189  0.1371  4.4885 -1.9683
    4MOL   H145 1111   6.252   1.985   3.019  1.1041  0.4134 -0.4496
    4MOL   C146 1112   6.452   1.940   3.068  0.4805 -0.1569  0.3925
    4MOL   C147 1113   6.513   2.060   3.137 -0.1007  0.9505  0.7237
    4MOL   C148 1114   6.596   2.051   3.257  0.4623  0.1028 -0.6781
    4MOL  Cl149 1115   6.632   1.896   3.328 -0.1418 -0.0331 -0.2800
    4MOL   C150 1116   6.641   2.170   3.321  0.0103  0.8640 -0.5366
    4MOL   C151 1117   6.622   2.295   3.263 -0.6788  0.2502  0.2345
    4MOL   C152 1118   6.538   2.306   3.151  0.0649 -0.2874 -0.0677
    4MOL   C153 1119   6.492   2.194   3.083 -0.2453  0.3879  0.0972
    4MOL   C154 1120   6.497   1.931   2.915 -0.8618  1.1182  0.4641
    4MOL   H155 1121   6.492   1.849   3.113 -0.5493 -0.7466  0.1513
    4MOL   H156 1122   6.704   2.162   3.409 -0.5430 -1.4654 -0.3179
    4MOL   H157 1123   6.661   2.378   3.320 -0.4143 -0.5434  1.2282
    4MOL   H158 1124   6.495   2.400   3.119 -1.9826 -2.1389 -3.0210
    4MOL   H159 1125   6.427   2.207   2.997 -0.4925  0.2895  0.2688
    4MOL   H160 1126   6.476   2.025   2.863 -1.2147 -0.0144 -1.4749
    4MOL   H161 1127   6.444   1.861   2.850 -0.1341  3.2368 -2.5440
    4MOL   C162 1128   6.642   1.890   2.889  0.0588 -0.0767  0.6413
    4MOL   C163 1129   6.684   1.922   2.745  0.1247  0.5531 -0.0898
    4MOL   C164 1130   6.770   2.029   2.710 -0.0539 -0.5483 -0.0286
    4MOL  Cl165 1131   6.847   2.127   2.834  0.0757 -0.3825  0.1656
    4MOL   C166 1132   6.809   2.058   2.579 -0.1316 -0.2981  0.0898
    4MOL   C167 1133   6.751   1.983   2.472  0.4491 -0.7614  0.2665
    4MOL   C168 1134   6.659   1.881   2.497  0.1237  0.9867 -0.3902
    4MOL   C169 1135   6.626   1.850   2.635 -0.0084  0.5451  0.1238
    4MOL   C170 1136   6.670   1.746   2.932 -0.2381  0.0052 -0.2180
    4MOL   H171 1137   6.701   1.956   2.953  1.8805  0.6177 -1.7041
    4MOL   H172 1138   6.878   2.138   2.556 -0.9787  0.7794  1.2456
    4MOL   H173 1139   6.776   1.997   2.368 -0.4711 -1.9019 -0.1164
    4MOL   H174 1140   6.620   1.831   2.409  0.7765  0.3347 -0.3129
    4MOL   H175 1141   6.553   1.774   2.655 -1.0697  2.0371  2.0814
    4MOL   H176 1142   6.593   1.681   2.890  1.9005 -1.8793 -1.3077
    4MOL   H177 1143   6.652   1.722   3.037 -0.2110 -0.5745 -0.3492
    4MOL   C178 1144   6.805   1.684   2.890  0.4032 -0.4273 -0.1524
    4MOL   C179 1145   6.794   1.532   2.915 -0.0814  0.0718  0.6662
    4MOL   C180 1146   6.766   1.441   2.810 -0.5494  0.4662  0.0814
    4MOL  Cl181 1147   6.708   1.492   2.659 -0.3724  0.2191  0.4427
    4MOL   C182 1148   6.801   1.305   2.835 -0.7765 -0.0418  0.6946
    4MOL   C183 1149   6.842   1.254   2.958  0.6771 -0.6448 -0.0493
    4MOL   C184 1150   6.849   1.349   3.064  0.0854  0.7430  0.2395
    4MOL   C185 1151   6.838   1.480   3.039  0.1562 -0.1520 -0.7250
    4MOL   C186 1152   6.934   1.750   2.948  0.6579 -0.3379 -1.1712
    4MOL   H187 1153   6.811   1.684   2.781 -0.6317  1.9588 -0.2426
    4MOL   H188 1154   6.787   1.229   2.760 -0.8540  0.7475 -0.1025
    4MOL   H189 1155   6.847   1.147   2.971  1.6281 -0.4162  1.5758
    4MOL   H190 1156   6.875   1.318   3.165  0.6926  1.2346  0.2377
    4MOL   H191 1157   6.857   1.543   3.124  1.8374 -0.5684 -0.7718
    4MOL   H192 1158   6.933   1.762   3.057  0.3202  0.0172 -1.2112
    4MOL   H193 1159   6.921   1.853   2.915 -0.3978 -0.2458 -0.4949
    4MOL   C194 1160   7.063   1.679   2.904  0.2298 -0.2670 -0.1795
    4MOL   C195 1161   7.189   1.743   2.967  0.2840  0.4475  0.2919
    4MOL   C196 1162   7.261   1.683   3.071 -0.7897  0.7306 -0.4685
    4MOL  Cl197 1163   7.202   1.547   3.160 -0.5014 -0.2818  0.3172
    4MOL   C198 1164   7.386   1.743   3.112  0.0425  0.7334 -0.6617
    4MOL   C199 1165   7.442   1.847   3.046  0.3332  0.0905 -0.3280
    4MOL   C200 1166   7.366   1.912   2.945 -0.1619 -0.7391 -0.0241
    4MOL   C201 1167   7.236   1.862   2.915 -0.1530  0.3116 -0.3780
    4MOL   C202 1168   7.080   1.660   2.748  0.1345 -0.5432  0.8119
    4MOL   H203 1169   7.060   1.582   2.952 -0.3119  0.6375  1.6560
    4MOL   H204 1170   7.432   1.689   3.193  0.5211  0.6775 -0.9717
    4MOL   H205 1171   7.537   1.881   3.085  0.1526  0.0179  0.1800
    4MOL   H206 1172   7.411   1.995   2.892  2.5459 -1.2797  1.3437
    4MOL   H207 1173   7.183   1.920   2.841  2.0908  3.5706  0.4330
    4MOL   H208 1174   7.105   1.759   2.709  0.0903 -0.5231  0.8345
    4MOL   H209 1175   6.994   1.635   2.686  1.2897  0.5025 -1.3027
    4MOL   C210 1176   7.190   1.567   2.705  0.1320 -0.4306 -1.4423
    4MOL   C211 1177   7.235   1.611   2.570  0.6669 -0.5377  0.2978
    4MOL   C212 1178   7.358   1.685   2.556 -0.6288 -0.1298 -0.3394
    4MOL  Cl213 1179   7.447   1.726   2.691  0.0768 -0.1197 -0.4602
    4MOL   C214 1180   7.409   1.732   2.432 -0.3765  0.5234  0.1978
    4MOL   C215 1181   7.341   1.688   2.315  0.4259 -0.4175 -0.1024
    4MOL   C216 1182   7.214   1.631   2.329  0.4114 -0.4451 -0.1844
    4MOL   C217 1183   7.165   1.583   2.453  0.7851  0.3023 -0.4907
    4MOL   C218 1184   7.132   1.421   2.716 -0.2962 -0.0981  0.2892
    4MOL   H219 1185   7.268   1.571   2.781 -1.2072 -3.3562  0.1851
    4MOL   H220 1186   7.491   1.802   2.427 -0.8099  1.0521  0.4527
    4MOL   H221 1187   7.379   1.723   2.220  3.3882  0.4600  1.3517
    4MOL   H222 1188   7.157   1.639   2.238  1.6533  3.3112 -0.7049
    4MOL   H223 1189   7.065   1.544   2.462  1.3475 -1.0414  0.1246
    4MOL   H224 1190   7.041   1.411   2.656  0.0986 -0.5960 -0.2327
    4MOL   H225 1191   7.112   1.397   2.820  0.0460  0.3213  0.4550
    4MOL   C226 1192   7.221   1.305   2.659 -0.0574 -0.6904  0.5149
    4MOL   C227 1193   7.147   1.175   2.687  0.8691 -0.2807  0.9931
    4MOL   C228 1194   7.095   1.102   2.579  0.1283  0.0284 -0.2045
    4MOL  Cl229 1195   7.103   1.153   2.420  0.3057 -0.2518  0.4631
    4MOL   C230 1196   7.031   0.981   2.607 -0.0587 -0.9098  0.1571
    4MOL   C231 1197   7.022   0.929   2.742 -0.1976 -0.8570  0.5030
    4MOL   C232 1198   7.077   1.008   2.842  0.0969  0.0587 -0.5383
    4MOL   C233 1199   7.140   1.131   2.817 -0.4854  0.2702  0.0451
    4MOL   C234 1200   7.372   1.307   2.713 -0.2790 -0.2209  0.3156
    4MOL   H235 1201   7.227   1.334   2.554 -0.7614  0.1379  0.6970
    4MOL   H236 1202   6.990   0.923   2.526 -3.5877  1.4780  0.1311
    4MOL   H237 1203   6.991   0.832   2.777 -2.5603 -0.3604 -0.1596
    4MOL   H238 1204   7.064   0.976   2.945  0.0894 -0.6222 -0.7447
    4MOL   H239 1205   7.183   1.187   2.899 -0.4168  1.2368 -0.6434
    4MOL   H240 1206   7.363   1.315   2.821 -2.7291 -0.0121  0.1234
    4MOL   H241 1207   7.428   1.398   2.691 -1.6243  0.7230  0.6732
    4MOL   C242 1208   7.463   1.189   2.686  0.7753  0.1171 -0.7816
    4MOL   C243 1209   7.592   1.212   2.764  0.2589 -0.4111 -0.2162
    4MOL   C244 1210   7.619   1.155   2.891  0.4627 -0.7297 -0.6175
    4MOL  Cl245 1211   7.510   1.054   2.967  0.2016 -0.0601 -0.0666
    4MOL   C246 1212   7.745   1.162   2.950  0.5542 -0.6773  0.0277
    4MOL   C247 1213   7.846   1.241   2.889  0.0083  0.1877  0.2221
    4MOL   C248 1214   7.819   1.308   2.774  0.0622  0.0157  1.1190
    4MOL   C249 1215   7.693   1.299   2.710  0.1805  0.6483 -0.0495
    4MOL   C250 1216   7.490   1.150   2.543 -0.2300  0.3852  0.2875
    4MOL   H251 1217   7.423   1.102   2.737 -0.0807  0.9108 -0.0818
    4MOL   H252 1218   7.772   1.111   3.042 -0.1061 -0.2870  0.4398
    4MOL   H253 1219   7.947   1.243   2.926  0.6053  1.6144 -1.4380
    4MOL   H254 1220   7.898   1.364   2.727 -1.6530  0.7765 -0.9740
    4MOL   H255 1221   7.673   1.358   2.623  0.5257  1.1328  0.2015
    4MOL   H256 1222   7.550   1.228   2.496 -1.0541  0.5744 -0.4613
    4MOL   H257 1223   7.392   1.156   2.495  0.3911 -1.9377 -1.4077
    4MOL   C258 1224   7.557   1.003   2.521 -0.5380  0.0125 -0.0939
    4MOL   C259 1225   7.623   0.982   2.383 -0.1709 -0.4482 -0.1435
    4MOL   C260 1226   7.748   0.922   2.364  0.2311 -0.0893  0.2331
    4MOL  Cl261 1227   7.838   0.874   2.509  0.3444  0.1972  0.2564
    4MOL   C262 1228   7.798   0.896   2.237  0.3069 -0.9744  0.3152
    4MOL   C263 1229   7.725   0.936   2.122 -0.7416 -0.0012 -0.5216
    4MOL   C264 1230   7.599   0.995   2.146 -0.0240  0.1361 -0.3215
    4MOL   C265 1231   7.546   1.019   2.275 -0.0398 -0.6722  0.0347
    4MOL   C266 1232   7.431   0.913   2.543 -0.2536 -0.2510  0.5691
    4MOL   H267 1233   7.624   0.983   2.605 -0.5822  0.1891 -0.0177
    4MOL   H268 1234   7.898   0.856   2.228  0.1346 -0.9207 -2.0957
    4MOL   H269 1235   7.770   0.925   2.024  2.3670  1.7591  0.6288
    4MOL   H270 1236   7.546   1.029   2.058  2.4062  1.1261 -1.4524
    4MOL   H271 1237   7.452   1.071   2.282 -0.6483 -1.5722 -1.2791
    4MOL   H272 1238   7.374   0.913   2.450  0.8347  1.2503 -0.1148
    4MOL   H273 1239   7.359   0.941   2.621 -1.7148 -2.4283  0.0647
    4MOL   C274 1240   7.464   0.764   2.572 -0.1729 -0.2859  0.1755
    4MOL   C275 1241   7.345   0.667   2.552  0.7092  0.4995 -1.0772
    4MOL   C276 1242   7.353   0.560   2.458 -0.0257  0.2156 -0.4884
    4MOL  Cl277 1243   7.493   0.537   2.358 -0.3168 -0.0486  0.0451
    4MOL   C278 1244   7.233   0.485   2.436  1.0494  0.0078 -0.4067
    4MOL   C279 1245   7.125   0.495   2.517  0.0692 -0.3119  0.3037
    4MOL   C280 1246   7.120   0.592   2.615  0.0836  0.1104  0.1126
    4MOL   C281 1247   7.237   0.675   2.637  0.0999 -0.3925 -0.2969
    4MOL   C282 1248   7.525   0.750   2.713 -0.6672 -0.3727 -0.5786
    4MOL   H283 1249   7.546   0.740   2.504 -0.4556  0.4288 -0.4201
    4MOL   H284 1250   7.228   0.416   2.353 -2.1123 -0.6535  0.3021
    4MOL   H285 1251   7.038   0.437   2.490  0.1067  0.1166 -0.7515
    4MOL   H286 1252   7.038   0.601   2.685 -0.0440  0.3755 -0.0724
    4MOL   H287 1253   7.241   0.752   2.712  1.9044 -1.1658  0.4280
    4MOL   H288 1254   7.452   0.798   2.778 -1.9915 -1.0676 -1.5378
    4MOL   H289 1255   7.614   0.813   2.723 -2.2659  2.2896 -2.3449
    4MOL   C290 1256   7.543   0.609   2.768  0.6499 -0.9358  1.1209
    4MOL   C291 1257   7.559   0.620   2.916  0.1202 -0.1103  0.3721
    4MOL   C292 1258   7.460   0.579   3.006  0.0225 -0.3082  0.6293
    4MOL  Cl293 1259   7.314   0.499   2.963 -0.0795 -0.0506  0.4393
    4MOL   C294 1260   7.470   0.609   3.142  0.0214  0.4294 -0.2445
    4MOL   C295 1261   7.574   0.684   3.190 -0.6559 -0.0505  0.2232
    4MOL   C296 1262   7.676   0.728   3.103 -0.2350  0.1756 -0.6224
    4MOL   C297 1263   7.665   0.694   2.963 -0.5136  0.0919  1.0877
    4MOL   C298 1264   7.657   0.528   2.694  0.5066  0.0287  0.1220
    4MOL   H299 1265   7.450   0.560   2.740 -0.5119  0.6606  2.1326
    4MOL   H300 1266   7.383   0.590   3.204  0.2654  1.1310  0.3261
    4MOL   H301 1267   7.580   0.707   3.295  0.5818  1.0256 -0.0635
    4MOL   H302 1268   7.758   0.788   3.139  1.3275 -3.3766  2.0048
    4MOL   H303 1269   7.741   0.738   2.899  0.9208 -2.5272  0.9057
    4MOL   H304 1270   7.740   0.597   2.681  0.9425 -0.4663  0.2508
    4MOL   H305 1271   7.626   0.496   2.595  0.3930  0.1378  0.1230
    4MOL   C306 1272   7.714   0.410   2.780  0.3678  0.1417  0.1815
    4MOL   C307 1273   7.842   0.356   2.728  0.3498  0.9169  0.6775
    4MOL   C308 1274   7.854   0.295   2.597 -0.7675 -0.0273 -0.5949
    4MOL  Cl309 1275   7.722   0.293   2.480 -0.1670  0.0619 -0.2088
    4MOL   C310 1276   7.982   0.238   2.556 -0.6897 -0.7210  0.6110
    4MOL   C311 1277   8.094   0.244   2.644 -0.8589 -0.5867  0.5592
    4MOL   C312 1278   8.080   0.307   2.770  0.5570  0.4071 -0.2188
    4MOL   C313 1279   7.953   0.364   2.809 -0.3826  0.4058  0.5441
    4MOL   C314 1280   7.610   0.304   2.795 -0.0695  0.0809  0.7349
    4MOL   H315 1281   7.730   0.438   2.885 -1.2906  0.5176  0.3579
    4MOL   H316 1282   7.990   0.183   2.463  2.3406 -1.2396  1.1376
    4MOL   H317 1283   8.193   0.211   2.615  0.9322  3.4617  1.7213
    4MOL   H318 1284   8.166   0.306   2.836  0.4098  0.8943 -0.0164
    4MOL   H319 1285   7.928   0.405   2.905 -2.1493  0.3545  0.1273
    4MOL   H320 1286   7.661   0.226   2.852 -0.1702 -1.4116 -1.1652
    4MOL   H321 1287   7.575   0.271   2.698 -0.5960 -0.4920  1.1127
    4MOL   H322 1288   7.518   0.329   2.848 -0.6660  0.0450 -0.2785
    5MOL     C1 1289   0.997   7.982   7.104  0.1682  0.0942 -0.1133
    5MOL     C2 1290   1.091   8.033   7.206  0.9590 -0.7682  0.6458
    5MOL     C3 1291   1.165   7.952   7.297  0.0521 -0.4284 -0.3645
    5MOL    Cl4 1292   1.166   7.781   7.289  0.3190 -0.3044  0.2151
    5MOL     C5 1293   1.247   8.004   7.394  0.7786  0.4052 -0.3205
    5MOL     C6 1294   1.253   8.141   7.423  0.7338 -0.2070  0.0227
    5MOL     C7 1295   1.181   8.222   7.336 -0.0351 -0.1141 -0.2171
    5MOL     C8 1296   1.098   8.176   7.227 -0.3452  0.0026  0.2414
    5MOL     C9 1297   1.045   8.016   6.959  0.1679 -0.3254  0.4905
    5MOL    H10 1298   0.987   7.874   7.117  0.3969 -0.0535 -1.1645
    5MOL    H11 1299   1.295   7.931   7.457  0.7540 -1.6774 -2.6027
    5MOL    H12 1300   1.293   8.188   7.511 -1.0409  2.0449 -0.3313
    5MOL    H13 1301   1.184   8.329   7.352  1.3755 -0.1232 -0.3484
    5MOL    H14 1302   1.045   8.245   7.163 -0.3912 -0.5657 -0.3316
    5MOL    H15 1303   1.148   7.979   6.953  0.0828 -0.1797 -2.4814
    5MOL    H16 1304   1.054   8.124   6.950 -1.4019 -0.3389 -1.4757
    5MOL    H17 1305   0.896   8.014   7.129 -0.1827  0.7953 -2.3136
    5MOL    C18 1306   0.965   7.964   6.840  0.3121 -0.2649 -0.0125
    5MOL    C19 1307   0.923   7.815   6.862  0.2736  0.1691  0.1636
    5MOL    C20 1308   0.790   7.777   6.833 -0.3248  0.4082  0.0563
    5MOL   Cl21 1309   0.675   7.890   6.767 -0.0405 -0.1216  0.0270
    5MOL    C22 1310   0.752   7.646   6.844  0.3232  1.4907 -0.2245
    5MOL    C23 1311   0.843   7.543   6.879  0.2936 -0.8442 -0.0536
    5MOL    C24 1312   0.982   7.575   6.883  0.0280  0.0658  1.0805
    5MOL    C25 1313   1.020   7.710   6.873 -0.2407 -0.3024  0.4311
    5MOL    C26 1314   1.036   7.974   6.711 -0.5946  0.2938 -0.5522
    5MOL    H27 1315   0.879   8.030   6.830  1.6406  1.0240 -3.4481
    5MOL    H28 1316   0.649   7.617   6.833  0.3213  1.1963  0.5775
    5MOL    H29 1317   0.815   7.441   6.901  0.5829 -1.0307 -0.5382
    5MOL    H30 1318   1.059   7.500   6.897  0.3957 -0.0900 -1.5543
    5MOL    H31 1319   1.125   7.734   6.885  0.2961 -1.5201 -1.6116
    5MOL    H32 1320   0.987   7.912   6.636  0.5120 -0.5781 -0.5681
    5MOL    H33 1321   1.134   7.930   6.728 -0.8216  0.1241  0.3885
    5MOL    C34 1322   1.023   8.114   6.657  0.2344  0.6106 -0.0461
    5MOL    C35 1323   0.887   8.145   6.592 -0.3860  0.2515 -0.4697
    5MOL    C36 1324   0.792   8.232   6.655 -0.2994 -1.0173  0.3028
    5MOL   Cl37 1325   0.820   8.311   6.805  0.0412 -0.4574 -0.2195
    5MOL    C38 1326   0.673   8.266   6.590 -0.1046  0.0988 -0.1551
    5MOL    C39 1327   0.641   8.215   6.462 -0.1007  0.4898  0.3469
    5MOL    C40 1328   0.732   8.124   6.402 -0.5286  0.1366 -0.2183
    5MOL    C41 1329   0.851   8.087   6.466 -0.0634 -0.3303  0.7107
    5MOL    C42 1330   1.139   8.155   6.561  0.3440 -0.3068 -0.4620
    5MOL    H43 1331   1.044   8.183   6.739  1.9373  0.8758 -0.6669
    5MOL    H44 1332   0.607   8.334   6.642 -2.0131 -1.3414 -0.6058
    5MOL    H45 1333   0.543   8.241   6.426 -0.9520 -2.0202  0.7574
    5MOL    H46 1334   0.709   8.077   6.308  0.4661  0.2300 -0.5178
    5MOL    H47 1335   0.914   8.016   6.415 -1.2053 -2.1184  1.7319
    5MOL    H48 1336   1.090   8.245   6.524  0.3592 -0.0141  0.2228
    5MOL    H49 1337   1.141   8.087   6.475 -0.3690 -0.6321 -0.2288
    5MOL    C50 1338   1.284   8.165   6.622  0.6481  0.6275  0.6661
    5MOL    C51 1339   1.291   8.228   6.762 -0.2105  0.1713  0.3540
    5MOL    C52 1340   1.371   8.179   6.872  0.1594  0.3680 -0.6843
    5MOL   Cl53 1341   1.443   8.022   6.867 -0.0703 -0.3425 -0.0997
    5MOL    C54 1342   1.379   8.250   6.990 -0.3131  0.1662  0.5670
    5MOL    C55 1343   1.302   8.364   7.016  0.5903  0.2231 -0.2144
    5MOL    C56 1344   1.224   8.409   6.911  0.5527  0.6426  0.2433
    5MOL    C57 1345   1.218   8.348   6.784  0.5840  0.3770 -0.6523
    5MOL    C58 1346   1.389   8.227   6.527  0.2100 -0.0757  0.4990
    5MOL    H59 1347   1.307   8.060   6.637  0.2572  0.5523  0.7605
    5MOL    H60 1348   1.443   8.203   7.063 -1.3849 -1.2835  0.5960
    5MOL    H61 1349   1.312   8.409   7.114  0.5277  0.9199 -0.5299
    5MOL    H62 1350   1.169   0.081   6.920 -3.4051 -1.5386 -0.3766
    5MOL    H63 1351   1.147   8.388   6.712 -0.9986 -0.5205  0.3818
    5MOL    H64 1352   1.485   8.229   6.579 -0.0042 -1.4283  0.9794
    5MOL    H65 1353   1.355   8.329   6.514  0.3460 -0.0019  0.7111
    5MOL    C66 1354   1.408   8.149   6.396 -0.8531 -0.0043  0.1721
    5MOL    C67 1355   1.417   7.998   6.422 -0.4260  0.3061 -0.2931
    5MOL    C68 1356   1.327   7.903   6.367  0.8600 -0.5847 -0.3547
    5MOL   Cl69 1357   1.214   7.945   6.242  0.3175  0.2456  0.1394
    5MOL    C70 1358   1.319   7.773   6.409 -0.8380  0.9898 -0.1302
    5MOL    C71 1359   1.417   7.720   6.497  0.1669  0.4017  0.1388
    5MOL    C72 1360   1.517   7.808   6.542  0.2893  0.1970 -0.1410
    5MOL    C73 1361   1.516   7.941   6.504 -0.2906  0.0057 -0.3808
    5MOL    C74 1362   1.522   8.191   6.305 -0.9276  0.4072 -0.0729
    5MOL    H75 1363   1.316   8.150   6.338 -0.6417  0.3540 -0.1562
    5MOL    H76 1364   1.242   7.709   6.368 -0.2727  0.7386 -0.8206
    5MOL    H77 1365   1.409   7.616   6.525  0.5669 -0.0946 -1.5455
    5MOL    H78 1366   1.586   7.766   6.613 -1.2058  0.3428  1.4315
    5MOL    H79 1367   1.590   8.004   6.551  0.9279 -1.8486  0.2584
    5MOL    H80 1368   1.509   8.129   6.216 -1.2068  0.9772 -0.4355
    5MOL    H81 1369   1.619   8.165   6.346 -1.2440 -0.7650 -0.0512
    5MOL    C82 1370   1.514   8.335   6.246 -0.7981  0.6202 -0.1850
    5MOL    C83 1371   1.389   8.369   6.158  0.8842 -0.3517  0.8843
    5MOL    C84 1372   1.282   0.038   6.191 -0.2114  1.0149  0.4813
    5MOL   Cl85 1373   1.293   0.131   6.339 -0.0113 -0.1155 -0.0175
    5MOL    C86 1374   1.177   0.064   6.102  0.5329  0.0773  0.0357
    5MOL    C87 1375   1.175   8.415   5.980  0.2114 -0.5045 -0.0373
    5MOL    C88 1376   1.274   8.325   5.945  0.5445  0.1215  0.2168
    5MOL    C89 1377   1.374   8.292   6.040 -0.3336  0.2574  0.0868
    5MOL    C90 1378   1.648   8.377   6.183  0.1562 -0.0790 -0.6451
    5MOL    H91 1379   1.509   8.398   6.335  0.3009  0.1034  0.2467
    5MOL    H92 1380   1.096   0.130   6.128 -1.0794 -1.1176 -1.8020
    5MOL    H93 1381   1.110   0.029   5.901  2.5868  1.5300 -1.2048
    5MOL    H94 1382   1.277   8.274   5.849 -0.0626  0.4523  0.0258
    5MOL    H95 1383   1.450   8.221   6.011 -0.1216  0.0817  1.0584
    5MOL    H96 1384   1.675   8.298   6.114  0.0926  0.0497 -0.8170
    5MOL    H97 1385   1.730   8.372   6.254 -0.4482  0.4914  0.1046
    5MOL    C98 1386   1.656   0.095   6.106 -0.2904  0.0450 -0.0447
    5MOL    C99 1387   1.591   0.102   5.972 -0.2636 -0.3492  0.2836
    5MOL   C100 1388   1.509   0.211   5.926  0.2644  0.0316 -0.0337
    5MOL  Cl101 1389   1.457   0.340   6.034  0.1765  0.1474  0.2388
    5MOL   C102 1390   1.462   0.211   5.793  0.1781 -0.3324  0.1277
    5MOL   C103 1391   1.512   0.129   5.693  0.1697  0.4974  0.2197
    5MOL   C104 1392   1.598   0.033   5.736  0.1316 -0.4521  0.3847
    5MOL   C105 1393   1.635   0.009   5.868 -0.0348 -0.2512 -0.5186
    5MOL   C106 1394   1.798   0.136   6.093  0.1021  1.1209  0.4180
    5MOL   H107 1395   1.607   0.174   6.164 -1.0535 -0.0194 -0.6005
    5MOL   H108 1396   1.406   0.293   5.752  2.0362 -0.8371 -3.6410
    5MOL   H109 1397   1.493   0.144   5.588  0.8532  0.2675  0.0622
    5MOL   H110 1398   1.638   8.380   5.667  3.2553  0.6113  0.9549
    5MOL   H111 1399   1.693   8.343   5.896  0.3700  0.3091  0.4262
    5MOL   H112 1400   1.812   0.212   6.017  1.1613  0.9060  0.3896
    5MOL   H113 1401   1.850   0.045   6.064  0.0906  1.5076 -0.8501
    5MOL   C114 1402   1.856   0.211   6.216  0.8363 -0.2904 -0.2373
    5MOL   C115 1403   1.767   0.318   6.278  0.0375 -0.0357  0.3065
    5MOL   C116 1404   1.737   0.313   6.409  0.0999 -0.0646  0.1682
    5MOL  Cl117 1405   1.806   0.189   6.513  0.4847  0.1226  0.1061
    5MOL   C118 1406   1.657   0.414   6.468 -0.4102  0.4887 -0.4342
    5MOL   C119 1407   1.616   0.520   6.389  0.1354 -0.4152  0.9277
    5MOL   C120 1408   1.643   0.526   6.251 -0.5701 -0.3672 -0.0034
    5MOL   C121 1409   1.722   0.423   6.191 -0.2044  0.3688 -0.4413
    5MOL   C122 1410   2.004   0.269   6.188  0.5409 -0.2718 -0.0602
    5MOL   H123 1411   1.879   0.141   6.296 -1.8289  1.3494  2.0559
    5MOL   H124 1412   1.625   0.415   6.571 -1.4021 -0.6519 -0.7215
    5MOL   H125 1413   1.560   0.597   6.441  0.0564 -1.0360  1.7560
    5MOL   H126 1414   1.600   0.607   6.193 -0.1509  0.0073  0.2085
    5MOL   H127 1415   1.742   0.420   6.085 -2.2757 -0.1689 -0.8406
    5MOL   H128 1416   2.026   0.343   6.265 -0.3487 -1.2274  1.1266
    5MOL   H129 1417   1.997   0.327   6.096  0.2290  0.8146  0.6498
    5MOL   C130 1418   2.119   0.167   6.180 -0.8120  0.6530 -0.1567
    5MOL   C131 1419   2.150   0.123   6.325 -0.2326  0.4653  0.2472
    5MOL   C132 1420   2.108   8.418   6.367  0.4558  0.3370 -0.5442
    5MOL  Cl133 1421   2.031   8.312   6.259 -0.3939  0.1450 -0.0965
    5MOL   C134 1422   2.145   8.370   6.489  0.2277  0.1480 -0.1325
    5MOL   C135 1423   2.222   0.030   6.573  0.2822 -0.1141  0.0279
    5MOL   C136 1424   2.270   0.157   6.530  0.4632  0.3919  0.2075
    5MOL   C137 1425   2.233   0.205   6.402  0.1316  0.4143 -0.1166
    5MOL   C138 1426   2.252   0.209   6.102  0.1846 -0.5732  0.4388
    5MOL   H139 1427   2.069   0.088   6.125 -1.6586  0.6105  0.6674
    5MOL   H140 1428   2.105   8.274   6.517 -0.1878  0.3411 -0.0669
    5MOL   H141 1429   2.251   8.409   6.669 -2.5072 -0.4410  0.7664
    5MOL   H142 1430   2.348   0.208   6.585 -1.1521  1.7445  1.2636
    5MOL   H143 1431   2.268   0.305   6.378 -1.5489  0.7907 -1.0260
    5MOL   H144 1432   2.321   0.126   6.117  0.0070 -0.5861  1.1806
    5MOL   H145 1433   2.291   0.303   6.140 -0.5078  0.3006 -1.0008
    5MOL   C146 1434   2.254   0.227   5.944  0.1957  1.1886 -0.1729
    5MOL   C147 1435   2.156   0.130   5.874 -0.7645  0.0071 -0.1299
    5MOL   C148 1436   2.053   0.171   5.780  1.0025  0.5314 -0.1030
    5MOL  Cl149 1437   2.040   0.339   5.737 -0.1039 -0.4111  0.2839
    5MOL   C150 1438   1.956   0.082   5.734 -0.4666  0.1137 -0.3211
    5MOL   C151 1439   1.976   8.362   5.758  0.4417 -0.1615  0.0116
    5MOL   C152 1440   2.084   8.324   5.840  0.7716 -0.0381  0.4369
    5MOL   C153 1441   2.173   8.413   5.900  0.3141  0.3769  0.1301
    5MOL   C154 1442   2.395   0.218   5.888 -0.2147 -0.1026  0.4086
    5MOL   H155 1443   2.224   0.331   5.933 -2.8712  0.2822 -0.8705
    5MOL   H156 1444   1.866   0.107   5.680 -2.4893  0.1999  2.9539
    5MOL   H157 1445   1.910   8.288   5.715  0.7734  0.6981 -1.9970
    5MOL   H158 1446   2.090   8.218   5.860  0.6187 -0.4599 -1.6238
    5MOL   H159 1447   2.252   8.380   5.965  0.1702 -1.6415 -0.7019
    5MOL   H160 1448   2.434   0.121   5.920  0.9978  0.2968  0.1633
    5MOL   H161 1449   2.462   0.293   5.930  1.5053 -0.1471 -2.1506
    5MOL   C162 1450   2.393   0.234   5.738 -0.2197  0.6902  0.0977
    5MOL   C163 1451   2.506   0.151   5.678  0.7043 -0.3626 -0.4744
    5MOL   C164 1452   2.483   0.040   5.590 -0.3892  0.0231 -0.4932
    5MOL  Cl165 1453   2.331   8.406   5.531  0.1020 -0.2416 -0.1709
    5MOL   C166 1454   2.583   8.382   5.543  0.0367 -0.6202 -0.1659
    5MOL   C167 1455   2.713   8.410   5.583  0.0393  0.0998 -0.2582
    5MOL   C168 1456   2.743   0.088   5.680 -0.3896  0.2859  0.6036
    5MOL   C169 1457   2.635   0.174   5.718 -0.9255  0.1804 -0.7302
    5MOL   C170 1458   2.415   0.382   5.696 -0.7335  0.4401 -0.5223
    5MOL   H171 1459   2.298   0.206   5.692 -0.5114 -0.2648  1.2715
    5MOL   H172 1460   2.560   8.297   5.481  0.5442 -0.3716 -0.6933
    5MOL   H173 1461   2.789   8.337   5.558  0.7330  0.0702  1.8434
    5MOL   H174 1462   2.848   0.097   5.706 -0.3186 -0.2753  0.5321
    5MOL   H175 1463   2.651   0.249   5.794  0.0920  1.7254 -2.4444
    5MOL   H176 1464   2.522   0.392   5.675 -0.6109 -0.1753 -0.2250
    5MOL   H177 1465   2.411   0.451   5.780  1.9142  1.0664 -0.8436
    5MOL   C178 1466   2.338   0.455   5.586 -1.1432 -0.7829 -0.9815
    5MOL   C179 1467   2.327   0.374   5.444  0.0586 -0.7467  0.1824
    5MOL   C180 1468   2.212   0.367   5.366 -0.8786 -0.6565  0.1111
    5MOL  Cl181 1469   2.066   0.445   5.411 -0.5205 -0.2144  0.0113
    5MOL   C182 1470   2.217   0.292   5.250 -0.5587 -0.3057  0.1943
    5MOL   C183 1471   2.329   0.215   5.211 -0.3026 -0.8613  0.3137
    5MOL   C184 1472   2.450   0.231   5.282 -0.9260 -0.4365 -0.0248
    5MOL   C185 1473   2.445   0.305   5.400 -0.1870  0.5342  0.4948
    5MOL   C186 1474   2.387   0.600   5.551  0.8186  0.1299  0.1510
    5MOL   H187 1475   2.244   0.464   5.640 -0.3539  1.5832  0.0881
    5MOL   H188 1476   2.132   0.291   5.183 -1.0667 -0.7293  0.8438
    5MOL   H189 1477   2.336   0.156   5.122 -0.2387  3.0265 -2.4022
    5MOL   H190 1478   2.540   0.184   5.244  0.3121  0.8309  1.2575
    5MOL   H191 1479   2.531   0.293   5.465  0.8647 -1.0521 -1.1659
    5MOL   H192 1480   2.329   0.638   5.467 -3.1431 -1.4995  1.9872
    5MOL   H193 1481   2.491   0.596   5.519  0.6236  2.1433 -0.7908
    5MOL   C194 1482   2.367   0.701   5.667  0.1268 -0.4734  0.0689
    5MOL   C195 1483   2.222   0.712   5.716 -1.0894  0.0071  0.0622
    5MOL   C196 1484   2.180   0.682   5.853 -0.3018  0.1757  0.4078
    5MOL  Cl197 1485   2.289   0.663   5.985 -0.3611 -0.2090  0.1078
    5MOL   C198 1486   2.046   0.694   5.885  0.1049 -0.0539 -0.6808
    5MOL   C199 1487   1.945   0.735   5.792  0.3643  0.6413 -0.1865
    5MOL   C200 1488   1.989   0.766   5.666  0.0439  0.2234  0.7556
    5MOL   C201 1489   2.125   0.760   5.623  0.1875 -0.5916 -0.6590
    5MOL   C202 1490   2.434   0.836   5.631 -0.4935  0.0053 -0.5375
    5MOL   H203 1491   2.428   0.670   5.752 -2.7540 -2.8955  1.3483
    5MOL   H204 1492   2.015   0.668   5.985  1.0401  2.7853  0.4182
    5MOL   H205 1493   1.843   0.751   5.825  0.1776  0.6278 -0.7542
    5MOL   H206 1494   1.919   0.802   5.593 -1.5023 -2.7521  0.6950
    5MOL   H207 1495   2.160   0.791   5.526 -2.2887 -0.0089 -1.4066
    5MOL   H208 1496   2.410   0.895   5.719  3.2096 -0.9465  1.2097
    5MOL   H209 1497   2.378   0.870   5.544  0.4883 -0.1231 -1.2246
    5MOL   C210 1498   2.589   0.836   5.607 -0.3077 -0.5275  0.4396
    5MOL   C211 1499   2.660   0.805   5.736  0.0208  0.2247 -0.0982
    5MOL   C212 1500   2.748   0.690   5.741 -0.8532  0.8602  0.0523
    5MOL  Cl213 1501   2.775   0.578   5.609  0.5844  0.1122 -0.2022
    5MOL   C214 1502   2.826   0.675   5.855 -0.0693  0.6415  0.2348
    5MOL   C215 1503   2.803   0.748   5.972  0.7116  0.6285  0.1509
    5MOL   C216 1504   2.711   0.854   5.970  0.3533  0.1625 -0.6903
    5MOL   C217 1505   2.636   0.881   5.853  0.8505  0.4568  0.1783
    5MOL   C218 1506   2.641   0.967   5.531 -0.2128 -0.5821  0.3946
    5MOL   H219 1507   2.613   0.761   5.533  0.5826  0.3454 -0.1746
    5MOL   H220 1508   2.895   0.593   5.866  0.6456  1.4065  1.6057
    5MOL   H221 1509   2.869   0.734   6.057  0.4930  1.0459  0.3928
    5MOL   H222 1510   2.697   0.911   6.061 -0.1009  1.6464 -1.6759
    5MOL   H223 1511   2.576   0.971   5.849  0.4060  0.1548  0.0693
    5MOL   H224 1512   2.748   0.969   5.514 -0.6493  1.1941 -2.5146
    5MOL   H225 1513   2.605   1.055   5.584 -0.2876 -0.5994  0.3732
    5MOL   C226 1514   2.587   0.979   5.389 -0.2622  0.0347  0.1662
    5MOL   C227 1515   2.611   0.855   5.304  0.3875 -0.4163 -0.1752
    5MOL   C228 1516   2.503   0.786   5.246  0.6718 -0.8724 -0.5027
    5MOL  Cl229 1517   2.334   0.833   5.267  0.2725  0.3898 -0.1345
    5MOL   C230 1518   2.524   0.666   5.177  0.2339  0.3852  0.3420
    5MOL   C231 1519   2.650   0.608   5.174 -0.1248 -0.0808 -0.0049
    5MOL   C232 1520   2.757   0.682   5.221  0.4094  0.1978  0.8418
    5MOL   C233 1521   2.740   0.805   5.288 -0.2025 -0.1283 -0.4414
    5MOL   C234 1522   2.666   1.100   5.324 -0.3972  0.4712  0.3188
    5MOL   H235 1523   2.484   1.013   5.394  0.2099  1.6197 -0.5853
    5MOL   H236 1524   2.440   0.619   5.127  0.6386 -0.7245  0.7035
    5MOL   H237 1525   2.659   0.521   5.110 -1.1516  1.1279 -1.8604
    5MOL   H238 1526   2.860   0.648   5.221  0.5274  0.4547  3.0248
    5MOL   H239 1527   2.830   0.845   5.331 -0.8703 -2.0635  3.0043
    5MOL   H240 1528   2.773   1.085   5.339  0.3059  2.2092 -2.5311
    5MOL   H241 1529   2.658   1.182   5.396 -1.0014 -0.5021  1.3737
    5MOL   C242 1530   2.610   1.146   5.192  0.1566 -0.2607 -0.0496
    5MOL   C243 1531   2.705   1.123   5.073  0.9146 -0.7222 -0.5352
    5MOL   C244 1532   2.681   1.029   4.976 -0.4194  0.5094 -0.6747
    5MOL  Cl245 1533   2.533   0.938   4.964 -0.3120  0.2165 -0.0911
    5MOL   C246 1534   2.782   1.008   4.878  0.0024  0.1697  0.7086
    5MOL   C247 1535   2.898   1.086   4.859 -0.3321  0.0566 -0.2041
    5MOL   C248 1536   2.912   1.189   4.954 -0.2008 -0.0337  0.6703
    5MOL   C249 1537   2.822   1.206   5.065  0.4571 -0.0522 -0.4177
    5MOL   C250 1538   2.557   1.293   5.189 -0.2742 -0.1603 -0.4050
    5MOL   H251 1539   2.527   1.079   5.167  0.7707 -0.7309 -0.8418
    5MOL   H252 1540   2.766   0.920   4.819  1.1021 -0.3381  1.1456
    5MOL   H253 1541   2.962   1.069   4.774 -0.6337 -0.6202 -0.3021
    5MOL   H254 1542   3.006   1.240   4.950 -0.5157  0.4996 -0.1758
    5MOL   H255 1543   2.852   1.278   5.140  2.8656 -1.1637 -0.2516
    5MOL   H256 1544   2.510   1.295   5.091  0.5636 -0.8736 -0.8317
    5MOL   H257 1545   2.644   1.359   5.190  0.4333 -1.0514 -1.6378
    5MOL   C258 1546   2.451   1.336   5.295 -0.3398  0.2923  0.2207
    5MOL   C259 1547   2.334   1.242   5.309  0.8243 -0.2688 -0.2215
    5MOL   C260 1548   2.282   1.192   5.433  0.0863  0.1129  1.0072
    5MOL  Cl261 1549   2.356   1.224   5.587  0.0545 -0.6801 -0.4259
    5MOL   C262 1550   2.162   1.118   5.431  0.6693  0.1625  0.7800
    5MOL   C263 1551   2.086   1.113   5.309 -0.1107 -0.1898 -0.3592
    5MOL   C264 1552   2.141   1.156   5.188  0.0211  0.4610 -0.3012
    5MOL   C265 1553   2.262   1.221   5.188  0.3747 -0.0392  0.3165
    5MOL   C266 1554   2.413   1.483   5.270  0.3386  0.3871  0.4333
    5MOL   H267 1555   2.507   1.333   5.389 -1.0813 -0.7621  0.6452
    5MOL   H268 1556   2.122   1.072   5.520 -0.9670  0.2088  0.0878
    5MOL   H269 1557   1.993   1.058   5.304 -0.1037 -0.3590  1.1434
    5MOL   H270 1558   2.092   1.140   5.093 -0.5314  1.0646 -0.1190
    5MOL   H271 1559   2.279   1.277   5.098 -2.6030  0.9809  0.3505
    5MOL   H272 1560   2.327   1.519   5.326 -1.0383 -1.3973 -0.4737
    5MOL   H273 1561   2.358   1.492   5.177  0.1366 -0.5957  0.4456
    5MOL   C274 1562   2.515   1.594   5.291  0.0868 -0.1795  0.0695
    5MOL   C275 1563   2.546   1.625   5.436 -0.1665 -0.5342 -0.0429
    5MOL   C276 1564   2.673   1.602   5.494 -0.8193 -0.0266 -0.2312
    5MOL  Cl277 1565   2.802   1.535   5.403  0.2815 -0.5814 -0.0072
    5MOL   C278 1566   2.692   1.645   5.631 -0.0723 -0.1541 -0.5090
    5MOL   C279 1567   2.591   1.709   5.703 -0.1424  0.3459 -0.3666
    5MOL   C280 1568   2.464   1.715   5.644  0.5399 -0.5625 -0.0739
    5MOL   C281 1569   2.444   1.689   5.509 -0.8729 -0.0544  0.3954
    5MOL   C282 1570   2.500   1.723   5.209 -0.3467  0.6510 -0.4997
    5MOL   H283 1571   2.609   1.561   5.247  0.1067 -0.1051  0.0568
    5MOL   H284 1572   2.782   1.623   5.686 -0.3743  1.3064  0.5857
    5MOL   H285 1573   2.607   1.748   5.803  3.5169  2.0663 -1.5327
    5MOL   H286 1574   2.379   1.753   5.699  0.4464 -1.4664  0.4236
    5MOL   H287 1575   2.344   1.700   5.469 -0.5583  3.1936  0.3090
    5MOL   H288 1576   2.563   1.801   5.252 -1.8783  1.2344  0.7305
    5MOL   H289 1577   2.396   1.746   5.228  0.1248  1.1483  1.6069
    5MOL   C290 1578   2.535   1.712   5.053  0.3938 -0.3223 -1.0282
    5MOL   C291 1579   2.681   1.695   5.027 -0.2005 -0.5955 -0.0210
    5MOL   C292 1580   2.735   1.586   4.952 -0.2120  0.1722  0.0438
    5MOL  Cl293 1581   2.642   1.458   4.880  0.2205  0.3305  0.0532
    5MOL   C294 1582   2.872   1.567   4.937 -0.1028 -0.1086 -0.2312
    5MOL   C295 1583   2.965   1.653   5.002 -0.0926 -0.5731 -0.0099
    5MOL   C296 1584   2.922   1.762   5.079 -0.1612  0.1212 -0.0597
    5MOL   C297 1585   2.779   1.784   5.082  0.4410 -0.7238  0.0928
    5MOL   C298 1586   2.469   1.824   4.971  0.3728  0.3970 -0.1390
    5MOL   H299 1587   2.476   1.622   5.033 -2.5556  1.1392  0.7949
    5MOL   H300 1588   2.914   1.491   4.873  2.7323 -0.3273  1.8453
    5MOL   H301 1589   3.070   1.628   4.991 -0.3818 -2.0760  0.5760
    5MOL   H302 1590   2.990   1.830   5.127  0.4812 -1.4238  1.2865
    5MOL   H303 1591   2.742   1.872   5.133  1.4605  0.7244 -1.5864
    5MOL   H304 1592   2.506   1.815   4.869  1.2597  1.2464  0.0909
    5MOL   H305 1593   2.496   1.921   5.015 -0.7306  1.1142 -1.0347
    5MOL   C306 1594   2.309   1.815   4.967 -0.4477 -0.4754  0.7841
    5MOL   C307 1595   2.241   1.675   4.953 -0.5673  0.3966  0.2860
    5MOL   C308 1596   2.254   1.577   4.852  0.5943 -0.2173 -0.6940
    5MOL  Cl309 1597   2.347   1.615   4.714  0.1337 -0.0514  0.2577
    5MOL   C310 1598   2.190   1.451   4.863 -0.1978 -0.0540  0.0127
    5MOL   C311 1599   2.112   1.418   4.977  0.3492 -0.1608 -0.3043
    5MOL   C312 1600   2.103   1.512   5.077  0.2319  0.2501 -0.3797
    5MOL   C313 1601   2.159   1.639   5.064 -0.1646  0.1748 -0.3006
    5MOL   C314 1602   2.243   1.916   4.870  0.0595  0.2820  0.0433
    5MOL   H315 1603   2.285   1.853   5.067  1.5665  0.1137  1.0640
    5MOL   H316 1604   2.203   1.384   4.779  0.3784  0.1645 -0.0728
    5MOL   H317 1605   2.052   1.328   4.985 -2.6254  1.8093  0.2910
    5MOL   H318 1606   2.040   1.492   5.162 -2.2902 -0.4930 -2.3955
    5MOL   H319 1607   2.132   1.709   5.142  0.7981  0.2230  0.0013
    5MOL   H320 1608   2.289   2.015   4.875 -2.3950  1.5098 -0.8850
    5MOL   H321 1609   2.136   1.933   4.884  0.1839  0.6346  0.5914
    5MOL   H322 1610   2.260   1.880   4.769 -2.8560 -1.2146  0.0373
    6MOL     C1 1611   0.405   1.455   5.481  0.7888 -0.9274 -0.3311
    6MOL     C2 1612   0.434   1.497   5.626  0.1083 -0.2146  0.3088
    6MOL     C3 1613   0.333   1.546   5.708 -0.5446 -0.5691  0.2723
    6MOL    Cl4 1614   0.154   1.545   5.664 -0.0951 -0.0391  0.0093
    6MOL     C5 1615   0.365   1.600   5.836  0.1858  0.5341  0.7196
    6MOL     C6 1616   0.498   1.610   5.878 -0.0981  0.0268  0.3342
    6MOL     C7 1617   0.604   1.557   5.797  0.3459 -0.2137 -0.4726
    6MOL     C8 1618   0.570   1.502   5.674 -0.1577 -0.4042 -0.2911
    6MOL     C9 1619   0.492   1.540   5.379 -0.1080 -0.0508 -0.1788
    6MOL    H10 1620   0.423   1.348   5.468  0.7780 -0.9669 -0.0182
    6MOL    H11 1621   0.294   1.645   5.904  1.4152  0.3254  2.1797
    6MOL    H12 1622   0.519   1.651   5.976  0.3911  1.3885 -0.3237
    6MOL    H13 1623   0.704   1.562   5.836 -0.0776 -2.0785  0.8987
    6MOL    H14 1624   0.654   1.483   5.609 -1.6979 -0.7980 -2.1984
    6MOL    H15 1625   0.461   1.508   5.280  0.3648 -1.1059  0.0089
    6MOL    H16 1626   0.592   1.514   5.414 -0.1765 -1.5705 -1.0451
    6MOL    H17 1627   0.303   1.468   5.443  1.2237  1.1403 -0.8723
    6MOL    C18 1628   0.471   1.699   5.390 -0.2848 -0.1921 -0.3576
    6MOL    C19 1629   0.322   1.737   5.372 -0.0359 -0.2427 -0.0088
    6MOL    C20 1630   0.262   1.828   5.469  0.5526 -0.4560 -0.8289
    6MOL   Cl21 1631   0.344   1.911   5.594 -0.1906 -0.3341 -0.3761
    6MOL    C22 1632   0.126   1.861   5.453  0.1523  0.0677 -0.3047
    6MOL    C23 1633   0.054   1.802   5.349  0.4397  0.2531 -0.8641
    6MOL    C24 1634   0.113   1.727   5.251  0.5345 -0.0173  0.4035
    6MOL    C25 1635   0.248   1.687   5.264 -0.3955 -0.1233  0.4935
    6MOL    C26 1636   0.560   1.779   5.294 -0.5834 -0.0091 -0.1478
    6MOL    H27 1637   0.509   1.712   5.492  0.6541  0.6656 -0.8059
    6MOL    H28 1638   0.075   1.942   5.503  1.2648  2.2168 -2.5697
    6MOL    H29 1639   8.369   1.825   5.347 -0.3758 -3.0295  1.3095
    6MOL    H30 1640   0.047   1.691   5.173 -0.5274  0.7405  0.9457
    6MOL    H31 1641   0.298   1.631   5.186 -1.2385  1.0797 -0.9384
    6MOL    H32 1642   0.533   1.882   5.312 -1.5895 -0.1864 -0.6075
    6MOL    H33 1643   0.523   1.758   5.194 -2.7671  3.6026 -0.1516
    6MOL    C34 1644   0.710   1.756   5.314  0.6737 -1.3421 -0.0237
    6MOL    C35 1645   0.770   1.761   5.460  0.7785  0.4777  0.4382
    6MOL    C36 1646   0.855   1.654   5.503 -0.0650 -0.5914 -0.3394
    6MOL   Cl37 1647   0.887   1.509   5.411 -0.3072 -0.3091  0.1427
    6MOL    C38 1648   0.913   1.665   5.634 -0.1222  0.4521  0.8060
    6MOL    C39 1649   0.882   1.773   5.718 -0.2336  0.4478  0.1569
    6MOL    C40 1650   0.784   1.877   5.679  0.3398  0.0744  0.4056
    6MOL    C41 1651   0.739   1.872   5.546  0.2023  0.2803  0.2937
    6MOL    C42 1652   0.807   1.849   5.228  0.4834  0.2215 -0.6569
    6MOL    H43 1653   0.725   1.658   5.269 -2.7152 -0.2778 -3.7272
    6MOL    H44 1654   0.983   1.593   5.676 -0.5646 -0.4900 -0.0514
    6MOL    H45 1655   0.922   1.769   5.818 -0.5920 -0.0691  0.2825
    6MOL    H46 1656   0.757   1.958   5.745  2.8951  0.5731  0.8873
    6MOL    H47 1657   0.671   1.951   5.520 -0.5965 -0.5913 -0.3058
    6MOL    H48 1658   0.905   1.808   5.250 -0.0389 -0.5141  0.3446
    6MOL    H49 1659   0.802   1.952   5.264  1.8414 -0.3482  1.2036
    6MOL    C50 1660   0.783   1.849   5.074  0.8596 -0.4530  0.0409
    6MOL    C51 1661   0.762   1.712   5.007  0.0054 -0.1022  0.2458
    6MOL    C52 1662   0.639   1.674   4.948  0.1857 -0.2019  0.0154
    6MOL   Cl53 1663   0.517   1.800   4.929 -0.4468 -0.0171  0.1542
    6MOL    C54 1664   0.614   1.541   4.912 -0.9002 -0.2673 -0.7491
    6MOL    C55 1665   0.720   1.450   4.922 -0.4783 -0.4729 -0.3367
    6MOL    C56 1666   0.840   1.483   4.987  0.6329  0.1856  0.3035
    6MOL    C57 1667   0.862   1.616   5.026 -0.2762  0.8018  0.5028
    6MOL    C58 1668   0.883   1.936   4.995  0.2562 -0.9827  0.2694
    6MOL    H59 1669   0.690   1.905   5.060  0.1741 -1.1875  1.4732
    6MOL    H60 1670   0.514   1.519   4.877 -1.4096 -1.4330  1.3544
    6MOL    H61 1671   0.705   1.349   4.886  1.7041 -1.1147  0.4697
    6MOL    H62 1672   0.917   1.409   5.002 -0.2794 -0.5765  1.2171
    6MOL    H63 1673   0.953   1.641   5.078  0.4832 -0.6092 -0.1273
    6MOL    H64 1674   0.874   1.915   4.889  1.1010 -1.7266  0.3364
    6MOL    H65 1675   0.982   1.892   5.007 -0.1828 -3.0559 -3.1054
    6MOL    C66 1676   0.871   2.092   5.000  0.2515  0.4302 -0.1401
    6MOL    C67 1677   0.764   2.144   4.907 -0.6629 -0.5438 -0.3721
    6MOL    C68 1678   0.628   2.177   4.947  0.3373 -0.0533  0.4791
    6MOL   Cl69 1679   0.571   2.150   5.108  0.1322  0.0856  0.2535
    6MOL    C70 1680   0.528   2.220   4.854 -0.5422 -0.1406 -0.2920
    6MOL    C71 1681   0.569   2.242   4.719  0.1921 -0.4179  0.5373
    6MOL    C72 1682   0.701   2.208   4.678 -0.2508  0.3938  0.2871
    6MOL    C73 1683   0.794   2.152   4.767  0.8148  0.5456  0.4570
    6MOL    C74 1684   1.009   2.164   4.979  0.1368  0.1169  0.0946
    6MOL    H75 1685   0.837   2.114   5.101  0.4344  0.4209 -0.0747
    6MOL    H76 1686   0.427   2.245   4.885 -0.7533  0.0902 -1.1384
    6MOL    H77 1687   0.500   2.264   4.639 -0.5198 -0.1855  1.2119
    6MOL    H78 1688   0.725   2.209   4.572 -2.0718 -2.1059 -0.2076
    6MOL    H79 1689   0.893   2.118   4.739  0.6128 -0.3527  0.8089
    6MOL    H80 1690   0.994   2.267   4.949  0.8100 -0.0523 -0.8227
    6MOL    H81 1691   1.059   2.115   4.896 -0.0248 -1.9521  1.1643
    6MOL    C82 1692   1.104   2.169   5.110 -0.3443  0.6012 -0.6241
    6MOL    C83 1693   1.026   2.211   5.237  0.5945  0.5278  0.0482
    6MOL    C84 1694   1.015   2.127   5.352 -0.9420  0.0171  0.0174
    6MOL   Cl85 1695   1.086   1.973   5.356 -0.3342  0.1374  0.2301
    6MOL    C86 1696   0.953   2.179   5.468  0.3272  0.7803 -0.8869
    6MOL    C87 1697   0.885   2.303   5.471 -0.5385  0.0011  0.5783
    6MOL    C88 1698   0.894   2.384   5.358 -0.0023 -0.4659  0.0399
    6MOL    C89 1699   0.962   2.338   5.241  0.1803  0.2299 -0.1577
    6MOL    C90 1700   1.227   2.266   5.095 -0.2312 -0.8097 -0.3477
    6MOL    H91 1701   1.140   2.067   5.123 -0.5869  0.3815 -1.6093
    6MOL    H92 1702   0.930   2.116   5.553  0.1728  0.7147 -0.9779
    6MOL    H93 1703   0.837   2.325   5.565 -1.2493 -0.2370  0.2706
    6MOL    H94 1704   0.843   2.479   5.360  0.8566 -0.0047  0.4445
    6MOL    H95 1705   0.960   2.395   5.149 -1.6226 -1.7853 -1.4260
    6MOL    H96 1706   1.275   2.278   5.192  0.0768  1.9395 -0.8060
    6MOL    H97 1707   1.182   2.365   5.086  0.6567 -0.1119  2.5119
    6MOL    C98 1708   1.320   2.219   4.977 -0.3601 -0.2325 -0.9999
    6MOL    C99 1709   1.384   2.079   5.019 -1.0474 -0.5803 -0.1416
    6MOL   C100 1710   1.368   1.963   4.944 -0.6017 -0.4703  0.2155
    6MOL  Cl101 1711   1.281   1.960   4.800 -0.2046 -0.0852 -0.2292
    6MOL   C102 1712   1.451   1.851   4.969 -0.0431 -0.2477  0.5239
    6MOL   C103 1713   1.542   1.853   5.073  0.4231 -0.1996 -0.1628
    6MOL   C104 1714   1.547   1.966   5.153 -0.3358  0.3885 -0.2578
    6MOL   C105 1715   1.471   2.082   5.126 -0.1444  0.0349 -0.0896
    6MOL   C106 1716   1.427   2.317   4.933 -0.1773  0.5266 -0.0910
    6MOL   H107 1717   1.272   2.210   4.879 -1.5196  0.9560 -0.5501
    6MOL   H108 1718   1.435   1.764   4.909  2.2943  0.4434 -1.1684
    6MOL   H109 1719   1.603   1.765   5.086  0.0414 -0.5938 -0.9718
    6MOL   H110 1720   1.626   1.967   5.226 -0.7006  0.4840  0.1374
    6MOL   H111 1721   1.502   2.169   5.182 -1.1482  0.5718 -0.3484
    6MOL   H112 1722   1.474   2.266   4.849 -0.2202 -0.0341  0.2227
    6MOL   H113 1723   1.497   2.325   5.016 -0.8739  0.0305  0.5506
    6MOL   C114 1724   1.374   2.447   4.883  0.4456 -0.0731  0.4244
    6MOL   C115 1725   1.244   2.439   4.788  0.2724 -0.2194 -1.0172
    6MOL   C116 1726   1.136   2.522   4.808 -0.3758  0.0023  0.1120
    6MOL  Cl117 1727   1.118   2.634   4.936  0.1932 -0.0015 -0.2049
    6MOL   C118 1728   1.028   2.517   4.722  0.6798 -0.5741  0.3186
    6MOL   C119 1729   1.018   2.422   4.617 -0.3948  0.7687 -0.5263
    6MOL   C120 1730   1.126   2.339   4.590  1.0498  0.0165  0.2431
    6MOL   C121 1731   1.241   2.356   4.674  0.0578  0.0639  0.6480
    6MOL   C122 1732   1.478   2.531   4.815  0.4975  0.3562 -0.1262
    6MOL   H123 1733   1.343   2.502   4.972  0.6999  0.8844 -0.0690
    6MOL   H124 1734   0.946   2.585   4.738  1.3404  0.2459  0.2202
    6MOL   H125 1735   0.928   2.411   4.559  0.8483 -1.4227 -2.1220
    6MOL   H126 1736   1.120   2.268   4.510 -3.4210  0.5233 -0.0147
    6MOL   H127 1737   1.320   2.290   4.639  0.3861  0.9771 -0.3340
    6MOL   H128 1738   1.444   2.626   4.775 -0.0154 -0.3694 -1.4659
    6MOL   H129 1739   1.508   2.477   4.725 -0.4578  0.8885 -0.7694
    6MOL   C130 1740   1.600   2.572   4.901  0.1006  0.3426 -0.0464
    6MOL   C131 1741   1.563   2.678   5.010  0.7179 -0.1723 -0.0502
    6MOL   C132 1742   1.563   2.645   5.149 -0.1169 -0.0343  0.7204
    6MOL  Cl133 1743   1.592   2.485   5.209  0.1097 -0.4094  0.3498
    6MOL   C134 1744   1.553   2.745   5.241  0.4177  0.2547  0.0960
    6MOL   C135 1745   1.526   2.877   5.195  0.6681 -0.0592  0.1419
    6MOL   C136 1746   1.495   2.903   5.059 -0.2770  0.0401  0.1458
    6MOL   C137 1747   1.520   2.807   4.967 -0.0421  0.0052  0.3495
    6MOL   C138 1748   1.713   2.625   4.815 -0.3542 -0.3431 -0.4322
    6MOL   H139 1749   1.630   2.476   4.943  1.4145  0.8709  0.2447
    6MOL   H140 1750   1.562   2.724   5.347  1.4129  0.7458  0.1172
    6MOL   H141 1751   1.501   2.946   5.275 -0.9647 -1.0803  0.5243
    6MOL   H142 1752   1.462   2.998   5.021  0.5364 -0.0852 -0.8821
    6MOL   H143 1753   1.521   2.828   4.861 -0.0781  0.4630  0.4392
    6MOL   H144 1754   1.776   2.686   4.881 -0.5306  0.1357 -0.7060
    6MOL   H145 1755   1.664   2.695   4.747  0.2521 -0.6406 -1.1889
    6MOL   C146 1756   1.794   2.516   4.738 -0.3695  0.7351  0.2534
    6MOL   C147 1757   1.850   2.412   4.835  0.5570 -0.0424  0.3918
    6MOL   C148 1758   1.828   2.277   4.803 -0.5754 -0.7219 -0.1419
    6MOL  Cl149 1759   1.727   2.219   4.671  0.0531  0.2031 -0.0497
    6MOL   C150 1760   1.891   2.182   4.886  0.1830 -0.7625 -0.0844
    6MOL   C151 1761   1.975   2.219   4.993  0.1587 -0.0142 -1.4076
    6MOL   C152 1762   1.996   2.359   5.020 -0.0416 -0.1248  0.3839
    6MOL   C153 1763   1.938   2.453   4.936 -0.0840 -0.1186  0.7543
    6MOL   C154 1764   1.906   2.588   4.656 -0.4606  0.1388  0.0805
    6MOL   H155 1765   1.723   2.476   4.666  0.9382 -0.6623 -0.2689
    6MOL   H156 1766   1.878   2.077   4.865  2.2490 -0.7070 -1.7526
    6MOL   H157 1767   2.035   2.153   5.055 -1.2607  0.2424  0.2803
    6MOL   H158 1768   2.065   2.384   5.099  0.2998 -1.0169  0.3769
    6MOL   H159 1769   1.960   2.556   4.962 -0.5522 -0.2119  1.5575
    6MOL   H160 1770   1.973   2.635   4.728 -1.0107 -1.5242  1.7311
    6MOL   H161 1771   1.877   2.674   4.596  1.7293  0.8038 -0.0397
    6MOL   C162 1772   1.988   2.501   4.556  0.3742 -0.5182  0.5661
    6MOL   C163 1773   2.123   2.571   4.526 -0.9331  0.1711  0.8880
    6MOL   C164 1774   2.247   2.514   4.565 -0.4652 -0.5277 -0.8935
    6MOL  Cl165 1775   2.254   2.369   4.654  0.2501 -0.2450 -0.2675
    6MOL   C166 1776   2.365   2.582   4.537  0.8780  0.2913  0.7306
    6MOL   C167 1777   2.366   2.701   4.454  0.0503  0.3232 -0.1657
    6MOL   C168 1778   2.243   2.750   4.411  0.3073  0.1327 -0.4327
    6MOL   C169 1779   2.120   2.692   4.454  0.2456 -0.1953 -0.2345
    6MOL   C170 1780   1.902   2.450   4.435  0.0506  0.3994 -0.3310
    6MOL   H171 1781   2.004   2.412   4.617  0.6200  0.1112  1.4266
    6MOL   H172 1782   2.459   2.540   4.572 -0.4922 -1.6789  2.1639
    6MOL   H173 1783   2.460   2.748   4.430  0.6389 -1.4323 -1.3932
    6MOL   H174 1784   2.232   2.842   4.356 -0.9037  0.2884  0.0537
    6MOL   H175 1785   2.032   2.742   4.416 -1.5593 -1.8798  1.6265
    6MOL   H176 1786   1.864   2.541   4.390 -0.7778  1.1452  1.8168
    6MOL   H177 1787   1.806   2.412   4.472 -0.1820  1.7972  0.5289
    6MOL   C178 1788   1.954   2.334   4.343 -0.4121  0.0815  0.7596
    6MOL   C179 1789   1.847   2.304   4.236 -0.1100 -0.1941 -0.2005
    6MOL   C180 1790   1.852   2.365   4.107  0.0213 -0.8908 -0.3575
    6MOL  Cl181 1791   1.976   2.482   4.071 -0.2116  0.6776  0.1500
    6MOL   C182 1792   1.751   2.340   4.013  0.4812  0.1255 -0.0787
    6MOL   C183 1793   1.645   2.249   4.044  0.2247 -1.0653  0.3398
    6MOL   C184 1794   1.656   2.174   4.164  0.0248 -0.0588  0.0809
    6MOL   C185 1795   1.751   2.201   4.259 -0.3178  0.3900  0.2968
    6MOL   C186 1796   2.015   2.204   4.421  0.2145 -0.8652  0.5853
    6MOL   H187 1797   2.040   2.373   4.290 -2.1299  2.3959 -0.3988
    6MOL   H188 1798   1.744   2.397   3.921  1.0676  1.3199  0.6054
    6MOL   H189 1799   1.559   2.241   3.980  0.5914  2.6111 -0.7580
    6MOL   H190 1800   1.570   2.113   4.187  0.2320 -0.4417 -0.1567
    6MOL   H191 1801   1.744   2.137   4.345  0.3704 -1.4162 -0.9467
    6MOL   H192 1802   1.922   2.164   4.462  0.1921  0.2523  1.6388
    6MOL   H193 1803   2.070   2.232   4.510 -0.5067 -1.1994  1.1398
    6MOL   C194 1804   2.101   2.110   4.324  0.8793  0.0800  0.2710
    6MOL   C195 1805   2.084   1.962   4.374 -0.0507 -0.0315  0.0714
    6MOL   C196 1806   2.059   1.857   4.282 -0.2745 -0.3898 -0.5567
    6MOL  Cl197 1807   2.026   1.887   4.116  0.0093  0.3849 -0.6334
    6MOL   C198 1808   2.049   1.725   4.321 -0.4833 -0.1181  0.3608
    6MOL   C199 1809   2.061   1.695   4.456 -0.3970  0.5123  0.4980
    6MOL   C200 1810   2.077   1.799   4.550  0.0246 -0.2294 -0.3840
    6MOL   C201 1811   2.081   1.931   4.510 -0.6236 -0.3636  0.2028
    6MOL   C202 1812   2.255   2.130   4.343  0.2019  0.2538 -0.1374
    6MOL   H203 1813   2.074   2.136   4.222 -0.3231  0.0188  0.5667
    6MOL   H204 1814   2.027   1.646   4.251 -0.2458 -1.3741  1.6860
    6MOL   H205 1815   2.077   1.593   4.488 -0.8982 -0.9455 -3.5846
    6MOL   H206 1816   2.078   1.771   4.654  1.7077 -1.4723 -0.7076
    6MOL   H207 1817   2.080   2.009   4.584  1.2822 -0.5733  0.4652
    6MOL   H208 1818   2.309   2.042   4.308  0.1971 -0.3125  1.2309
    6MOL   H209 1819   2.292   2.115   4.445 -0.6313 -0.9011 -0.0013
    6MOL   C210 1820   2.318   2.258   4.277 -0.1146 -0.2087 -0.5361
    6MOL   C211 1821   2.309   2.269   4.122 -0.3787 -0.6276 -0.1652
    6MOL   C212 1822   2.314   2.394   4.057  0.1122  0.3293 -0.0769
    6MOL  Cl213 1823   2.318   2.547   4.146  0.2834  0.3035 -0.2632
    6MOL   C214 1824   2.327   2.398   3.920  0.0771  0.4919 -0.2973
    6MOL   C215 1825   2.320   2.280   3.844  0.2868 -0.2131  0.0617
    6MOL   C216 1826   2.313   2.158   3.908 -0.7716 -0.0778  0.7355
    6MOL   C217 1827   2.312   2.152   4.051  0.2534 -0.2120  0.1737
    6MOL   C218 1828   2.456   2.290   4.327 -0.1463 -0.4026 -0.2400
    6MOL   H219 1829   2.269   2.346   4.319 -0.1666 -0.1981 -0.6207
    6MOL   H220 1830   2.341   2.498   3.880 -2.1346  1.0400  0.2425
    6MOL   H221 1831   2.327   2.289   3.736 -1.5295  3.1848  0.1554
    6MOL   H222 1832   2.319   2.067   3.850  0.4711  1.4465 -1.5474
    6MOL   H223 1833   2.305   2.053   4.094  0.0696 -1.1019 -1.8302
    6MOL   H224 1834   2.445   2.313   4.433  2.3725  1.0115 -0.2330
    6MOL   H225 1835   2.497   2.381   4.282  0.0345  0.2205  1.1827
    6MOL   C226 1836   2.565   2.187   4.301 -0.3203  0.1768  0.8931
    6MOL   C227 1837   2.660   2.195   4.422 -0.2896  0.5123 -0.1752
    6MOL   C228 1838   2.666   2.100   4.525  0.5228 -0.0439  0.1603
    6MOL  Cl229 1839   2.556   1.971   4.551 -0.0644  0.1337  0.3281
    6MOL   C230 1840   2.755   2.120   4.632  0.4657  0.1523  0.5799
    6MOL   C231 1841   2.846   2.228   4.632  0.4034  0.2365 -0.1512
    6MOL   C232 1842   2.839   2.321   4.527  0.7178 -0.4374  0.5336
    6MOL   C233 1843   2.748   2.303   4.421  0.7183 -0.2256 -0.7330
    6MOL   C234 1844   2.639   2.195   4.162 -0.5816  0.4903 -0.5435
    6MOL   H235 1845   2.526   2.086   4.315  2.7868 -1.1742  0.2081
    6MOL   H236 1846   2.770   2.043   4.706  0.7726 -0.6638 -0.3319
    6MOL   H237 1847   2.925   2.231   4.705  0.3225 -0.3569 -0.0372
    6MOL   H238 1848   2.914   2.397   4.514 -0.1449  0.3567  0.1152
    6MOL   H239 1849   2.737   2.373   4.340  0.2919  0.8514  0.2408
    6MOL   H240 1850   2.708   2.279   4.153 -0.4640  0.5916  1.1644
    6MOL   H241 1851   2.559   2.215   4.090 -1.5420  1.2183  0.7090
    6MOL   C242 1852   2.719   2.067   4.124  0.4887  0.1302 -0.0863
    6MOL   C243 1853   2.838   2.027   4.205 -0.7109 -0.0115  0.1844
    6MOL   C244 1854   2.949   2.109   4.239 -0.3536 -0.1726 -0.3592
    6MOL  Cl245 1855   2.977   2.270   4.175  0.0504  0.1235  0.3795
    6MOL   C246 1856   3.048   2.062   4.324 -0.5622  0.6608  0.7010
    6MOL   C247 1857   3.051   1.928   4.366  0.2312 -0.1286  0.4333
    6MOL   C248 1858   2.947   1.842   4.327 -0.3901  0.3678  0.0180
    6MOL   C249 1859   2.848   1.893   4.250  0.8682 -0.4986 -0.0144
    6MOL   C250 1860   2.753   2.073   3.977 -0.4746 -0.4382  0.3599
    6MOL   H251 1861   2.644   1.988   4.135 -1.0865  1.7047  0.7345
    6MOL   H252 1862   3.135   2.122   4.344  0.4095 -0.7823  0.8907
    6MOL   H253 1863   3.138   1.879   4.405  0.1658 -1.8819 -1.5205
    6MOL   H254 1864   2.939   1.738   4.353  1.3518  0.1583 -0.2542
    6MOL   H255 1865   2.767   1.828   4.222  1.8230 -2.5497  1.8548
    6MOL   H256 1866   2.807   2.168   3.975  1.2550 -1.3982 -1.7727
    6MOL   H257 1867   2.662   2.097   3.921 -0.6201  1.5291  1.3789
    6MOL   C258 1868   2.833   1.962   3.909  0.0686 -0.2077  0.2352
    6MOL   C259 1869   2.908   2.006   3.781  0.2517 -0.1216  0.3353
    6MOL   C260 1870   3.049   2.010   3.761 -0.3505  0.0358  0.4663
    6MOL  Cl261 1871   3.161   1.953   3.887 -0.4616  0.1818 -0.1501
    6MOL   C262 1872   3.102   2.047   3.636  0.0422 -0.0314 -0.4497
    6MOL   C263 1873   3.020   2.100   3.535  0.0607  0.0753  0.0780
    6MOL   C264 1874   2.878   2.103   3.557 -0.1594 -0.3029  0.0898
    6MOL   C265 1875   2.823   2.049   3.674  0.1114 -0.2778  0.1695
    6MOL   C266 1876   2.749   1.839   3.880 -0.0245 -0.0232  0.1905
    6MOL   H267 1877   2.915   1.937   3.976 -0.1897  1.8319  1.3625
    6MOL   H268 1878   3.210   2.052   3.629  0.0992 -3.3578 -3.9258
    6MOL   H269 1879   3.054   2.138   3.440 -1.5348  2.5368  0.4378
    6MOL   H270 1880   2.813   2.122   3.473  0.9421  0.7038 -0.5499
    6MOL   H271 1881   2.717   2.040   3.692  0.5308 -2.1927  1.8036
    6MOL   H272 1882   2.705   1.839   3.780  0.4167 -1.1078 -0.0028
    6MOL   H273 1883   2.658   1.839   3.940  0.9653 -0.7291  1.6907
    6MOL   C274 1884   2.806   1.698   3.892 -0.1396  0.0723  0.1753
    6MOL   C275 1885   2.930   1.671   3.819 -1.2137  0.1435 -0.2020
    6MOL   C276 1886   3.044   1.624   3.891 -0.0456  0.2081 -0.7858
    6MOL  Cl277 1887   3.051   1.619   4.061  0.3042 -0.4131  0.0328
    6MOL   C278 1888   3.162   1.587   3.822  0.7125  0.0851  0.3400
    6MOL   C279 1889   3.163   1.595   3.680  0.1144  0.1544  0.1337
    6MOL   C280 1890   3.052   1.636   3.613 -1.0068 -0.0250  0.1540
    6MOL   C281 1891   2.932   1.677   3.680  0.2077 -0.3990 -0.3172
    6MOL   C282 1892   2.707   1.585   3.872  1.0211 -0.3832  0.7941
    6MOL   H283 1893   2.826   1.688   3.999 -0.4620 -0.9122  0.1503
    6MOL   H284 1894   3.254   1.562   3.873 -0.7060 -2.0593  1.9239
    6MOL   H285 1895   3.256   1.569   3.631  0.0188  0.5016 -0.2283
    6MOL   H286 1896   3.047   1.646   3.506 -4.8295 -2.2143  0.0422
    6MOL   H287 1897   2.844   1.715   3.631  0.3494 -0.3444 -0.5330
    6MOL   H288 1898   2.764   1.492   3.862  1.2223 -0.2054  0.2957
    6MOL   H289 1899   2.662   1.599   3.774  0.8545 -1.0636  0.7724
    6MOL   C290 1900   2.589   1.576   3.968  0.1722  0.0268  0.1105
    6MOL   C291 1901   2.622   1.587   4.119 -0.2650  0.4384 -0.7251
    6MOL   C292 1902   2.547   1.678   4.199 -0.6374  0.3032 -0.1458
    6MOL  Cl293 1903   2.412   1.775   4.146  0.0015 -0.0261  0.5008
    6MOL   C294 1904   2.576   1.689   4.337 -0.6698  0.2511  0.5621
    6MOL   C295 1905   2.671   1.607   4.400 -0.2721  0.7846  0.0106
    6MOL   C296 1906   2.742   1.513   4.325  1.2918 -0.0839 -0.1135
    6MOL   C297 1907   2.715   1.500   4.183  0.0809  0.3358  0.0888
    6MOL   C298 1908   2.488   1.456   3.941  0.5412 -0.9466  0.2251
    6MOL   H299 1909   2.527   1.662   3.939  0.5749 -0.0583 -1.0228
    6MOL   H300 1910   2.533   1.770   4.394  1.1556  0.8441  1.1145
    6MOL   H301 1911   2.675   1.598   4.507 -1.0384 -1.0877 -0.0922
    6MOL   H302 1912   2.811   1.445   4.373 -1.9586 -1.1700  3.2348
    6MOL   H303 1913   2.751   1.422   4.117 -1.8203  0.5367 -1.2175
    6MOL   H304 1914   2.408   1.453   4.015 -0.6308 -0.9983 -1.0305
    6MOL   H305 1915   2.541   1.362   3.958 -0.0764 -1.9032 -2.8314
    6MOL   C306 1916   2.430   1.456   3.794 -0.2537  0.0458  0.3219
    6MOL   C307 1917   2.352   1.579   3.761 -0.4233  0.0894 -0.2256
    6MOL   C308 1918   2.357   1.630   3.631  0.3743 -0.3806  1.2946
    6MOL  Cl309 1919   2.474   1.567   3.516  0.0669  0.0190 -0.4655
    6MOL   C310 1920   2.292   1.744   3.587 -0.2487 -0.3601  0.1350
    6MOL   C311 1921   2.225   1.815   3.684 -0.2556 -0.0401 -0.2228
    6MOL   C312 1922   2.220   1.770   3.816 -0.5455  0.1534 -0.4910
    6MOL   C313 1923   2.278   1.647   3.858 -0.5208 -0.2028  0.7313
    6MOL   C314 1924   2.344   1.332   3.793  0.2624 -0.2301  0.0150
    6MOL   H315 1925   2.507   1.436   3.720 -1.2518 -0.5954 -0.5565
    6MOL   H316 1926   2.284   1.783   3.486  0.7754  1.8495  0.8664
    6MOL   H317 1927   2.162   1.899   3.660  0.5472 -0.0636 -2.5642
    6MOL   H318 1928   2.166   1.817   3.897 -1.4665 -0.1076 -0.9504
    6MOL   H319 1929   2.267   1.619   3.961  0.0160 -0.9380  0.5876
    6MOL   H320 1930   2.405   1.242   3.795 -1.0305 -1.0965  2.7779
    6MOL   H321 1931   2.283   1.328   3.702 -0.8644 -0.1173  0.7564
    6MOL   H322 1932   2.288   1.317   3.885  0.7078 -2.5309 -0.0737
    7MOL     C1 1933   7.382   6.074   5.962  0.2435 -0.3647  0.0912
    7MOL     C2 1934   7.432   5.996   6.081  0.3345  0.2899 -0.8119
    7MOL     C3 1935   7.396   5.862   6.108  0.7803 -0.3633 -0.4312
    7MOL    Cl4 1936   7.292   5.765   6.010 -0.3302  0.0024  0.1965
    7MOL     C5 1937   7.442   5.802   6.226 -0.2927 -0.2908  0.4658
    7MOL     C6 1938   7.528   5.866   6.315  0.5985 -0.6988  0.0082
    7MOL     C7 1939   7.575   5.997   6.282 -0.8562  0.0885 -0.4160
    7MOL     C8 1940   7.521   6.063   6.167  0.5543 -0.3413  0.1493
    7MOL     C9 1941   7.420   6.013   5.826 -0.0278  0.6039  0.6374
    7MOL    H10 1942   7.274   6.085   5.964  0.0881 -1.3393 -1.7602
    7MOL    H11 1943   7.410   5.701   6.248 -1.2197 -0.7249 -2.6184
    7MOL    H12 1944   7.548   5.817   6.409 -0.0907 -1.1664 -0.0792
    7MOL    H13 1945   7.635   6.043   6.359  0.5491  0.2146 -1.5529
    7MOL    H14 1946   7.552   6.164   6.142 -1.2801  0.3670  0.6285
    7MOL    H15 1947   7.389   5.909   5.821 -2.6742  1.2748  2.0032
    7MOL    H16 1948   7.528   5.999   5.824  0.1341  1.7148  1.1320
    7MOL    H17 1949   7.419   6.176   5.966 -1.2336  0.1946 -0.3626
    7MOL    C18 1950   7.363   6.089   5.704  0.6307 -0.4393 -0.2545
    7MOL    C19 1951   7.374   6.001   5.583 -0.2664 -0.3653 -0.2560
    7MOL    C20 1952   7.264   5.918   5.552 -0.0665  0.2839  0.3127
    7MOL   Cl21 1953   7.135   5.886   5.661 -0.1166  0.2157 -0.3811
    7MOL    C22 1954   7.269   5.842   5.436  0.4213  0.2427 -0.4350
    7MOL    C23 1955   7.375   5.841   5.348 -0.3715  0.0794 -0.5237
    7MOL    C24 1956   7.484   5.925   5.376 -0.1074 -0.7199 -0.7215
    7MOL    C25 1957   7.479   6.007   5.491  0.2974  0.4131 -0.3658
    7MOL    C26 1958   7.411   6.239   5.678  0.0291  0.1555 -0.5141
    7MOL    H27 1959   7.258   6.108   5.723  0.6014 -1.4798  0.6228
    7MOL    H28 1960   7.179   5.783   5.429 -0.1494  0.8970  1.1522
    7MOL    H29 1961   7.370   5.774   5.264 -2.8496 -1.0904  0.5168
    7MOL    H30 1962   7.568   5.931   5.308  0.9191  0.9819  0.6544
    7MOL    H31 1963   7.563   6.074   5.501  1.5392 -1.2962  1.0614
    7MOL    H32 1964   7.514   6.228   5.642 -0.2348 -0.7911 -0.9988
    7MOL    H33 1965   7.413   6.299   5.768  0.5722 -2.0738  1.0064
    7MOL    C34 1966   7.332   6.311   5.561  0.5788  0.3630 -0.7488
    7MOL    C35 1967   7.402   6.314   5.421  0.6423 -0.2840 -0.3570
    7MOL    C36 1968   7.358   6.249   5.307 -0.4593 -0.2134 -0.3803
    7MOL   Cl37 1969   7.204   6.167   5.300  0.1846 -0.2495 -0.4321
    7MOL    C38 1970   7.425   6.264   5.180  0.1347  0.3952 -0.3232
    7MOL    C39 1971   7.540   6.342   5.174 -0.6839  0.2395  0.1786
    7MOL    C40 1972   7.595   6.403   5.295 -0.2753  0.5834  0.0312
    7MOL    C41 1973   7.521   6.390   5.415 -0.3753  0.1083 -0.3139
    7MOL    C42 1974   7.296   6.453   5.586  0.2581  0.2367 -0.6139
    7MOL    H43 1975   7.248   6.244   5.540  0.9812 -0.3393 -0.1535
    7MOL    H44 1976   7.390   6.221   5.088 -0.3886 -1.8677  0.8895
    7MOL    H45 1977   7.602   6.340   5.085  1.2937  0.7950  1.5212
    7MOL    H46 1978   7.688   6.459   5.297 -0.5030  1.0151 -1.2947
    7MOL    H47 1979   7.560   6.445   5.498 -1.4616  1.6681 -0.8079
    7MOL    H48 1980   7.276   6.503   5.491 -0.5432  1.2488  0.0729
    7MOL    H49 1981   7.391   6.495   5.621 -0.2226 -1.7441  3.3763
    7MOL    C50 1982   7.187   6.483   5.689 -0.5145  0.4396  0.7219
    7MOL    C51 1983   7.051   6.428   5.654 -0.2206  0.2322 -0.2151
    7MOL    C52 1984   6.995   6.323   5.735 -0.0332 -0.1249 -0.0931
    7MOL   Cl53 1985   7.067   6.270   5.883  0.1296  0.1376 -0.3278
    7MOL    C54 1986   6.877   6.261   5.700  0.1666  0.0153  0.3247
    7MOL    C55 1987   6.808   6.300   5.580 -0.1522 -0.1986 -0.5836
    7MOL    C56 1988   6.863   6.399   5.502  0.0706  0.4442  0.2309
    7MOL    C57 1989   6.989   6.456   5.533  0.6195 -0.5541 -0.2677
    7MOL    C58 1990   7.163   6.635   5.704  0.0283 -0.4794  0.1697
    7MOL    H59 1991   7.217   6.438   5.784 -1.0357 -1.0255  0.2098
    7MOL    H60 1992   6.839   6.179   5.758 -0.8313  0.0400 -0.2681
    7MOL    H61 1993   6.711   6.255   5.560  0.1542 -1.8458  1.3782
    7MOL    H62 1994   6.802   6.441   5.423  0.9830 -0.2418 -0.8532
    7MOL    H63 1995   7.026   6.542   5.479 -0.2931  1.4171  2.1556
    7MOL    H64 1996   7.064   6.646   5.749 -0.0081  1.3448 -0.3461
    7MOL    H65 1997   7.159   6.677   5.603  1.1770 -0.2940  0.1994
    7MOL    C66 1998   7.263   6.704   5.797  0.4103 -0.1744  0.2316
    7MOL    C67 1999   7.245   6.662   5.946 -0.0714 -0.5424  0.1601
    7MOL    C68 2000   7.329   6.571   6.010  0.0769 -0.7649  0.0364
    7MOL   Cl69 2001   7.465   6.495   5.943  0.0211  0.1946 -0.1062
    7MOL    C70 2002   7.312   6.542   6.149 -0.2360  1.0942  0.6051
    7MOL    C71 2003   7.197   6.584   6.222 -0.6706 -0.3842  0.3904
    7MOL    C72 2004   7.110   6.664   6.153  0.8074  0.5462 -0.3761
    7MOL    C73 2005   7.130   6.703   6.019  0.1421 -0.2182 -0.4521
    7MOL    C74 2006   7.273   6.850   5.798 -0.5779 -0.1381 -0.2728
    7MOL    H75 2007   7.363   6.671   5.771  0.7449  0.1607  1.0939
    7MOL    H76 2008   7.386   6.486   6.205 -1.5681 -0.4132  0.8880
    7MOL    H77 2009   7.202   6.577   6.329  1.3428 -1.5720  0.2475
    7MOL    H78 2010   7.027   6.697   6.215  0.8334 -2.1704  1.1957
    7MOL    H79 2011   7.058   6.775   5.982 -1.7361 -2.7817 -1.9845
    7MOL    H80 2012   7.329   6.873   5.888  2.4379 -0.7634 -1.9156
    7MOL    H81 2013   7.171   6.884   5.818 -1.9883 -1.3763 -4.6525
    7MOL    C82 2014   7.329   6.908   5.663 -0.6447  0.3682  0.0570
    7MOL    C83 2015   7.476   6.864   5.638 -0.0368 -0.0008 -0.4543
    7MOL    C84 2016   7.509   6.786   5.525 -0.0100 -0.5061  0.2146
    7MOL   Cl85 2017   7.394   6.741   5.403  0.0925  0.5057 -0.0538
    7MOL    C86 2018   7.644   6.740   5.519 -0.5304  0.5688 -0.1447
    7MOL    C87 2019   7.746   6.781   5.602 -0.5997 -0.8298  0.1289
    7MOL    C88 2020   7.711   6.858   5.715  0.3337  0.0369 -0.1022
    7MOL    C89 2021   7.575   6.894   5.730 -0.3924 -0.2264 -0.1129
    7MOL    C90 2022   7.307   7.058   5.656 -0.1068 -0.1270 -0.4067
    7MOL    H91 2023   7.270   6.862   5.582 -0.2527 -1.8340  0.9715
    7MOL    H92 2024   7.667   6.679   5.433 -1.4601  1.8944 -1.3610
    7MOL    H93 2025   7.849   6.751   5.586 -0.2576  0.0327  0.6805
    7MOL    H94 2026   7.776   6.891   5.796 -0.0589  0.6623 -0.0409
    7MOL    H95 2027   7.555   6.953   5.818  3.0509  1.5281 -0.4226
    7MOL    H96 2028   7.372   7.098   5.578 -0.3978 -1.2942 -1.2702
    7MOL    H97 2029   7.349   7.098   5.748 -0.5565 -0.7122  0.0586
    7MOL    C98 2030   7.160   7.097   5.629 -0.1926 -0.2687  0.3369
    7MOL    C99 2031   7.090   7.018   5.517 -0.6955  0.3209  0.2063
    7MOL   C100 2032   6.988   6.921   5.541  0.0651  0.4304 -0.4389
    7MOL  Cl101 2033   6.917   6.898   5.698  0.0944  0.1008 -0.1403
    7MOL   C102 2034   6.942   6.846   5.434  1.2845 -0.2132  0.2111
    7MOL   C103 2035   6.980   6.868   5.302  0.0647 -0.0085  0.4307
    7MOL   C104 2036   7.073   6.965   5.272 -0.7094 -0.2853  0.1589
    7MOL   C105 2037   7.136   7.036   5.379 -0.1420 -0.6451 -0.2243
    7MOL   C106 2038   7.140   7.251   5.604  0.2980  0.4123  0.3317
    7MOL   H107 2039   7.105   7.078   5.721 -0.4296 -0.7071  0.1085
    7MOL   H108 2040   6.862   6.773   5.441 -0.5389  1.6377 -0.9283
    7MOL   H109 2041   6.924   6.810   5.229  2.3245 -1.6733 -0.0488
    7MOL   H110 2042   7.100   6.984   5.169  0.8140  0.8640  0.7503
    7MOL   H111 2043   7.214   7.108   5.361  2.2410 -2.4490  2.4877
    7MOL   H112 2044   7.045   7.274   5.557  1.3674  2.4400 -0.8981
    7MOL   H113 2045   7.204   7.285   5.523  1.1576  1.5342  1.4680
    7MOL   C114 2046   7.155   7.341   5.729 -0.1103  0.0395 -0.0372
    7MOL   C115 2047   7.042   7.314   5.831 -0.5445  0.1896  0.4647
    7MOL   C116 2048   7.066   7.238   5.947  0.4108  0.1210  0.1373
    7MOL  Cl117 2049   7.228   7.206   6.002  0.5037  0.0835 -0.0063
    7MOL   C118 2050   6.954   7.188   6.019 -0.4494 -0.2247 -0.0686
    7MOL   C119 2051   6.825   7.228   5.992  0.8105  0.0520  0.8847
    7MOL   C120 2052   6.799   7.311   5.882 -0.0707 -0.1482 -0.7753
    7MOL   C121 2053   6.910   7.344   5.798 -0.4470 -0.2345 -0.7383
    7MOL   C122 2054   7.158   7.496   5.697 -0.8712  0.6599  0.2725
    7MOL   H123 2055   7.256   7.321   5.764 -0.3273  2.0319  1.8103
    7MOL   H124 2056   6.976   7.120   6.099  1.0445 -1.1287 -1.2024
    7MOL   H125 2057   6.741   7.193   6.049  1.6345 -0.5936  1.7302
    7MOL   H126 2058   6.697   7.329   5.852 -1.2905 -2.3842  1.8623
    7MOL   H127 2059   6.889   7.410   5.715  0.4111  0.8197 -0.1271
    7MOL   H128 2060   7.164   7.546   5.793  1.1459  3.3501 -1.1754
    7MOL   H129 2061   7.060   7.528   5.660 -0.2919  1.3028 -0.7412
    7MOL   C130 2062   7.280   7.543   5.617 -0.9233  0.5234 -0.2148
    7MOL   C131 2063   7.411   7.515   5.692  0.2488 -0.0254  0.1456
    7MOL   C132 2064   7.502   7.415   5.646  0.9931  0.1187 -0.5657
    7MOL  Cl133 2065   7.492   7.344   5.486 -0.2578 -0.3330 -0.3344
    7MOL   C134 2066   7.606   7.374   5.726 -0.1597  0.4103  0.0490
    7MOL   C135 2067   7.614   7.416   5.859 -0.4000 -0.2537 -0.3461
    7MOL   C136 2068   7.530   7.522   5.901 -0.3519 -0.7189  0.0674
    7MOL   C137 2069   7.427   7.570   5.821 -0.5902 -0.5412  0.0072
    7MOL   C138 2070   7.264   7.690   5.556  0.3293  0.5833  0.5052
    7MOL   H139 2071   7.283   7.491   5.521  1.2926 -0.3416  0.2935
    7MOL   H140 2072   7.670   7.300   5.680 -0.2890 -0.8961  1.9579
    7MOL   H141 2073   7.691   7.389   5.930  0.3452  0.2657 -0.9451
    7MOL   H142 2074   7.551   7.573   5.994  0.1659 -0.9102  0.0564
    7MOL   H143 2075   7.354   7.636   5.867 -0.4695 -1.4500  1.5713
    7MOL   H144 2076   7.359   7.722   5.514  0.1629 -1.8998 -1.8659
    7MOL   H145 2077   7.240   7.761   5.636 -2.6431 -0.8228  0.9320
    7MOL   C146 2078   7.145   7.716   5.456 -0.3249  0.4527 -0.1108
    7MOL   C147 2079   7.122   7.596   5.364  0.3091  0.0265 -0.0072
    7MOL   C148 2080   7.005   7.516   5.373  0.2039 -0.4371 -0.4753
    7MOL  Cl149 2081   6.868   7.554   5.474  0.2974  0.3567 -0.3483
    7MOL   C150 2082   7.001   7.389   5.302 -0.4834 -0.7851  0.2513
    7MOL   C151 2083   7.114   7.348   5.228 -0.1965  0.0085 -0.5801
    7MOL   C152 2084   7.226   7.430   5.214  0.1110 -0.4599 -0.1193
    7MOL   C153 2085   7.231   7.552   5.284 -0.3818 -0.1980 -0.0680
    7MOL   C154 2086   7.173   7.845   5.388  0.1021 -0.5986  0.0352
    7MOL   H155 2087   7.056   7.730   5.517 -0.6907  1.1507 -0.7952
    7MOL   H156 2088   6.912   7.328   5.301 -1.5100  0.6850 -0.3642
    7MOL   H157 2089   7.106   7.245   5.194 -3.8583  1.2840 -3.9919
    7MOL   H158 2090   7.311   7.399   5.154  0.0037 -2.1989  0.5994
    7MOL   H159 2091   7.320   7.612   5.272 -1.6399  1.3858 -1.6141
    7MOL   H160 2092   7.270   7.846   5.337  0.2302 -1.3752  0.2589
    7MOL   H161 2093   7.182   7.921   5.467  1.0711 -1.0676  0.3945
    7MOL   C162 2094   7.069   7.871   5.277 -0.7585 -0.1437  0.2057
    7MOL   C163 2095   7.097   7.806   5.146  0.8016 -0.8374  0.3643
    7MOL   C164 2096   7.010   7.717   5.079  0.2600 -0.1842 -0.7350
    7MOL  Cl165 2097   6.861   7.676   5.150  0.4016  0.4393  0.0309
    7MOL   C166 2098   7.037   7.670   4.950  0.8301 -0.6539  0.3924
    7MOL   C167 2099   7.159   7.705   4.891 -0.5002 -0.0415  0.1849
    7MOL   C168 2100   7.248   7.785   4.959  0.7119 -0.0687  0.0351
    7MOL   C169 2101   7.223   7.832   5.084 -0.2235 -0.4841 -0.0297
    7MOL   C170 2102   7.067   8.026   5.274  0.2219 -0.4887 -0.7600
    7MOL   H171 2103   6.976   7.828   5.313 -0.9058 -0.9123 -1.0477
    7MOL   H172 2104   6.965   7.602   4.907  1.8842 -1.0190 -0.8302
    7MOL   H173 2105   7.181   7.667   4.793  1.0816  1.4253 -0.0316
    7MOL   H174 2106   7.340   7.812   4.909  1.1245  1.3149  1.5141
    7MOL   H175 2107   7.289   7.907   5.125 -1.2166  0.7094 -0.5433
    7MOL   H176 2108   7.054   8.055   5.170 -0.2477  2.5179  0.0910
    7MOL   H177 2109   7.166   8.072   5.277 -0.5583  1.4109 -2.8427
    7MOL   C178 2110   6.968   8.095   5.370 -0.0049 -0.3763  0.5439
    7MOL   C179 2111   6.826   8.089   5.308  0.2207 -0.0585 -0.4408
    7MOL   C180 2112   6.737   7.994   5.359 -0.7514 -0.6558  0.3205
    7MOL  Cl181 2113   6.777   7.915   5.510  0.0758 -0.0945  0.0469
    7MOL   C182 2114   6.618   7.977   5.296  0.2134  0.1577 -0.4534
    7MOL   C183 2115   6.579   8.064   5.199 -0.1849 -0.0094  0.3718
    7MOL   C184 2116   6.667   8.162   5.149  0.1146 -0.0457  0.1955
    7MOL   C185 2117   6.792   8.176   5.203 -0.6967  0.4785  0.0401
    7MOL   C186 2118   7.008   8.242   5.400 -0.0585  0.3008 -0.2291
    7MOL   H187 2119   6.964   8.047   5.467 -2.0028 -1.2563  0.0600
    7MOL   H188 2120   6.550   7.904   5.338  0.1164  1.2449  1.3731
    7MOL   H189 2121   6.487   8.048   5.144 -0.1732  1.0899  0.0167
    7MOL   H190 2122   6.627   8.216   5.064  0.5965 -0.6129 -0.3892
    7MOL   H191 2123   6.871   8.241   5.167 -0.1109 -0.8773 -1.2087
    7MOL   H192 2124   6.934   8.321   5.386  0.2655  0.4110 -1.3279
    7MOL   H193 2125   7.082   8.270   5.325  1.0447 -2.6260 -0.2874
    7MOL   C194 2126   7.078   8.263   5.538 -0.2547  0.2934 -0.3590
    7MOL   C195 2127   6.980   8.284   5.654  0.4667  0.6904  0.3399
    7MOL   C196 2128   6.966   8.192   5.756  0.1252 -0.7076 -0.1449
    7MOL  Cl197 2129   7.080   8.062   5.777 -0.0878 -0.1251  0.8629
    7MOL   C198 2130   6.862   8.208   5.847  0.5028  0.5662 -0.3565
    7MOL   C199 2131   6.776   8.317   5.853 -0.0491  0.9329 -0.5883
    7MOL   C200 2132   6.783   8.405   5.748  0.1214  0.1122  0.9512
    7MOL   C201 2133   6.886   8.392   5.647 -0.1436 -0.1015  0.4846
    7MOL   C202 2134   7.184   8.373   5.531  0.0518  0.0945  0.4013
    7MOL   H203 2135   7.136   8.174   5.562 -1.8702 -0.8605 -0.6396
    7MOL   H204 2136   6.843   8.138   5.928  0.6581  0.0662 -0.7486
    7MOL   H205 2137   6.705   8.332   5.933  2.2441 -0.7236  1.8252
    7MOL   H206 2138   6.724   0.073   5.730 -0.9695 -0.9835 -1.0594
    7MOL   H207 2139   6.890   0.047   5.570 -0.4079  0.7649  1.3124
    7MOL   H208 2140   7.192   0.001   5.629 -1.2246 -2.3536  1.7642
    7MOL   H209 2141   7.139   0.034   5.475  0.4938  1.7484  2.3812
    7MOL   C210 2142   7.322   8.333   5.471 -0.6543  0.7206  0.4339
    7MOL   C211 2143   7.399   8.229   5.549  0.2622  0.2933 -0.1404
    7MOL   C212 2144   7.451   8.108   5.494  0.5464  0.5352  0.4318
    7MOL  Cl213 2145   7.428   8.068   5.326  0.2486  0.2597 -0.0268
    7MOL   C214 2146   7.511   8.013   5.580 -0.0615 -0.3953  1.0810
    7MOL   C215 2147   7.542   8.043   5.714  0.1757  0.0511  0.5657
    7MOL   C216 2148   7.504   8.165   5.766  0.3513  0.3411  0.3187
    7MOL   C217 2149   7.429   8.256   5.687  0.6628 -0.5455  0.2541
    7MOL   C218 2150   7.409   0.033   5.431 -0.4290 -0.0860  0.0095
    7MOL   H219 2151   7.299   8.286   5.375  0.2984  1.2756 -0.0728
    7MOL   H220 2152   7.542   7.916   5.545  0.1520 -0.9057  2.6510
    7MOL   H221 2153   7.603   7.973   5.770  0.7488 -0.3797 -0.5816
    7MOL   H222 2154   7.514   8.192   5.871 -0.6970  0.6931  0.3420
    7MOL   H223 2155   7.402   8.350   5.733 -0.6725 -1.5464  1.5462
    7MOL   H224 2156   7.509   8.410   5.426  0.0101  0.9041  0.1662
    7MOL   H225 2157   7.398   0.103   5.514  2.2698  1.4743 -0.9106
    7MOL   C226 2158   7.377   0.104   5.296 -0.3237 -0.6381 -0.3822
    7MOL   C227 2159   7.362   0.020   5.167  0.5147  0.1389 -0.4110
    7MOL   C228 2160   7.245   0.009   5.093 -0.2248  0.1749  0.0276
    7MOL  Cl229 2161   7.104   0.089   5.156 -0.1347  0.2494 -0.2892
    7MOL   C230 2162   7.237   8.346   4.974  0.2931  0.0726 -0.5626
    7MOL   C231 2163   7.348   8.275   4.937  0.3973  0.0290  0.0525
    7MOL   C232 2164   7.465   8.287   5.012  0.5383 -0.3659 -0.0385
    7MOL   C233 2165   7.471   8.372   5.127 -0.0562  0.1960 -0.3541
    7MOL   C234 2166   7.493   0.204   5.260 -0.3665  0.1490  0.3378
    7MOL   H235 2167   7.292   0.170   5.312 -0.1520  0.0111 -2.0627
    7MOL   H236 2168   7.140   8.349   4.928  0.0960  0.4090 -0.1273
    7MOL   H237 2169   7.338   8.209   4.852  0.4773 -0.7194  0.6222
    7MOL   H238 2170   7.550   8.222   4.993  3.2871  2.5953  1.5487
    7MOL   H239 2171   7.564   8.376   5.182 -0.6282 -3.4749  0.9955
    7MOL   H240 2172   7.466   0.245   5.163 -1.3425 -0.7976  0.1981
    7MOL   H241 2173   7.591   0.160   5.243 -0.5608  0.3292 -1.3114
    7MOL   C242 2174   7.512   0.324   5.361 -0.3226  0.6004  0.0199
    7MOL   C243 2175   7.377   0.408   5.354 -0.2101 -0.0973  1.0680
    7MOL   C244 2176   7.290   0.427   5.465 -0.3323 -0.3920 -0.8640
    7MOL  Cl245 2177   7.345   0.381   5.624 -0.1657 -0.0946  0.3155
    7MOL   C246 2178   7.166   0.491   5.444 -0.2151 -0.5737 -0.7158
    7MOL   C247 2179   7.134   0.543   5.313  0.7683 -0.3254  0.0210
    7MOL   C248 2180   7.222   0.528   5.208 -0.8336 -0.0843  0.5705
    7MOL   C249 2181   7.348   0.460   5.227 -0.2266  0.1029 -0.2952
    7MOL   C250 2182   7.635   0.414   5.339  0.7019 -0.5369  0.3233
    7MOL   H251 2183   7.519   0.282   5.461 -1.5376 -0.9424 -0.5254
    7MOL   H252 2184   7.082   0.487   5.512 -0.9813 -2.3197 -1.7014
    7MOL   H253 2185   7.034   0.584   5.306  0.3094 -0.9457  2.6410
    7MOL   H254 2186   7.190   0.565   5.112  3.8108 -1.9061 -1.8896
    7MOL   H255 2187   7.417   0.459   5.144 -0.7780 -1.7839 -0.7726
    7MOL   H256 2188   7.630   0.500   5.406  3.5667  0.8988 -1.1934
    7MOL   H257 2189   7.623   0.461   5.242 -0.7459  0.4095  0.9498
    7MOL   C258 2190   7.781   0.353   5.350  0.0634  0.3526  0.0164
    7MOL   C259 2191   7.804   0.279   5.484 -0.7744  0.3849  0.8387
    7MOL   C260 2192   7.800   0.135   5.481 -0.1613  0.7130 -0.1159
    7MOL  Cl261 2193   7.782   0.036   5.347  0.0233 -0.3288 -0.0063
    7MOL   C262 2194   7.804   0.070   5.601  0.2530  0.1268 -0.1367
    7MOL   C263 2195   7.828   0.133   5.723 -0.0336  0.4005  0.6315
    7MOL   C264 2196   7.836   0.272   5.723 -0.2456  0.2939  0.5838
    7MOL   C265 2197   7.817   0.342   5.604  0.2265 -0.1979 -0.6486
    7MOL   C266 2198   7.900   0.439   5.316  0.1720 -0.0805  0.0366
    7MOL   H267 2199   7.786   0.268   5.282 -0.6846 -2.2471  3.0738
    7MOL   H268 2200   7.808   8.383   5.610  0.3375  0.0553 -1.0086
    7MOL   H269 2201   7.842   0.070   5.809 -1.6685 -2.0027 -0.8026
    7MOL   H270 2202   7.868   0.327   5.810  1.6041  0.2234 -0.0363
    7MOL   H271 2203   7.812   0.450   5.602  0.7590 -0.1710 -0.6484
    7MOL   H272 2204   7.892   0.523   5.386 -0.9987  0.2295 -0.4497
    7MOL   H273 2205   7.883   0.492   5.222  0.1932  2.2192  1.2744
    7MOL   C274 2206   8.046   0.392   5.344  0.9129  0.0260 -0.3577
    7MOL   C275 2207   8.137   0.510   5.343 -0.4858 -0.6332  0.1362
    7MOL   C276 2208   8.212   0.548   5.461 -0.0450 -0.7344 -0.4128
    7MOL  Cl277 2209   8.175   0.493   5.615 -0.0054 -0.4944 -0.1829
    7MOL   C278 2210   8.303   0.656   5.452  0.3124  0.0971  0.2848
    7MOL   C279 2211   8.318   0.728   5.332  0.2841  0.1954 -0.2468
    7MOL   C280 2212   8.244   0.690   5.221 -0.3131 -0.0116 -0.0425
    7MOL   C281 2213   8.146   0.589   5.228  0.2476  0.7133 -0.0312
    7MOL   C282 2214   8.080   0.287   5.232  0.3744  0.7105  0.1576
    7MOL   H283 2215   8.051   0.343   5.440 -0.6074  0.0679 -0.2366
    7MOL   H284 2216   8.357   0.691   5.538 -0.7505 -0.8609  1.3596
    7MOL   H285 2217   8.388   0.811   5.331 -0.9146  1.2663  1.5799
    7MOL   H286 2218   8.261   0.738   5.126  1.1304 -0.3951  0.0162
    7MOL   H287 2219   8.087   0.567   5.140 -0.5292 -0.2176  0.7137
    7MOL   H288 2220   8.045   0.315   5.133  0.7123 -2.0457 -0.7673
    7MOL   H289 2221   8.022   0.197   5.250  0.9667 -0.2211 -2.3994
    7MOL   C290 2222   8.219   0.224   5.235  0.4775 -0.7083  0.1303
    7MOL   C291 2223   8.266   0.167   5.097  0.0128 -0.9881  0.3956
    7MOL   C292 2224   8.357   0.240   5.013 -0.9508 -0.3408  0.3518
    7MOL  Cl293 2225   8.414   0.395   5.056  0.1070 -0.0124  0.2104
    7MOL   C294 2226   8.413   0.171   4.902 -0.1195 -0.6357 -0.2801
    7MOL   C295 2227   8.361   0.047   4.859 -0.1743  0.2873  0.4987
    7MOL   C296 2228   8.273   8.402   4.938  0.1306 -0.8279 -0.0602
    7MOL   C297 2229   8.219   0.032   5.059 -0.6050 -0.7680 -0.7121
    7MOL   C298 2230   8.232   0.124   5.357  0.0304 -0.8310 -0.2340
    7MOL   H299 2231   8.292   0.304   5.248  1.9802 -1.9882 -0.2464
    7MOL   H300 2232   0.076   0.216   4.851  0.2612 -0.8314  0.1762
    7MOL   H301 2233   8.401   0.000   4.771  0.5676  0.1658  0.8888
    7MOL   H302 2234   8.235   8.305   4.908 -0.6469 -0.2808 -0.8849
    7MOL   H303 2235   8.152   8.392   5.118  1.9905 -3.0162  0.0549
    7MOL   H304 2236   8.181   0.032   5.329 -3.0829  0.2554  1.5923
    7MOL   H305 2237   8.173   0.162   5.440  0.5345  0.1207 -0.3092
    7MOL   C306 2238   8.375   0.098   5.406  0.0560  0.3905  0.1782
    7MOL   C307 2239   8.392   8.381   5.479  0.5739  0.1309 -0.5252
    7MOL   C308 2240   8.413   8.267   5.401 -0.3238 -0.1416 -0.4325
    7MOL  Cl309 2241   8.405   8.262   5.231 -0.3832 -0.4281 -0.0014
    7MOL   C310 2242   0.024   8.147   5.469  0.2076 -0.4229  0.1602
    7MOL   C311 2243   0.021   8.136   5.605 -0.3317  0.2312 -0.3625
    7MOL   C312 2244   8.401   8.250   5.681  0.1614 -0.2970 -0.2130
    7MOL   C313 2245   8.381   8.373   5.615  0.1491 -0.4014 -0.2728
    7MOL   C314 2246   0.002   0.219   5.493  0.2334 -0.3838  0.3915
    7MOL   H315 2247   0.013   0.084   5.315 -0.0428  0.9929  0.0227
    7MOL   H316 2248   0.032   8.051   5.420  0.6212 -1.2171  1.7282
    7MOL   H317 2249   0.034   8.043   5.657  0.4771 -0.0292 -1.0229
    7MOL   H318 2250   8.391   8.241   5.788 -0.8005 -0.3811 -0.3050
    7MOL   H319 2251   8.359   0.042   5.671 -0.3577 -0.7751  0.1248
    7MOL   H320 2252   0.094   0.195   5.545 -0.3912 -0.5369  1.4338
    7MOL   H321 2253   8.353   0.230   5.576  0.4703  0.9313  0.4228
    7MOL   H322 2254   0.003   0.315   5.442  0.6675 -0.8536 -0.4959
    8MOL     C1 2255   2.997   2.601   1.549  0.0742 -0.6261 -0.1038
    8MOL     C2 2256   2.919   2.592   1.412 -0.1848  0.0547 -0.0381
    8MOL     C3 2257   2.993   2.545   1.296  0.0709 -0.1368 -0.5357
    8MOL    Cl4 2258   3.165   2.504   1.311 -0.2009  0.2476  0.3629
    8MOL     C5 2259   2.917   2.526   1.181 -0.9542  0.5658 -0.0586
    8MOL     C6 2260   2.785   2.552   1.168  0.3267 -0.0525 -0.7975
    8MOL     C7 2261   2.713   2.601   1.283 -0.5394  0.0960  0.0376
    8MOL     C8 2262   2.780   2.624   1.407  0.0416  0.4661 -0.0069
    8MOL     C9 2263   3.056   2.741   1.581 -0.3589 -0.0022 -0.3418
    8MOL    H10 2264   2.924   2.569   1.624  0.1907 -0.7007 -0.0222
    8MOL    H11 2265   2.968   2.501   1.089  0.1793  0.1625  0.6759
    8MOL    H12 2266   2.734   2.536   1.074 -0.2651 -0.4902 -0.4084
    8MOL    H13 2267   2.606   2.609   1.278 -0.6162  0.6663  2.1514
    8MOL    H14 2268   2.726   2.631   1.500 -0.4135 -1.0447 -0.1513
    8MOL    H15 2269   3.116   2.776   1.497  1.3511  0.3297  0.9891
    8MOL    H16 2270   3.120   2.721   1.667 -1.1091  0.9391  0.4437
    8MOL    H17 2271   3.066   2.519   1.569  1.1634  0.4242  0.5690
    8MOL    C18 2272   2.954   2.851   1.615 -0.1954 -0.4861 -0.1688
    8MOL    C19 2273   3.017   2.993   1.607 -0.7993 -0.4840 -0.9141
    8MOL    C20 2274   3.117   3.045   1.696 -0.1458  0.3000  0.8927
    8MOL   Cl21 2275   3.180   2.952   1.827 -0.0921  0.1296 -0.3643
    8MOL    C22 2276   3.158   3.177   1.688 -0.1827 -0.1013  0.1495
    8MOL    C23 2277   3.120   3.257   1.579  0.2882  0.1030  0.0481
    8MOL    C24 2278   3.027   3.210   1.486  0.2521  0.1049 -0.3335
    8MOL    C25 2279   2.989   3.076   1.496  0.0433 -0.3118  0.2473
    8MOL    C26 2280   2.882   2.820   1.743 -0.0365 -0.3418 -0.2402
    8MOL    H27 2281   2.879   2.847   1.536 -0.2130 -0.0810 -0.1718
    8MOL    H28 2282   3.246   3.202   1.745 -0.1149 -0.4268  0.1910
    8MOL    H29 2283   3.159   3.358   1.573 -0.9818  0.5010 -1.9064
    8MOL    H30 2284   2.982   3.283   1.420  2.4477 -0.1802 -2.2227
    8MOL    H31 2285   2.934   3.025   1.418 -1.5188  2.7128 -0.7270
    8MOL    H32 2286   2.943   2.836   1.831 -1.2985 -0.8745  0.7481
    8MOL    H33 2287   2.858   2.714   1.747 -1.7141 -0.0046 -0.6277
    8MOL    C34 2288   2.746   2.887   1.769 -0.2035  0.3176  0.3000
    8MOL    C35 2289   2.750   3.038   1.752 -0.2373 -0.0701  0.0486
    8MOL    C36 2290   2.685   3.109   1.645 -0.1910  0.0988 -0.2454
    8MOL   Cl37 2291   2.581   3.029   1.527  0.1824 -0.0109  0.4158
    8MOL    C38 2292   2.695   3.247   1.638  0.1146  0.2173 -0.4734
    8MOL    C39 2293   2.761   3.329   1.735 -0.0396  0.0260  0.1921
    8MOL    C40 2294   2.821   3.260   1.843  0.6280  0.5969  0.2254
    8MOL    C41 2295   2.824   3.117   1.843 -0.0681 -0.4059 -0.5422
    8MOL    C42 2296   2.682   2.854   1.901 -0.2720  0.3911 -0.0580
    8MOL    H43 2297   2.681   2.857   1.687  0.0731  1.8339 -0.4935
    8MOL    H44 2298   2.630   3.289   1.562 -1.6919 -3.2146 -0.9255
    8MOL    H45 2299   2.755   3.437   1.738 -1.9758 -0.0953  1.3596
    8MOL    H46 2300   2.877   3.305   1.924  2.7216 -1.7574  0.1375
    8MOL    H47 2301   2.875   3.058   1.918  0.3127  0.5444 -0.0444
    8MOL    H48 2302   2.715   2.920   1.981 -3.2927  2.7972 -0.7051
    8MOL    H49 2303   2.724   2.756   1.923 -2.6412 -0.8419 -0.8547
    8MOL    C50 2304   2.527   2.848   1.883 -0.0387  0.5194 -0.1681
    8MOL    C51 2305   2.457   2.977   1.895  0.4617 -0.1734 -0.2253
    8MOL    C52 2306   2.338   3.000   1.811  0.3086 -0.9195  0.4071
    8MOL   Cl53 2307   2.261   2.879   1.712 -0.4322 -0.0031 -0.0780
    8MOL    C54 2308   2.290   3.128   1.814  0.2213  0.9671 -0.0545
    8MOL    C55 2309   2.344   3.227   1.899 -0.0029 -0.7857  0.0289
    8MOL    C56 2310   2.453   3.205   1.980 -0.4244 -0.3475 -0.0074
    8MOL    C57 2311   2.508   3.072   1.988 -0.2737 -0.2699  0.5049
    8MOL    C58 2312   2.465   2.755   1.980  1.0653 -0.1278  0.3764
    8MOL    H59 2313   2.506   2.809   1.783  1.9299 -0.5582 -0.1970
    8MOL    H60 2314   2.203   3.156   1.756  0.0839  0.2949 -0.1767
    8MOL    H61 2315   2.302   3.326   1.903  2.0840  0.0371  3.2509
    8MOL    H62 2316   2.500   3.286   2.034  2.0973 -2.3919  0.9802
    8MOL    H63 2317   2.590   3.056   2.056  0.5652  3.0646  0.3521
    8MOL    H64 2318   2.357   2.755   1.966  1.1429  0.2667 -0.2247
    8MOL    H65 2319   2.471   2.805   2.077  1.8512  3.2291 -1.3659
    8MOL    C66 2320   2.510   2.609   1.989 -0.5464  0.6395 -0.3548
    8MOL    C67 2321   2.527   2.547   1.849 -0.4233  0.1104 -0.1163
    8MOL    C68 2322   2.634   2.457   1.820 -0.0343 -0.3990  0.3914
    8MOL   Cl69 2323   2.772   2.437   1.926  0.2551  0.3714 -0.1494
    8MOL    C70 2324   2.636   2.399   1.693 -0.0600 -0.2142 -0.2638
    8MOL    C71 2325   2.527   2.413   1.600  0.5977 -0.3013  0.4755
    8MOL    C72 2326   2.420   2.492   1.640 -0.2596  0.2846  0.3695
    8MOL    C73 2327   2.426   2.565   1.755 -0.8325 -0.0602 -0.4643
    8MOL    C74 2328   2.435   2.517   2.087 -0.1184  0.0998  0.0811
    8MOL    H75 2329   2.599   2.611   2.052 -0.6954 -1.1546 -0.0385
    8MOL    H76 2330   2.713   2.326   1.673  1.2177  1.2045 -0.5790
    8MOL    H77 2331   2.516   2.347   1.515 -0.3367  1.3527 -0.6990
    8MOL    H78 2332   2.326   2.503   1.589 -0.1119  2.7141  0.5624
    8MOL    H79 2333   2.333   2.618   1.773 -0.6560 -0.3453  1.4641
    8MOL    H80 2334   2.476   2.417   2.090 -2.2181 -0.7735  0.4385
    8MOL    H81 2335   2.331   2.490   2.066 -0.5260  0.0340  2.1129
    8MOL    C82 2336   2.429   2.560   2.235 -0.5969  0.5542 -0.2154
    8MOL    C83 2337   2.572   2.563   2.298 -0.1650  0.2483 -0.0175
    8MOL    C84 2338   2.634   2.680   2.355  0.3658  0.7972 -0.0423
    8MOL   Cl85 2339   2.564   2.840   2.339  0.2439  0.1788  0.3829
    8MOL    C86 2340   2.752   2.663   2.427 -0.1007 -0.0270  0.0993
    8MOL    C87 2341   2.807   2.536   2.449 -0.1873  1.1035 -0.3117
    8MOL    C88 2342   2.745   2.414   2.397 -0.3937 -0.2008 -0.2940
    8MOL    C89 2343   2.629   2.437   2.317 -0.1178  0.5651 -0.5581
    8MOL    C90 2344   2.319   2.475   2.311 -0.1349  0.2586 -0.0711
    8MOL    H91 2345   2.387   2.660   2.226 -0.9363  0.5429  1.1043
    8MOL    H92 2346   2.798   2.756   2.459 -1.5138  0.6059  0.3390
    8MOL    H93 2347   2.907   2.528   2.491  0.2381  0.7579 -1.3639
    8MOL    H94 2348   2.793   2.317   2.393  1.3789  0.7199 -2.1303
    8MOL    H95 2349   2.575   2.355   2.272 -0.9604 -0.8231  2.7846
    8MOL    H96 2350   2.324   2.374   2.270 -0.4665  0.0193  0.4625
    8MOL    H97 2351   2.223   2.519   2.284 -0.8559 -0.0282  1.9602
    8MOL    C98 2352   2.328   2.447   2.463  0.3247 -0.3465  0.6438
    8MOL    C99 2353   2.213   2.363   2.512  0.3992 -0.4565 -0.0495
    8MOL   C100 2354   2.233   2.220   2.518  0.3312  0.4367  0.5239
    8MOL  Cl101 2355   2.381   2.141   2.471 -0.0315 -0.0439 -0.0613
    8MOL   C102 2356   2.125   2.138   2.556  0.3293 -0.8180  0.1327
    8MOL   C103 2357   2.000   2.192   2.592  0.7525  0.4240  0.2067
    8MOL   C104 2358   1.986   2.330   2.602  0.5484 -0.7506 -0.2247
    8MOL   C105 2359   2.092   2.417   2.563  0.1065 -0.5162  0.6362
    8MOL   C106 2360   2.335   2.584   2.533 -0.5885 -0.5238  0.0947
    8MOL   H107 2361   2.423   2.398   2.488 -0.7796 -1.2493  3.2831
    8MOL   H108 2362   2.131   2.031   2.560 -0.1684 -0.8106  1.4383
    8MOL   H109 2363   1.927   2.122   2.629  1.0211  1.7443  3.3755
    8MOL   H110 2364   1.887   2.369   2.626  0.0268  0.7209 -4.3042
    8MOL   H111 2365   2.085   2.524   2.576  1.7574 -0.5277  1.8020
    8MOL   H112 2366   2.245   2.643   2.514 -0.1215  0.2866  0.3620
    8MOL   H113 2367   2.403   2.654   2.484  1.8908 -1.3027  2.3318
    8MOL   C114 2368   2.371   2.579   2.686 -0.8719 -1.0425 -0.0845
    8MOL   C115 2369   2.328   2.714   2.753  0.6560 -0.5770  0.9434
    8MOL   C116 2370   2.233   2.714   2.857 -0.0817  0.3623 -0.0668
    8MOL  Cl117 2371   2.173   2.567   2.926 -0.0071  0.2998 -0.5942
    8MOL   C118 2372   2.190   2.835   2.911 -0.4168  0.0279 -0.3952
    8MOL   C119 2373   2.240   2.952   2.860  0.4247  0.2211  0.4085
    8MOL   C120 2374   2.343   2.960   2.760  0.1269  0.3718 -0.4488
    8MOL   C121 2375   2.380   2.837   2.702  0.0678  0.2476  0.4849
    8MOL   C122 2376   2.523   2.549   2.704  0.7748 -0.0196 -0.3862
    8MOL   H123 2377   2.331   2.496   2.742 -0.8868 -2.0131 -1.5093
    8MOL   H124 2378   2.117   2.835   2.991  1.2170 -1.8639  1.1720
    8MOL   H125 2379   2.202   3.044   2.902 -0.9010  1.6766 -3.7394
    8MOL   H126 2380   2.386   3.055   2.731  4.3911 -1.3862 -0.1566
    8MOL   H127 2381   2.455   2.834   2.625 -0.0428 -0.1885  0.3877
    8MOL   H128 2382   2.571   2.611   2.628  0.3663  0.0803 -0.5678
    8MOL   H129 2383   2.543   2.446   2.675  0.3125 -0.0485 -0.6196
    8MOL   C130 2384   2.593   2.591   2.835 -0.2596 -0.5036 -0.1755
    8MOL   C131 2385   2.741   2.560   2.826  0.3506  0.8353 -0.7436
    8MOL   C132 2386   2.839   2.662   2.796 -0.1072  1.1061 -0.2599
    8MOL  Cl133 2387   2.800   2.823   2.755 -0.1820 -0.1775  0.1404
    8MOL   C134 2388   2.977   2.634   2.791  0.1598  0.3728  0.2700
    8MOL   C135 2389   3.022   2.502   2.809  0.1264 -0.5229  0.4194
    8MOL   C136 2390   2.934   2.402   2.842 -0.6674 -0.0063  0.4944
    8MOL   C137 2391   2.798   2.428   2.846  0.2148  0.4480 -0.3000
    8MOL   C138 2392   2.533   2.539   2.970 -0.2435  0.4379  0.2438
    8MOL   H139 2393   2.583   2.699   2.823 -2.7911 -0.5706  0.9014
    8MOL   H140 2394   3.040   2.713   2.755 -2.4112  1.6066 -1.6685
    8MOL   H141 2395   3.130   2.490   2.813  0.3579  1.1056 -0.4717
    8MOL   H142 2396   2.975   2.303   2.859  0.1293 -0.3384 -3.0871
    8MOL   H143 2397   2.728   2.347   2.860  1.2313 -0.1760  1.3598
    8MOL   H144 2398   2.551   2.431   2.980 -2.7905 -0.0541 -0.1359
    8MOL   H145 2399   2.425   2.552   2.979  0.0617  2.2487  1.4866
    8MOL   C146 2400   2.592   2.623   3.094  0.0373  0.1268 -0.0353
    8MOL   C147 2401   2.600   2.535   3.219 -0.1303  0.3664  0.9665
    8MOL   C148 2402   2.723   2.482   3.273 -0.7469  0.2919 -0.1572
    8MOL  Cl149 2403   2.871   2.513   3.183  0.0469 -0.0019 -0.0079
    8MOL   C150 2404   2.725   2.403   3.384 -0.1683 -0.0770 -0.0733
    8MOL   C151 2405   2.602   2.376   3.445 -0.7132  0.6311  0.0289
    8MOL   C152 2406   2.480   2.427   3.400 -0.2489  0.1120 -0.0181
    8MOL   C153 2407   2.476   2.500   3.280 -0.4642 -0.0845 -1.0206
    8MOL   C154 2408   2.521   2.755   3.096  0.2104  0.1946 -0.2900
    8MOL   H155 2409   2.696   2.650   3.072 -0.0573  2.4539  2.1684
    8MOL   H156 2410   2.819   2.362   3.417 -1.5640 -1.6309  2.1576
    8MOL   H157 2411   2.595   2.311   3.532 -1.0896  0.4522 -0.1354
    8MOL   H158 2412   2.385   2.408   3.448 -0.5405 -0.9490 -0.9895
    8MOL   H159 2413   2.386   2.535   3.233 -0.5861  0.9691 -0.0117
    8MOL   H160 2414   2.416   2.734   3.118 -0.0729  1.2655 -0.6117
    8MOL   H161 2415   2.514   2.797   2.996 -0.7953 -0.6383 -0.5888
    8MOL   C162 2416   2.566   2.850   3.207  1.7952  0.6848 -0.2734
    8MOL   C163 2417   2.448   2.922   3.268  0.8692  0.3827  0.1820
    8MOL   C164 2418   2.398   2.899   3.399  0.9443 -0.1591 -0.1514
    8MOL  Cl165 2419   2.472   2.796   3.517  0.0341  0.0666 -0.2871
    8MOL   C166 2420   2.275   2.960   3.442 -0.1187 -1.0294 -0.3753
    8MOL   C167 2421   2.212   3.053   3.358 -0.4494  0.6500  0.3020
    8MOL   C168 2422   2.263   3.080   3.228  0.3078 -0.0390 -0.0903
    8MOL   C169 2423   2.378   3.018   3.189 -0.0188 -0.3333  0.0834
    8MOL   C170 2424   2.676   2.938   3.146 -0.0809  0.7837 -0.4983
    8MOL   H171 2425   2.607   2.791   3.289  0.6040  1.0871  0.6248
    8MOL   H172 2426   2.233   2.951   3.541 -1.2833 -0.8258 -0.8444
    8MOL   H173 2427   2.124   3.105   3.394 -0.5143  1.2255 -0.6626
    8MOL   H174 2428   2.206   3.139   3.158  0.6244  1.2052  0.6826
    8MOL   H175 2429   2.417   3.041   3.091 -0.3836  0.4515  0.1195
    8MOL   H176 2430   2.616   3.012   3.093 -1.3823  0.0960 -0.0191
    8MOL   H177 2431   2.731   2.893   3.064  0.2337 -1.2942  0.8179
    8MOL   C178 2432   2.761   2.992   3.263 -0.1577  1.1405  0.2999
    8MOL   C179 2433   2.796   3.137   3.261 -0.1947 -0.1306  0.6225
    8MOL   C180 2434   2.752   3.216   3.369  0.7458 -0.9886 -0.0177
    8MOL  Cl181 2435   2.655   3.154   3.501  0.1426  0.1849  0.2128
    8MOL   C182 2436   2.783   3.350   3.378  0.2927 -0.0308  0.0190
    8MOL   C183 2437   2.857   3.416   3.275  0.3727 -0.0554 -0.4702
    8MOL   C184 2438   2.902   3.344   3.161  0.0676 -0.1193  0.3872
    8MOL   C185 2439   2.872   3.204   3.155 -0.4405  0.1379  0.2409
    8MOL   C186 2440   2.891   2.902   3.268 -0.3314 -0.2720 -0.0831
    8MOL   H187 2441   2.704   2.970   3.354 -0.8907  0.1207 -0.3896
    8MOL   H188 2442   2.751   3.401   3.467 -0.5160  0.1925 -0.3932
    8MOL   H189 2443   2.886   3.517   3.298 -0.8024 -0.1600  1.6149
    8MOL   H190 2444   2.971   3.385   3.089  1.3959 -1.8307  0.6572
    8MOL   H191 2445   2.901   3.152   3.065 -1.2716 -0.0435  0.0693
    8MOL   H192 2446   2.967   2.927   3.194 -0.7397  0.0989 -0.3858
    8MOL   H193 2447   2.860   2.801   3.239 -2.7892  1.0427 -2.2386
    8MOL   C194 2448   2.951   2.881   3.413 -0.0524  0.1560  0.2226
    8MOL   C195 2449   3.109   2.844   3.402 -0.2011  0.2954  0.4292
    8MOL   C196 2450   3.210   2.934   3.442  0.2117 -0.3364  0.1710
    8MOL  Cl197 2451   3.170   3.091   3.502 -0.3633  0.0685 -0.2140
    8MOL   C198 2452   3.343   2.893   3.432 -0.1595 -0.0259 -0.1304
    8MOL   C199 2453   3.381   2.778   3.359  0.9616 -0.1259 -0.0649
    8MOL   C200 2454   3.279   2.688   3.315  0.4528  0.2417  0.1843
    8MOL   C201 2455   3.143   2.722   3.343  0.6063 -0.2329  0.2130
    8MOL   C202 2456   2.876   2.774   3.496  0.6850  0.0459  0.2692
    8MOL   H203 2457   2.941   2.980   3.457 -0.3732  1.0553 -1.7991
    8MOL   H204 2458   3.416   2.967   3.460  1.2765 -0.1014 -3.4287
    8MOL   H205 2459   3.488   2.764   3.351  1.3377  2.7637 -0.7003
    8MOL   H206 2460   3.300   2.597   3.260 -2.9056 -1.6998  1.9666
    8MOL   H207 2461   3.074   2.651   3.300  0.2235 -0.6056  1.4277
    8MOL   H208 2462   2.898   2.674   3.457  1.3493  1.4829 -3.2861
    8MOL   H209 2463   2.769   2.772   3.480  0.3355  1.0183  2.4039
    8MOL   C210 2464   2.902   2.777   3.652  0.2225 -0.0621 -0.1773
    8MOL   C211 2465   2.841   2.644   3.702  0.1689 -0.4420  0.3329
    8MOL   C212 2466   2.931   2.533   3.718 -0.2062 -0.3049 -0.4712
    8MOL  Cl213 2467   3.099   2.536   3.666  0.3059  0.1516  0.3620
    8MOL   C214 2468   2.884   2.415   3.761 -0.4559 -0.1957  0.2013
    8MOL   C215 2469   2.748   2.392   3.781 -0.2259  0.3588 -0.0660
    8MOL   C216 2470   2.660   2.500   3.771  0.2406 -0.0954 -0.8516
    8MOL   C217 2471   2.704   2.624   3.733  0.0780 -0.3736  0.3952
    8MOL   C218 2472   2.855   2.905   3.716  0.7856 -0.0556  0.2565
    8MOL   H219 2473   3.010   2.776   3.664 -0.0322 -3.1088  2.6133
    8MOL   H220 2474   2.951   2.332   3.773 -1.0045 -0.6928 -0.1455
    8MOL   H221 2475   2.696   2.302   3.811  0.6234  0.4979  1.9600
    8MOL   H222 2476   2.554   2.482   3.774  0.2948 -0.7200 -2.2830
    8MOL   H223 2477   2.634   2.704   3.716 -0.8075 -1.8129 -3.1045
    8MOL   H224 2478   2.760   2.940   3.676  0.9484 -0.6945 -0.7053
    8MOL   H225 2479   2.924   2.978   3.674 -0.7482  0.3740 -1.6328
    8MOL   C226 2480   2.880   2.918   3.871  0.0973 -0.1804  0.6070
    8MOL   C227 2481   2.749   2.870   3.945 -0.2344 -0.4122 -0.1297
    8MOL   C228 2482   2.750   2.757   4.027 -0.6185  0.1030  0.2487
    8MOL  Cl229 2483   2.887   2.647   4.036 -0.1996 -0.2708 -0.2440
    8MOL   C230 2484   2.641   2.730   4.112 -0.4417  0.3169 -0.2162
    8MOL   C231 2485   2.527   2.810   4.107  0.9441 -0.2046 -0.1896
    8MOL   C232 2486   2.519   2.919   4.013 -0.5308 -0.3610 -0.3983
    8MOL   C233 2487   2.633   2.950   3.938  0.3096 -0.0576 -0.3532
    8MOL   C234 2488   2.910   3.069   3.911 -0.2474  0.5392 -0.4951
    8MOL   H235 2489   2.962   2.862   3.914  1.9292  2.3320  0.5043
    8MOL   H236 2490   2.652   2.655   4.190 -1.7340 -1.2278 -1.4788
    8MOL   H237 2491   2.453   2.795   4.184  0.3018  1.5575 -0.4368
    8MOL   H238 2492   2.431   2.982   4.011 -0.8941 -0.7012  2.3928
    8MOL   H239 2493   2.633   3.043   3.884  2.1177  0.6998  0.9013
    8MOL   H240 2494   2.870   3.082   4.011  1.5331 -0.7838  0.4048
    8MOL   H241 2495   2.863   3.136   3.838 -0.9525  3.1013  2.2166
    8MOL   C242 2496   3.061   3.115   3.913 -0.0655 -0.3602  0.6076
    8MOL   C243 2497   3.145   3.022   3.999 -0.2371  0.3778  0.8104
    8MOL   C244 2498   3.243   2.928   3.945 -0.2003 -0.2632 -0.9264
    8MOL  Cl245 2499   3.275   2.906   3.775  0.1529  0.5199  0.0183
    8MOL   C246 2500   3.303   2.839   4.031  0.2904  0.1090 -1.1751
    8MOL   C247 2501   3.272   2.832   4.165 -0.6231  0.0944  0.0327
    8MOL   C248 2502   3.189   2.925   4.221 -0.2358  0.9071  0.4744
    8MOL   C249 2503   3.122   3.020   4.141 -0.9660  0.5186  0.3238
    8MOL   C250 2504   3.085   3.260   3.960  0.3521  0.1887 -0.4445
    8MOL   H251 2505   3.103   3.102   3.813  0.1417 -0.8873  0.7637
    8MOL   H252 2506   3.363   2.760   3.988 -0.3514 -1.2044  0.2962
    8MOL   H253 2507   3.322   2.755   4.220  0.8061  0.4740 -0.7196
    8MOL   H254 2508   3.165   2.920   4.326 -1.7949  1.1119  0.1446
    8MOL   H255 2509   3.058   3.083   4.200 -1.3973 -1.1498  1.6980
    8MOL   H256 2510   3.096   3.276   4.068  0.1770 -2.0508 -0.0716
    8MOL   H257 2511   3.006   3.324   3.922 -1.2581 -1.5649 -0.0930
    8MOL   C258 2512   3.216   3.322   3.901  0.3377 -0.3211 -0.2170
    8MOL   C259 2513   3.264   3.444   3.978 -0.3315 -0.9697  0.2152
    8MOL   C260 2514   3.393   3.450   4.043 -0.4139 -0.2363 -0.3163
    8MOL  Cl261 2515   3.510   3.324   4.029  0.0532  0.2633 -0.3489
    8MOL   C262 2516   3.419   3.567   4.125  0.2800  0.4310  0.7765
    8MOL   C263 2517   3.327   3.673   4.124  0.4297  0.1044  0.7219
    8MOL   C264 2518   3.207   3.665   4.054  0.5426 -0.3971 -0.4930
    8MOL   C265 2519   3.176   3.553   3.982  0.1188 -0.4817 -0.5832
    8MOL   C266 2520   3.204   3.361   3.753  0.4775 -0.4197 -0.1642
    8MOL   H267 2521   3.288   3.241   3.914 -0.9181 -1.3440  0.3785
    8MOL   H268 2522   3.512   3.578   4.179  0.6831 -1.1284  0.4223
    8MOL   H269 2523   3.344   3.764   4.179  0.3668  0.9265 -0.5977
    8MOL   H270 2524   3.132   3.741   4.068  0.3768 -0.6552  0.0333
    8MOL   H271 2525   3.072   3.553   3.951 -0.0371 -1.1446 -0.0790
    8MOL   H272 2526   3.138   3.448   3.751  1.1145  0.0584 -1.6949
    8MOL   H273 2527   3.160   3.283   3.690 -1.2762  2.9870 -3.3777
    8MOL   C274 2528   3.344   3.399   3.693 -0.1749 -0.3944 -0.4522
    8MOL   C275 2529   3.326   3.497   3.574 -1.1255  0.3215 -0.1702
    8MOL   C276 2530   3.381   3.626   3.566 -0.5979  0.5796  0.1325
    8MOL  Cl277 2531   3.472   3.686   3.697  0.0105 -0.4091 -0.0676
    8MOL   C278 2532   3.361   3.697   3.445  0.3617  0.6499  0.3015
    8MOL   C279 2533   3.267   3.659   3.348 -0.3815 -0.0174  0.2396
    8MOL   C280 2534   3.207   3.530   3.358 -1.0726 -0.4032  1.0078
    8MOL   C281 2535   3.238   3.456   3.469 -0.5812 -0.7674 -0.0676
    8MOL   C282 2536   3.433   3.279   3.664  0.4338 -0.3914  0.0805
    8MOL   H283 2537   3.391   3.455   3.774  1.1258 -0.0845 -1.3998
    8MOL   H284 2538   3.398   3.797   3.428 -0.4265  0.7533 -0.8548
    8MOL   H285 2539   3.233   3.717   3.263 -1.5469 -1.9488 -0.6726
    8MOL   H286 2540   3.134   3.488   3.289 -0.3016  0.5195 -0.3905
    8MOL   H287 2541   3.181   3.364   3.467 -0.0558 -1.0837 -0.6747
    8MOL   H288 2542   3.377   3.226   3.586 -0.4164 -1.1661  1.1987
    8MOL   H289 2543   3.432   3.213   3.751  4.2302 -0.1747  0.3484
    8MOL   C290 2544   3.581   3.317   3.615 -0.0895 -0.5097 -0.3468
    8MOL   C291 2545   3.642   3.197   3.544 -0.1909  0.0722  0.0660
    8MOL   C292 2546   3.668   3.192   3.400 -0.6094 -1.0346 -0.7987
    8MOL  Cl293 2547   3.630   3.337   3.308 -0.1873  0.0228  0.3141
    8MOL   C294 2548   3.725   3.080   3.337 -0.1615 -0.6293  0.4374
    8MOL   C295 2549   3.752   2.964   3.412 -0.2473  0.3812  0.0521
    8MOL   C296 2550   3.734   2.966   3.549  0.4086 -0.5864  0.4754
    8MOL   C297 2551   3.684   3.080   3.615 -0.5342 -0.5420  0.0079
    8MOL   C298 2552   3.672   3.370   3.732  0.1961  0.2058 -0.6044
    8MOL   H299 2553   3.579   3.397   3.541  0.1999 -1.1831 -1.0886
    8MOL   H300 2554   3.739   3.089   3.230 -1.7674 -1.6472  0.1355
    8MOL   H301 2555   3.781   2.873   3.362 -1.2099 -0.2870  0.7139
    8MOL   H302 2556   3.758   2.876   3.603  1.4322 -0.8511 -0.3989
    8MOL   H303 2557   3.669   3.076   3.722 -2.5678  0.5668 -0.2211
    8MOL   H304 2558   3.677   3.287   3.802 -0.0519  1.5111  1.0249
    8MOL   H305 2559   3.625   3.455   3.782  1.5791  1.8015 -1.9362
    8MOL   C306 2560   3.814   3.403   3.686 -0.6887 -0.3848 -0.1770
    8MOL   C307 2561   3.894   3.444   3.811  0.6379 -0.3445  0.3744
    8MOL   C308 2562   3.964   3.349   3.890 -0.0306  0.0708  0.4188
    8MOL  Cl309 2563   3.972   3.179   3.855 -0.5347 -0.0547 -0.0007
    8MOL   C310 2564   4.033   3.394   4.007 -0.1438 -0.6166  0.9135
    8MOL   C311 2565   4.040   3.528   4.043 -0.1427  0.0874  0.1612
    8MOL   C312 2566   3.973   3.622   3.969  0.3485 -0.1884 -0.5948
    8MOL   C313 2567   3.902   3.581   3.848  0.3009 -0.4610  0.1328
    8MOL   C314 2568   3.834   3.514   3.573  0.3944 -0.3774  0.9346
    8MOL   H315 2569   3.849   3.315   3.632 -0.3954  0.7410 -1.8556
    8MOL   H316 2570   4.078   3.313   4.063  2.1362 -0.2846 -0.3651
    8MOL   H317 2571   4.103   3.555   4.126 -0.3324  3.8403 -0.7896
    8MOL   H318 2572   3.955   3.723   4.002 -1.3396 -0.7337  0.2356
    8MOL   H319 2573   3.858   3.665   3.796  0.1883  0.4268  1.6131
    8MOL   H320 2574   3.808   3.615   3.602 -0.7654 -0.5481  0.4910
    8MOL   H321 2575   3.775   3.487   3.486  1.5370 -1.2000  0.3887
    8MOL   H322 2576   3.937   3.523   3.537 -0.3999  0.7961 -1.0898
    9MOL     C1 2577   2.469   1.696   7.062 -0.1597 -0.2962 -0.3441
    9MOL     C2 2578   2.532   1.827   7.111 -0.9541 -0.3282 -0.6015
    9MOL     C3 2579   2.468   1.908   7.213 -0.5723  1.0495 -0.2842
    9MOL    Cl4 2580   2.331   1.860   7.302  0.2773 -0.0861  0.4328
    9MOL     C5 2581   2.522   2.035   7.248  0.3150  0.1679 -0.1062
    9MOL     C6 2582   2.644   2.079   7.185 -0.1825 -0.1600 -1.2063
    9MOL     C7 2583   2.701   2.002   7.090 -0.2954 -0.1522 -0.7774
    9MOL     C8 2584   2.649   1.881   7.048  0.3472  0.0369  0.8943
    9MOL     C9 2585   2.454   1.670   6.910 -0.1827 -0.2787  0.7171
    9MOL    H10 2586   2.534   1.625   7.114 -0.1269  0.9479  1.3124
    9MOL    H11 2587   2.472   2.086   7.329 -1.4817 -0.1552 -1.0018
    9MOL    H12 2588   2.684   2.177   7.204 -0.2738 -0.5922  1.3612
    9MOL    H13 2589   2.785   2.039   7.034 -0.4683  0.6154 -0.5357
    9MOL    H14 2590   2.700   1.830   6.968  0.5752  0.0387  1.0404
    9MOL    H15 2591   2.556   1.656   6.874 -0.4421 -0.0108 -0.1443
    9MOL    H16 2592   2.422   1.747   6.840  0.6877 -1.4447 -0.9984
    9MOL    H17 2593   2.372   1.684   7.108 -0.1888 -1.3092 -0.6481
    9MOL    C18 2594   2.365   1.540   6.888  0.0419  0.3959  0.6454
    9MOL    C19 2595   2.414   1.421   6.988  0.2855  0.6290 -0.0279
    9MOL    C20 2596   2.335   1.352   7.084  0.6722 -0.0704 -0.2577
    9MOL   Cl21 2597   2.176   1.394   7.127  0.0757  0.2734  0.1747
    9MOL    C22 2598   2.389   1.244   7.159  0.1290 -0.2249  0.1962
    9MOL    C23 2599   2.522   1.211   7.141 -0.8400  0.2407 -0.1075
    9MOL    C24 2600   2.601   1.272   7.047  0.2589 -0.2101  0.9923
    9MOL    C25 2601   2.542   1.371   6.969  0.1652 -0.2326 -0.3051
    9MOL    C26 2602   2.354   1.517   6.737  0.0379  0.6666  0.1341
    9MOL    H27 2603   2.263   1.569   6.915 -0.0570 -0.2219  0.9396
    9MOL    H28 2604   2.326   1.204   7.238 -0.4016  0.2217  0.0059
    9MOL    H29 2605   2.575   1.136   7.197 -0.6349  1.3935  1.2707
    9MOL    H30 2606   2.707   1.253   7.044  0.2618 -0.4195  2.1379
    9MOL    H31 2607   2.606   1.422   6.898  0.8323 -0.4524  0.1321
    9MOL    H32 2608   2.456   1.502   6.701 -0.5672  0.1531 -1.3828
    9MOL    H33 2609   2.304   1.593   6.677 -1.1625 -0.5179 -0.4020
    9MOL    C34 2610   2.297   1.374   6.712 -0.8339  0.5964 -0.0306
    9MOL    C35 2611   2.343   1.325   6.574  0.7894 -0.2057  0.1105
    9MOL    C36 2612   2.443   1.222   6.565 -0.6242 -0.1449 -0.5780
    9MOL   Cl37 2613   2.509   1.142   6.703 -0.0104  0.2765 -0.1787
    9MOL    C38 2614   2.494   1.172   6.443 -0.2458 -0.2540 -0.5923
    9MOL    C39 2615   2.441   1.215   6.325 -0.9887  0.0941  0.3408
    9MOL    C40 2616   2.339   1.314   6.328 -0.9902 -0.3640 -0.7504
    9MOL    C41 2617   2.297   1.375   6.448  0.4874  0.1263  0.7403
    9MOL    C42 2618   2.143   1.356   6.719 -0.2448  0.5030 -0.6041
    9MOL    H43 2619   2.340   1.310   6.788  0.9003  2.5442  0.6796
    9MOL    H44 2620   2.564   1.090   6.451 -0.0498 -0.2954 -2.6691
    9MOL    H45 2621   2.460   1.165   6.231 -1.4740  0.5448  0.0005
    9MOL    H46 2622   2.296   1.336   6.232 -1.0022 -0.9413 -0.8793
    9MOL    H47 2623   2.219   1.449   6.443  0.4566  0.0803  0.5307
    9MOL    H48 2624   2.098   1.415   6.638 -0.6291  0.3348 -0.5119
    9MOL    H49 2625   2.107   1.434   6.786  0.6317  4.4913 -4.4997
    9MOL    C50 2626   2.086   1.215   6.718 -0.4514  0.9162  0.6829
    9MOL    C51 2627   1.947   1.196   6.654  0.3448 -0.7917 -0.7904
    9MOL    C52 2628   1.928   1.124   6.531 -0.3361 -0.2387 -0.8460
    9MOL   Cl53 2629   2.061   1.043   6.445  0.2467 -0.1621 -0.0111
    9MOL    C54 2630   1.804   1.119   6.469  1.0873 -0.2277 -0.4758
    9MOL    C55 2631   1.695   1.189   6.525  0.6141  0.6351  0.0563
    9MOL    C56 2632   1.714   1.254   6.647 -0.4592  0.5586  0.3358
    9MOL    C57 2633   1.840   1.263   6.707  0.4013  0.0876 -0.1094
    9MOL    C58 2634   2.095   1.155   6.856 -0.3288  0.1015 -0.6568
    9MOL    H59 2635   2.153   1.152   6.660 -1.6980 -0.4072  0.6519
    9MOL    H60 2636   1.792   1.065   6.377  0.5285 -0.5958 -0.1903
    9MOL    H61 2637   1.596   1.187   6.482  0.7643 -3.4279 -0.3156
    9MOL    H62 2638   1.623   1.295   6.688 -0.8363  0.3459 -0.2829
    9MOL    H63 2639   1.854   1.318   6.798  1.6208  2.0847 -1.4724
    9MOL    H64 2640   2.036   1.219   6.921 -0.9656  0.1378 -1.2619
    9MOL    H65 2641   2.200   1.163   6.884 -0.4517  1.0505 -0.4569
    9MOL    C66 2642   2.050   1.003   6.880  0.7322 -0.3794  1.2790
    9MOL    C67 2643   2.065   0.961   7.029 -0.5181 -0.7722 -0.8031
    9MOL    C68 2644   1.955   0.954   7.116  0.9011  0.1070 -0.1764
    9MOL   Cl69 2645   1.796   0.965   7.060 -0.0708  0.2233 -0.2522
    9MOL    C70 2646   1.972   0.938   7.253 -0.6815  0.0185  0.2358
    9MOL    C71 2647   2.104   0.933   7.310  0.7993 -1.0133 -0.4496
    9MOL    C72 2648   2.213   0.933   7.222  0.4855 -0.8532 -0.3527
    9MOL    C73 2649   2.196   0.942   7.082 -0.6281 -0.8081  0.5716
    9MOL    C74 2650   2.120   0.901   6.777 -0.0754 -0.1710 -0.4067
    9MOL    H75 2651   1.946   1.003   6.848  1.2162  0.9520 -0.3934
    9MOL    H76 2652   1.885   0.944   7.317 -0.8867 -0.6630  0.0270
    9MOL    H77 2653   2.112   0.926   7.418  0.5217  1.8175 -0.2308
    9MOL    H78 2654   2.314   0.921   7.257  0.8512  2.1459 -0.2316
    9MOL    H79 2655   2.281   0.949   7.017 -0.8346  0.5796  0.4322
    9MOL    H80 2656   2.229   0.911   6.787 -0.0575 -2.6180  2.8322
    9MOL    H81 2657   2.107   0.927   6.672 -3.2291  0.0226 -0.0099
    9MOL    C82 2658   2.086   0.752   6.801 -1.0093 -0.0239  0.3753
    9MOL    C83 2659   2.199   0.671   6.732  0.6728 -0.2085 -0.1163
    9MOL    C84 2660   2.302   0.604   6.801  0.4396  0.6580 -1.1984
    9MOL   Cl85 2661   2.327   0.617   6.970  0.4136  0.3482  0.2929
    9MOL    C86 2662   2.392   0.527   6.727 -0.1561 -0.0708 -0.2063
    9MOL    C87 2663   2.373   0.509   6.590  0.2632  0.4014  0.0654
    9MOL    C88 2664   2.268   0.568   6.522  0.4502 -0.3898 -0.0316
    9MOL    C89 2665   2.183   0.649   6.592  0.2598 -0.0868 -0.1284
    9MOL    C90 2666   1.943   0.719   6.766 -0.5181  0.3731  0.5638
    9MOL    H91 2667   2.107   0.732   6.907 -0.7518 -1.7027  0.0237
    9MOL    H92 2668   2.473   0.477   6.778  1.4654  1.4094 -1.2779
    9MOL    H93 2669   2.439   0.442   6.535  1.7027  0.7766  1.2934
    9MOL    H94 2670   2.260   0.560   6.414  0.6732 -2.3537  0.0858
    9MOL    H95 2671   2.109   0.696   6.529 -0.3705 -2.4230 -1.1801
    9MOL    H96 2672   1.938   0.672   6.668 -2.6464 -1.6159  1.5678
    9MOL    H97 2673   1.892   0.815   6.771 -2.5474 -0.5499 -1.1136
    9MOL    C98 2674   1.878   0.625   6.872 -0.3298  0.1759  0.1966
    9MOL    C99 2675   1.952   0.494   6.874 -0.6968 -0.7194 -0.1198
    9MOL   C100 2676   2.023   0.450   6.991 -0.0117 -0.0479  0.0319
    9MOL  Cl101 2677   2.021   0.530   7.146  0.0887 -0.1601 -0.3700
    9MOL   C102 2678   2.089   0.322   6.983  0.5186 -0.1151  0.0718
    9MOL   C103 2679   2.105   0.255   6.860  0.2340  0.3459  0.3682
    9MOL   C104 2680   2.032   0.297   6.751  0.4437 -0.0470  0.1335
    9MOL   C105 2681   1.958   0.417   6.757  1.3243 -0.2463  0.5500
    9MOL   C106 2682   1.727   0.608   6.847  0.8166  0.5252 -0.4783
    9MOL   H107 2683   1.890   0.672   6.969 -0.5607  0.2863  0.1728
    9MOL   H108 2684   2.153   0.288   7.063  0.5778  0.2360  0.1755
    9MOL   H109 2685   2.155   0.159   6.853 -2.3158 -1.2223  2.6460
    9MOL   H110 2686   2.053   0.241   6.661 -2.1719  1.2316 -1.3483
    9MOL   H111 2687   1.918   0.446   6.661  0.7467  0.5855  1.0364
    9MOL   H112 2688   1.691   0.564   6.754  0.2650 -0.9708  0.4072
    9MOL   H113 2689   1.691   0.710   6.841  2.5546  1.1712 -0.2014
    9MOL   C114 2690   1.657   0.523   6.962  0.6114  0.3176  0.9673
    9MOL   C115 2691   1.528   0.461   6.892 -0.2733 -0.2065 -0.5444
    9MOL   C116 2692   1.525   0.324   6.857 -0.3194  0.2328 -0.2169
    9MOL  Cl117 2693   1.647   0.214   6.902  0.1822  0.4486  0.0670
    9MOL   C118 2694   1.409   0.264   6.805 -0.0847  0.0684 -0.0208
    9MOL   C119 2695   1.293   0.336   6.795 -0.2378  0.2255  0.0311
    9MOL   C120 2696   1.295   0.473   6.821 -0.6157 -0.5449 -0.1762
    9MOL   C121 2697   1.410   0.536   6.867  0.2489 -0.1126  0.2837
    9MOL   C122 2698   1.618   0.615   7.083 -0.2462  0.1544  0.5006
    9MOL   H123 2699   1.732   0.454   7.000  2.0160 -0.1537 -2.5258
    9MOL   H124 2700   1.413   0.158   6.785  0.3827 -0.0454  0.6614
    9MOL   H125 2701   1.210   0.279   6.755 -0.8854  1.0485  0.1924
    9MOL   H126 2702   1.200   0.524   6.814 -0.2473  0.2513  0.5727
    9MOL   H127 2703   1.405   0.643   6.879  2.0561  0.1309 -0.7798
    9MOL   H128 2704   1.559   0.704   7.058  2.1711  1.2049 -1.7580
    9MOL   H129 2705   1.710   0.658   7.121 -0.4867  0.8944  0.2730
    9MOL   C130 2706   1.555   0.544   7.206  0.1918 -0.0012 -0.8553
    9MOL   C131 2707   1.405   0.502   7.195 -0.6802  0.4603 -0.4889
    9MOL   C132 2708   1.357   0.369   7.190 -0.3167  0.3958 -0.1183
    9MOL  Cl133 2709   1.479   0.242   7.213 -0.2835  0.2045 -0.1659
    9MOL   C134 2710   1.219   0.334   7.171 -0.2399  0.1711  0.0955
    9MOL   C135 2711   1.129   0.438   7.149  0.1085  0.0644  0.1936
    9MOL   C136 2712   1.175   0.571   7.145 -0.7740  0.3117  0.8432
    9MOL   C137 2713   1.311   0.600   7.168  0.0457 -0.3561  0.2504
    9MOL   C138 2714   1.584   0.638   7.337  0.2369 -0.1588  0.5457
    9MOL   H139 2715   1.616   0.455   7.223  0.5676 -0.2705 -3.3987
    9MOL   H140 2716   1.186   0.232   7.185 -1.4352  0.5052 -0.2653
    9MOL   H141 2717   1.025   0.416   7.130  0.8995 -2.3809 -1.6559
    9MOL   H142 2718   1.102   0.651   7.149 -1.9872 -0.7799  0.6998
    9MOL   H143 2719   1.340   0.703   7.160 -1.9765  0.0708 -2.3483
    9MOL   H144 2720   1.558   0.739   7.306  1.4019 -0.2405 -0.7220
    9MOL   H145 2721   1.691   0.629   7.354  0.7892  1.9666 -1.5365
    9MOL   C146 2722   1.499   0.613   7.463  0.3585 -0.4738 -0.4509
    9MOL   C147 2723   1.515   0.711   7.579 -0.2742  0.0163 -0.5010
    9MOL   C148 2724   1.425   0.719   7.689 -0.1035  0.1510 -0.1909
    9MOL  Cl149 2725   1.309   0.600   7.702 -0.5551  0.2752 -0.5344
    9MOL   C150 2726   1.428   0.822   7.786  0.3165  0.0301 -0.1822
    9MOL   C151 2727   1.539   0.915   7.782 -0.1726  0.1822 -0.1864
    9MOL   C152 2728   1.629   0.912   7.672 -0.1345 -0.1990  0.1675
    9MOL   C153 2729   1.616   0.812   7.575 -0.1237  0.1449  0.2309
    9MOL   C154 2730   1.542   0.469   7.510  0.0955  0.4463 -0.1593
    9MOL   H155 2731   1.395   0.623   7.432  0.0108  0.2993  0.9268
    9MOL   H156 2732   1.358   0.828   7.868  0.4892  0.2481 -0.0506
    9MOL   H157 2733   1.540   0.992   7.858  1.0842 -0.5431  0.5506
    9MOL   H158 2734   1.712   0.981   7.675 -1.1247  1.1553 -2.2555
    9MOL   H159 2735   1.696   0.817   7.502  0.1475  1.8539  0.6313
    9MOL   H160 2736   1.564   0.402   7.427 -0.1701  0.9099 -0.6107
    9MOL   H161 2737   1.449   0.424   7.544 -1.2934  0.9984 -3.0620
    9MOL   C162 2738   1.638   0.432   7.619 -0.6676 -0.0796  0.4445
    9MOL   C163 2739   1.784   0.441   7.567  0.0922  0.0879  0.4416
    9MOL   C164 2740   1.871   0.532   7.627  0.2091  0.1302  0.0747
    9MOL  Cl165 2741   1.831   0.641   7.756  0.0182  0.0079 -0.0607
    9MOL   C166 2742   2.001   0.546   7.576 -0.0066  0.1966  0.3877
    9MOL   C167 2743   2.048   0.464   7.471  0.1436 -0.1206 -0.3955
    9MOL   C168 2744   1.960   0.371   7.412  0.2386 -0.0217  0.0791
    9MOL   C169 2745   1.824   0.360   7.458 -0.8215 -0.0489  0.2360
    9MOL   C170 2746   1.606   0.290   7.685 -0.2607 -0.1488  0.0706
    9MOL   H171 2747   1.632   0.508   7.697 -0.2182 -1.4591  1.8441
    9MOL   H172 2748   2.067   0.613   7.627  3.1375 -0.5937 -2.4685
    9MOL   H173 2749   2.150   0.473   7.436  0.0540 -1.7872 -1.1185
    9MOL   H174 2750   1.997   0.310   7.331 -0.6620 -2.3461  1.3532
    9MOL   H175 2751   1.756   0.297   7.403 -0.3554 -1.7054  1.5251
    9MOL   H176 2752   1.698   0.253   7.729  1.5319  2.5752 -1.2140
    9MOL   H177 2753   1.589   0.219   7.604  1.2655  1.0258 -1.3224
    9MOL   C178 2754   1.486   0.274   7.792 -0.1410 -1.1932  0.3731
    9MOL   C179 2755   1.492   0.374   7.908  0.0690 -0.5615  0.1954
    9MOL   C180 2756   1.370   0.411   7.967  0.5523  0.1715  0.9438
    9MOL  Cl181 2757   1.216   0.362   7.906  0.1539 -0.1077 -0.1068
    9MOL   C182 2758   1.376   0.486   8.085  0.3487 -0.4997 -0.7413
    9MOL   C183 2759   1.499   0.533   8.144 -0.4921 -0.2127  0.6536
    9MOL   C184 2760   1.618   0.499   8.080 -0.2129 -0.6299 -0.4162
    9MOL   C185 2761   1.613   0.425   7.960 -0.4177 -0.0380 -0.6185
    9MOL   C186 2762   1.499   0.129   7.849  0.0057  0.1631 -0.0139
    9MOL   H187 2763   1.386   0.272   7.749 -0.4720 -0.0550  1.0775
    9MOL   H188 2764   1.290   0.510   8.145  1.4186  0.0065  0.5979
    9MOL   H189 2765   1.501   0.594   8.234  0.3040 -0.7461  1.0033
    9MOL   H190 2766   1.720   0.509   8.115  0.3904 -3.0886 -1.4024
    9MOL   H191 2767   1.710   0.403   7.918 -0.0212  1.8068 -0.7475
    9MOL   H192 2768   1.442   0.126   7.941  0.5261  0.1422  0.3117
    9MOL   H193 2769   1.604   0.111   7.876 -0.7193 -0.1338  2.7908
    9MOL   C194 2770   1.447   0.016   7.762 -0.6419  0.2457 -0.1373
    9MOL   C195 2771   1.299   0.011   7.759 -0.6266  0.1903  0.2832
    9MOL   C196 2772   1.220   0.046   7.645  0.2157 -0.5852 -0.2327
    9MOL  Cl197 2773   1.292   0.103   7.493 -0.2017 -0.0899  0.4861
    9MOL   C198 2774   1.079   0.035   7.647  0.2413  0.4065  0.7092
    9MOL   C199 2775   1.013   8.412   7.767  1.0579 -0.3389 -0.2374
    9MOL   C200 2776   1.094   8.366   7.878  0.8711  0.3044  0.9977
    9MOL   C201 2777   1.228   8.375   7.871 -0.0708 -0.4008  0.0782
    9MOL   C202 2778   1.505   8.303   7.809 -0.4898 -0.3649  0.3859
    9MOL   H203 2779   1.479   0.025   7.658  1.7042 -1.8988  0.3321
    9MOL   H204 2780   1.017   0.065   7.564 -1.6950 -1.0755  1.5722
    9MOL   H205 2781   0.906   8.407   7.782  1.1035  1.3523  0.7168
    9MOL   H206 2782   1.061   8.327   7.973  0.3083  1.3140  1.2203
    9MOL   H207 2783   1.273   8.329   7.958  0.8249 -1.1771 -0.7970
    9MOL   H208 2784   1.448   8.222   7.762  0.3494 -0.4392 -0.5101
    9MOL   H209 2785   1.485   8.280   7.913 -0.6882 -0.8951  0.2369
    9MOL   C210 2786   1.657   8.273   7.776 -0.6538  0.5105 -0.6712
    9MOL   C211 2787   1.690   8.277   7.627  0.3526 -0.6692 -0.0032
    9MOL   C212 2788   1.800   8.353   7.578 -0.0815 -0.2010 -0.0646
    9MOL  Cl213 2789   1.898   0.036   7.675 -0.3802 -0.3367  0.0484
    9MOL   C214 2790   1.826   8.372   7.440 -0.1984  0.4666 -0.2248
    9MOL   C215 2791   1.739   8.313   7.349 -0.3692  0.1496  0.2407
    9MOL   C216 2792   1.626   8.248   7.394  0.5213  0.3835 -0.2953
    9MOL   C217 2793   1.602   8.227   7.530  0.5569 -0.4520 -0.3108
    9MOL   C218 2794   1.700   8.131   7.829 -0.0970 -0.9593  0.0023
    9MOL   H219 2795   1.727   8.343   7.820 -1.3931  2.5150 -2.5745
    9MOL   H220 2796   1.912   0.008   7.407 -0.3658  1.2137  0.6011
    9MOL   H221 2797   1.763   8.316   7.243  2.7231  0.4085  0.8822
    9MOL   H222 2798   1.562   8.206   7.318 -1.8439  1.1837  1.2101
    9MOL   H223 2799   1.511   8.178   7.562 -0.9506  1.5419 -1.4830
    9MOL   H224 2800   1.797   8.105   7.787 -0.2537 -0.7113 -0.5160
    9MOL   H225 2801   1.634   8.055   7.787 -0.8992  0.2177 -0.9088
    9MOL   C226 2802   1.699   8.108   7.978 -0.2899 -0.9301  0.5616
    9MOL   C227 2803   1.799   8.197   8.060  0.2996 -0.2767  0.0258
    9MOL   C228 2804   1.774   8.235   8.191 -0.3598  0.0201 -0.5471
    9MOL  Cl229 2805   1.620   8.189   8.266 -0.6592 -0.3989 -0.2111
    9MOL   C230 2806   1.865   8.319   8.258 -0.3196  0.3781  0.3505
    9MOL   C231 2807   1.979   8.372   8.197 -0.3731  0.2405 -1.1352
    9MOL   C232 2808   2.007   8.339   8.066  0.7281 -0.1238 -0.0138
    9MOL   C233 2809   1.919   8.243   7.999  0.3227 -0.2441 -0.5901
    9MOL   C234 2810   1.716   7.963   8.021  0.4617 -0.0561  0.5746
    9MOL   H235 2811   1.596   8.126   8.009  0.0352  0.0802  1.0878
    9MOL   H236 2812   1.844   8.351   8.360 -1.0677 -0.9255  0.6146
    9MOL   H237 2813   2.047   0.018   8.249 -0.5931 -1.1284  0.9425
    9MOL   H238 2814   2.099   8.373   8.021 -0.7043  2.2616 -1.2489
    9MOL   H239 2815   1.935   8.222   7.894  0.2820  1.8258 -1.0334
    9MOL   H240 2816   1.714   7.969   8.130 -1.1382 -0.1318  0.5730
    9MOL   H241 2817   1.810   7.937   7.975 -0.2962 -0.7763 -0.5870
    9MOL   C242 2818   1.602   7.857   7.985 -0.4965  0.3269 -0.8362
    9MOL   C243 2819   1.459   7.911   7.983  0.3940  0.0279 -0.4557
    9MOL   C244 2820   1.386   7.935   7.864 -0.0520  0.2797  0.5071
    9MOL  Cl245 2821   1.453   7.874   7.712 -0.1968  0.2855 -0.2956
    9MOL   C246 2822   1.264   8.002   7.864 -0.2111 -0.7056  0.0212
    9MOL   C247 2823   1.194   8.042   7.980 -0.3829 -0.2797  0.4358
    9MOL   C248 2824   1.262   8.012   8.103  0.4875 -0.3891  0.5133
    9MOL   C249 2825   1.392   7.945   8.104  0.1435 -0.7222 -0.0852
    9MOL   C250 2826   1.614   7.728   8.073  0.3652 -0.0814 -0.2769
    9MOL   H251 2827   1.632   7.819   7.887  0.6518 -0.6282 -0.1331
    9MOL   H252 2828   1.216   8.019   7.769 -1.7967  2.5019  1.3178
    9MOL   H253 2829   1.093   8.076   7.965 -0.6226 -1.0048  0.3769
    9MOL   H254 2830   1.207   8.035   8.193  1.1287 -0.0953  0.8318
    9MOL   H255 2831   1.428   7.933   8.205 -0.2291  1.2373  0.2986
    9MOL   H256 2832   1.583   7.754   8.174  0.5681  1.9583 -0.7209
    9MOL   H257 2833   1.722   7.715   8.066  0.4476  0.9590 -1.0946
    9MOL   C258 2834   1.535   7.611   8.015 -0.6682  0.1194 -0.2598
    9MOL   C259 2835   1.447   7.545   8.124  0.8308 -0.4229 -0.0624
    9MOL   C260 2836   1.305   7.562   8.128  0.4736 -0.0945  0.8592
    9MOL  Cl261 2837   1.216   7.664   8.022  0.3307  0.1192  0.1391
    9MOL   C262 2838   1.233   7.482   8.217  0.8898 -0.4545 -0.0035
    9MOL   C263 2839   1.297   7.401   8.307  0.3132  0.5056 -0.2630
    9MOL   C264 2840   1.439   7.395   8.310  0.9505  0.3991 -0.6655
    9MOL   C265 2841   1.512   7.472   8.225 -0.0486  0.1640  0.1170
    9MOL   C266 2842   1.627   7.514   7.927 -0.3186 -0.6233 -0.7836
    9MOL   H267 2843   1.464   7.654   7.944  0.7177  2.8911 -0.0455
    9MOL   H268 2844   1.125   7.488   8.218  0.9281  0.2235  0.5929
    9MOL   H269 2845   1.236   7.337   8.369  1.5116 -0.3521  0.0349
    9MOL   H270 2846   1.492   7.336   8.384  0.2706 -0.6238 -0.9842
    9MOL   H271 2847   1.618   7.458   8.240 -0.2348 -0.8931  0.4827
    9MOL   H272 2848   1.665   7.435   7.992  1.2204  1.0137  0.3564
    9MOL   H273 2849   1.715   7.565   7.889 -0.3503  0.4582  0.5174
    9MOL   C274 2850   1.558   7.467   7.799  0.2875  0.4440 -1.0803
    9MOL   C275 2851   1.432   7.383   7.835 -0.0468 -0.7135 -0.6366
    9MOL   C276 2852   1.301   7.419   7.789 -0.2806 -0.3414 -0.1751
    9MOL  Cl277 2853   1.270   7.553   7.681 -0.1581 -0.1803 -0.9375
    9MOL   C278 2854   1.190   7.347   7.838 -0.5020 -0.0861 -0.6338
    9MOL   C279 2855   1.205   7.241   7.922  0.2310  0.4503 -0.4603
    9MOL   C280 2856   1.332   7.203   7.966 -0.6257  1.1081  0.6755
    9MOL   C281 2857   1.448   7.267   7.917  0.0928  0.7107 -0.2470
    9MOL   C282 2858   1.659   7.380   7.718  0.3350  0.0285  0.3141
    9MOL   H283 2859   1.531   7.561   7.752  0.8386  0.2028 -1.9001
    9MOL   H284 2860   1.094   7.388   7.809  0.1130  2.2769  0.5345
    9MOL   H285 2861   1.116   7.200   7.969  0.2885  0.3447 -0.4438
    9MOL   H286 2862   1.346   7.118   8.032  2.5867  1.2064  0.1695
    9MOL   H287 2863   1.539   7.239   7.967  1.2388  1.8504 -1.6399
    9MOL   H288 2864   1.607   7.306   7.657 -1.0265 -0.0108  1.4930
    9MOL   H289 2865   1.725   7.332   7.790  0.2386  1.9595  1.7301
    9MOL   C290 2866   1.753   7.460   7.625  0.1748 -0.3403  0.3186
    9MOL   C291 2867   1.671   7.549   7.524  0.0765 -0.2478 -0.0414
    9MOL   C292 2868   1.678   7.689   7.524 -0.2111 -0.7432 -0.4414
    9MOL  Cl293 2869   1.766   7.783   7.631 -0.3602 -0.1509  0.1844
    9MOL   C294 2870   1.604   7.758   7.428 -0.2844 -0.1603 -0.2906
    9MOL   C295 2871   1.529   7.693   7.328 -0.1314  0.4656 -0.0698
    9MOL   C296 2872   1.531   7.550   7.318 -0.3254 -0.2826 -0.1646
    9MOL   C297 2873   1.591   7.478   7.427 -0.3245  0.0439  0.5111
    9MOL   C298 2874   1.849   7.365   7.553  0.3761 -0.6516  0.4548
    9MOL   H299 2875   1.810   7.523   7.694  0.6012 -2.6317  2.1404
    9MOL   H300 2876   1.590   7.865   7.430  0.5544 -0.0552  1.2847
    9MOL   H301 2877   1.493   7.763   7.255  0.6128  1.5414  0.5798
    9MOL   H302 2878   1.473   7.495   7.245  0.0731  3.3023 -3.3344
    9MOL   H303 2879   1.596   7.371   7.421 -0.8577  0.1928 -3.5038
    9MOL   H304 2880   1.793   7.277   7.523 -3.3334  2.2470 -1.5640
    9MOL   H305 2881   1.915   7.324   7.630  2.1908  0.8981 -0.2156
    9MOL   C306 2882   1.952   7.414   7.448  0.1646 -0.3913 -0.0826
    9MOL   C307 2883   2.042   7.300   7.404 -0.4177 -0.4159 -0.2545
    9MOL   C308 2884   2.001   7.206   7.309 -0.3001 -0.3468  0.4425
    9MOL  Cl309 2885   1.840   7.211   7.243  0.2919 -0.3576 -0.1210
    9MOL   C310 2886   2.086   7.102   7.265 -0.1887  0.1298  0.1308
    9MOL   C311 2887   2.218   7.094   7.314 -0.0894 -0.3787 -0.0975
    9MOL   C312 2888   2.260   7.189   7.408 -0.1082  0.2573 -0.2968
    9MOL   C313 2889   2.175   7.290   7.449 -0.3735 -0.2891  0.0024
    9MOL   C314 2890   2.038   7.542   7.480  0.4586  0.4027  0.7969
    9MOL   H315 2891   1.906   7.444   7.354  1.8539 -0.7593 -1.0347
    9MOL   H316 2892   2.049   7.044   7.182 -1.5432  1.9762 -0.5928
    9MOL   H317 2893   2.280   7.019   7.268  0.8509  0.7807 -0.7462
    9MOL   H318 2894   2.360   7.181   7.450  0.4234  1.0860 -1.3711
    9MOL   H319 2895   2.209   7.368   7.516  1.8567 -0.4122 -0.9444
    9MOL   H320 2896   1.975   7.631   7.472  0.9641  0.8854  2.1323
    9MOL   H321 2897   2.117   7.557   7.406 -0.5676 -0.2081 -0.4591
    9MOL   H322 2898   2.073   7.543   7.583 -0.4064  0.9073  1.0952
   10MOL     C1 2899   4.468   4.688   5.131  0.6006  0.1638  0.0020
   10MOL     C2 2900   4.401   4.815   5.077 -0.2976  0.1803  0.2202
   10MOL     C3 2901   4.289   4.874   5.129  0.3708  0.0639 -0.4241
   10MOL    Cl4 2902   4.207   4.808   5.264 -0.0247  0.0717 -0.1133
   10MOL     C5 2903   4.233   4.991   5.074 -0.3530  0.0743 -1.1203
   10MOL     C6 2904   4.290   5.044   4.957 -0.1340  0.0069  0.5613
   10MOL     C7 2905   4.401   4.981   4.895  0.0843 -0.0251 -0.0720
   10MOL     C8 2906   4.461   4.871   4.965 -0.2328  0.5613  0.1898
   10MOL     C9 2907   4.588   4.702   5.223  0.3566  0.1300 -0.0430
   10MOL    H10 2908   4.397   4.630   5.190  0.8235  0.7078  0.8168
   10MOL    H11 2909   4.138   5.032   5.103 -0.3388 -1.0255  0.5166
   10MOL    H12 2910   4.243   5.134   4.920  0.2001  0.7389  1.8787
   10MOL    H13 2911   4.448   5.014   4.803  0.7708 -0.8541 -0.0348
   10MOL    H14 2912   4.555   4.830   4.931 -1.4678 -3.0253  0.7745
   10MOL    H15 2913   4.569   4.781   5.296 -1.8706  0.9898 -1.4668
   10MOL    H16 2914   4.670   4.745   5.166  0.8067 -1.9007 -0.9476
   10MOL    H17 2915   4.497   4.625   5.047  1.5057  0.0797  0.3656
   10MOL    C18 2916   4.632   4.570   5.299  1.0107 -0.4820  0.0449
   10MOL    C19 2917   4.703   4.590   5.435  0.3686 -0.0709  0.2816
   10MOL    C20 2918   4.821   4.669   5.448  0.0390 -0.6206 -0.2705
   10MOL   Cl21 2919   4.896   4.721   5.308 -0.4672  0.0490  0.4339
   10MOL    C22 2920   4.885   4.679   5.571 -1.0024  0.8868 -0.2446
   10MOL    C23 2921   4.826   4.625   5.684  0.8043  0.1968 -0.0354
   10MOL    C24 2922   4.700   4.565   5.676  0.8424 -0.3797 -0.2730
   10MOL    C25 2923   4.635   4.546   5.553  0.3100 -0.6270 -0.8803
   10MOL    C26 2924   4.712   4.468   5.213  0.1358  0.6709  0.0623
   10MOL    H27 2925   4.539   4.518   5.323  2.1958 -2.0463  1.4047
   10MOL    H28 2926   4.971   4.743   5.585 -0.8831  0.5873  0.3783
   10MOL    H29 2927   4.876   4.637   5.779  1.8893 -2.2387 -0.2602
   10MOL    H30 2928   4.661   4.519   5.765  0.2509  3.4163  1.5308
   10MOL    H31 2929   4.539   4.498   5.543  0.2358 -0.2735 -1.9577
   10MOL    H32 2930   4.775   4.413   5.283 -2.9372 -1.5153  1.2287
   10MOL    H33 2931   4.783   4.527   5.155  1.6155 -0.9980  0.1578
   10MOL    C34 2932   4.627   4.364   5.129  0.1921  0.6273 -0.0438
   10MOL    C35 2933   4.525   4.283   5.208  0.5164 -0.4853 -0.5094
   10MOL    C36 2934   4.397   4.251   5.152 -0.7475 -0.2599  0.2521
   10MOL   Cl37 2935   4.352   4.297   4.988  0.0321  0.3464 -0.1869
   10MOL    C38 2936   4.302   4.188   5.238 -0.0239  0.1970  1.2749
   10MOL    C39 2937   4.335   4.160   5.372  0.5554  0.2491  0.1121
   10MOL    C40 2938   4.455   4.192   5.421  0.1944  0.0226 -0.2397
   10MOL    C41 2939   4.550   4.254   5.344  0.1553 -0.2310  0.8023
   10MOL    C42 2940   4.730   4.273   5.054  0.2296 -0.2874 -0.3887
   10MOL    H43 2941   4.560   4.418   5.062 -0.6135  0.0695  0.3227
   10MOL    H44 2942   4.200   4.166   5.210  0.3417 -0.0042  0.0975
   10MOL    H45 2943   4.275   4.103   5.442  0.3824  2.0090  1.4295
   10MOL    H46 2944   4.474   4.174   5.526 -0.2278  3.0978  0.4136
   10MOL    H47 2945   4.632   4.290   5.403 -0.6650  0.9599  1.2266
   10MOL    H48 2946   4.674   4.188   5.014 -2.2425  2.6525 -3.5221
   10MOL    H49 2947   4.805   4.231   5.120 -0.4229  1.7125  1.6827
   10MOL    C50 2948   4.808   4.328   4.932  0.1350  0.5233  0.5057
   10MOL    C51 2949   4.715   4.409   4.840  0.4440 -0.0366  0.3371
   10MOL    C52 2950   4.724   4.551   4.833 -0.2052  0.8566 -0.1273
   10MOL   Cl53 2951   4.840   4.656   4.913 -0.4057  0.0325 -0.2281
   10MOL    C54 2952   4.638   4.618   4.745 -0.5009 -1.1972  0.0468
   10MOL    C55 2953   4.556   4.546   4.656  0.2144  0.1393 -0.0355
   10MOL    C56 2954   4.546   4.408   4.671 -0.0243  0.2535  0.4078
   10MOL    C57 2955   4.623   4.335   4.761  0.0534  0.0866 -0.5521
   10MOL    C58 2956   4.882   4.218   4.857  0.8601  0.7389 -0.1003
   10MOL    H59 2957   4.882   4.388   4.986  0.0806  0.9100  0.1473
   10MOL    H60 2958   4.654   4.725   4.739  2.1427 -1.5740  0.1784
   10MOL    H61 2959   4.490   4.599   4.590  0.7588  0.2111 -0.5308
   10MOL    H62 2960   4.484   4.348   4.607  1.6586  1.0184 -1.9902
   10MOL    H63 2961   4.615   4.228   4.761  0.5262  0.0361  0.9389
   10MOL    H64 2962   4.812   4.142   4.821  2.2732 -0.6517 -0.0038
   10MOL    H65 2963   4.948   4.159   4.921 -0.1654 -2.4838 -1.8759
   10MOL    C66 2964   4.973   4.256   4.738  0.2474 -1.0198  0.0542
   10MOL    C67 2965   4.896   4.302   4.612  0.0962  0.1115 -0.2900
   10MOL    C68 2966   4.905   4.439   4.564 -0.2316  0.3275 -0.1993
   10MOL   Cl69 2967   5.001   4.561   4.634 -0.5395 -0.1464 -0.1795
   10MOL    C70 2968   4.835   4.471   4.448  0.2139  0.5665 -0.3709
   10MOL    C71 2969   4.752   4.380   4.381  0.3067  0.2741  0.1043
   10MOL    C72 2970   4.738   4.249   4.430  0.1230 -0.7867 -0.7845
   10MOL    C73 2971   4.813   4.210   4.543  0.0283 -0.1993 -0.5465
   10MOL    C74 2972   5.070   4.141   4.708 -0.3635 -0.2215  0.0128
   10MOL    H75 2973   5.029   4.342   4.775 -0.8082 -1.1720  2.1155
   10MOL    H76 2974   4.848   4.576   4.422 -0.5279  0.7336 -0.0944
   10MOL    H77 2975   4.689   4.415   4.301  0.5777 -0.9171 -0.6444
   10MOL    H78 2976   4.667   4.180   4.387 -2.8018  3.1383 -2.5725
   10MOL    H79 2977   4.801   4.110   4.581 -1.3008  0.3023  0.3717
   10MOL    H80 2978   5.021   4.044   4.698  0.0215 -0.1911 -2.4378
   10MOL    H81 2979   5.142   4.132   4.789  2.0953  1.9248 -1.8328
   10MOL    C82 2980   5.155   4.146   4.573 -1.0930 -1.4845  0.2866
   10MOL    C83 2981   5.240   4.025   4.557  0.0576 -0.8391 -0.5520
   10MOL    C84 2982   5.205   3.914   4.476 -0.6821 -0.1910  0.9580
   10MOL   Cl85 2983   5.073   3.916   4.363 -0.1348  0.2828  0.1510
   10MOL    C86 2984   5.284   3.799   4.479 -0.8120 -1.0813 -0.4309
   10MOL    C87 2985   5.398   3.794   4.556 -0.2519  0.8143  0.2946
   10MOL    C88 2986   5.441   3.902   4.639  0.2102  0.5670  0.7410
   10MOL    C89 2987   5.354   4.012   4.645  0.1050  0.5440 -0.0880
   10MOL    C90 2988   5.234   4.279   4.563 -0.4024 -0.4376  0.1988
   10MOL    H91 2989   5.091   4.150   4.485 -3.0880 -0.5083  1.7425
   10MOL    H92 2990   5.262   3.718   4.412  1.5281 -0.2859 -2.2191
   10MOL    H93 2991   5.447   3.699   4.542 -0.6606  0.5443  0.6774
   10MOL    H94 2992   5.517   3.887   4.714  3.2290  0.3877 -2.2334
   10MOL    H95 2993   5.365   4.096   4.711  0.3915 -0.5345  1.2473
   10MOL    H96 2994   5.293   4.285   4.654 -0.8837 -1.0486  0.5587
   10MOL    H97 2995   5.157   4.355   4.584 -0.8108 -0.7021 -0.3213
   10MOL    C98 2996   5.319   4.298   4.437  0.0238 -0.1155  0.0344
   10MOL    C99 2997   5.367   4.442   4.422  0.5951  0.1068 -0.2942
   10MOL   C100 2998   5.506   4.482   4.425  0.4957  0.4749  0.3689
   10MOL  Cl101 2999   5.628   4.366   4.447  0.0089  0.0602  0.2058
   10MOL   C102 3000   5.543   4.620   4.413  0.5342 -0.4672 -0.8994
   10MOL   C103 3001   5.446   4.720   4.409 -0.2716 -0.6430  0.1344
   10MOL   C104 3002   5.307   4.685   4.392 -0.0560  0.2557 -0.2686
   10MOL   C105 3003   5.267   4.545   4.405 -0.5273  0.3902 -0.7552
   10MOL   C106 3004   5.241   4.259   4.307  0.4669  0.2160  0.3284
   10MOL   H107 3005   5.410   4.240   4.452 -0.8988 -1.8362 -0.8410
   10MOL   H108 3006   5.646   4.641   4.391  1.0041 -0.7475  0.9744
   10MOL   H109 3007   5.480   4.821   4.391  1.5029 -1.0628  1.0479
   10MOL   H110 3008   5.240   4.769   4.384 -0.4318  0.0711  0.8098
   10MOL   H111 3009   5.161   4.523   4.403 -0.0382 -2.1300 -0.4627
   10MOL   H112 3010   5.145   4.308   4.298  0.4655  0.0720 -0.4582
   10MOL   H113 3011   5.217   4.153   4.310  1.4961 -0.0780 -0.8395
   10MOL   C114 3012   5.320   4.283   4.173  0.1434  0.5268 -0.0456
   10MOL   C115 3013   5.297   4.415   4.105 -0.0653 -0.0759 -0.6686
   10MOL   C116 3014   5.405   4.500   4.066 -0.0560  0.3366 -0.1550
   10MOL  Cl117 3015   5.568   4.466   4.108 -0.0589  0.3481  0.4049
   10MOL   C118 3016   5.378   4.621   4.006 -0.1926 -0.3069  0.8426
   10MOL   C119 3017   5.247   4.661   3.975  0.3498 -0.1981  0.5127
   10MOL   C120 3018   5.141   4.576   4.000 -0.4019  0.1642 -0.5526
   10MOL   C121 3019   5.165   4.450   4.067  0.0406 -0.2191 -0.2760
   10MOL   C122 3020   5.305   4.161   4.079 -0.3331  0.1039  0.7418
   10MOL   H123 3021   5.427   4.279   4.192  0.1296 -2.8072 -0.2302
   10MOL   H124 3022   5.462   4.686   3.987 -0.0538 -0.3722  1.2255
   10MOL   H125 3023   5.227   4.757   3.929 -1.9521 -1.3904 -1.1006
   10MOL   H126 3024   5.040   4.603   3.973 -0.4705  0.8723  0.3807
   10MOL   H127 3025   5.095   4.376   4.100  1.2767 -1.5659 -0.6290
   10MOL   H128 3026   5.204   4.129   4.054 -0.2639 -1.9866  3.0360
   10MOL   H129 3027   5.354   4.079   4.130 -3.8829 -1.7663  1.2987
   10MOL   C130 3028   5.396   4.168   3.952  0.2033 -0.6857  0.6745
   10MOL   C131 3029   5.341   4.259   3.835  0.0110  0.3545  0.5133
   10MOL   C132 3030   5.430   4.341   3.762  0.7468 -0.5368 -0.1400
   10MOL  Cl133 3031   5.598   4.336   3.794 -0.1404  0.2178 -0.0152
   10MOL   C134 3032   5.381   4.427   3.659 -0.0338 -0.3283 -0.0673
   10MOL   C135 3033   5.242   4.442   3.640 -0.3187  0.2418 -0.0272
   10MOL   C136 3034   5.155   4.352   3.708  0.3289  0.5264  1.0116
   10MOL   C137 3035   5.203   4.260   3.802  0.2074 -0.6881  0.0474
   10MOL   C138 3036   5.445   4.026   3.899  0.4830  0.5782  0.0743
   10MOL   H139 3037   5.489   4.219   3.975  1.2754 -1.9364 -0.7825
   10MOL   H140 3038   5.444   4.479   3.588  1.8750 -1.1944  0.9304
   10MOL   H141 3039   5.203   4.510   3.565  0.6577  1.5443  0.6181
   10MOL   H142 3040   5.048   4.355   3.697  0.3926 -0.3562  0.0861
   10MOL   H143 3041   5.128   4.221   3.869 -0.5352 -0.1456 -0.4578
   10MOL   H144 3042   5.477   4.033   3.795  1.2648 -2.3602  0.0729
   10MOL   H145 3043   5.358   3.961   3.896  2.3570 -2.1274  1.6031
   10MOL   C146 3044   5.557   3.947   3.985  0.3033  0.0675 -1.5463
   10MOL   C147 3045   5.675   4.037   4.030 -0.0481 -0.0093  0.5180
   10MOL   C148 3046   5.697   4.077   4.162  0.3708 -0.4872  0.1747
   10MOL  Cl149 3047   5.590   4.032   4.286 -0.4916  0.4322  0.4346
   10MOL   C150 3048   5.807   4.161   4.188  0.3895  0.4827  0.0873
   10MOL   C151 3049   5.893   4.207   4.086 -0.4565 -0.2488  0.3104
   10MOL   C152 3050   5.860   4.175   3.955 -1.2118 -0.3022 -0.2614
   10MOL   C153 3051   5.753   4.089   3.925  0.2114 -0.1940 -0.7337
   10MOL   C154 3052   5.606   3.813   3.922  0.1091  0.1742  0.0262
   10MOL   H155 3053   5.511   3.907   4.075 -0.7514  2.3273 -1.0409
   10MOL   H156 3054   5.814   4.184   4.293  1.2888  1.0197 -0.0797
   10MOL   H157 3055   5.964   4.286   4.107 -1.1487  0.5075 -0.1519
   10MOL   H158 3056   5.913   4.219   3.872 -0.2039 -0.8833  0.0556
   10MOL   H159 3057   5.724   4.080   3.822  1.0293 -1.5602 -0.8566
   10MOL   H160 3058   5.690   3.763   3.970 -0.9560 -2.6283 -0.9681
   10MOL   H161 3059   5.643   3.832   3.821  4.1176 -1.4118  1.0788
   10MOL   C162 3060   5.488   3.719   3.905  0.1264  0.1757 -0.6638
   10MOL   C163 3061   5.527   3.580   3.955 -0.6674 -0.3222  0.0120
   10MOL   C164 3062   5.492   3.526   4.081 -0.2332  0.0414  0.4695
   10MOL  Cl165 3063   5.383   3.612   4.188  0.0546 -0.0316 -0.6632
   10MOL   C166 3064   5.535   3.397   4.123 -0.3147 -0.6350 -0.7026
   10MOL   C167 3065   5.602   3.311   4.037 -0.0346 -0.0672  0.1016
   10MOL   C168 3066   5.640   3.360   3.910  0.7008 -0.1606 -0.2411
   10MOL   C169 3067   5.605   3.491   3.870  0.0321  0.0985  0.5146
   10MOL   C170 3068   5.441   3.716   3.756 -0.3100 -0.1029  0.0993
   10MOL   H171 3069   5.407   3.771   3.956  0.7423  0.4947 -0.0022
   10MOL   H172 3070   5.519   3.363   4.225  1.8280  1.2496  0.2992
   10MOL   H173 3071   5.635   3.217   4.079 -0.3133  1.0871  3.0078
   10MOL   H174 3072   5.698   3.289   3.853  2.5383  1.1266 -0.0335
   10MOL   H175 3073   5.631   3.515   3.768  2.3613  0.2459  1.1247
   10MOL   H176 3074   5.525   3.686   3.693  0.6266  2.2852  0.1617
   10MOL   H177 3075   5.427   3.810   3.703  1.2146 -0.2063 -0.5043
   10MOL   C178 3076   5.308   3.639   3.731 -0.5078  0.1079 -0.6798
   10MOL   C179 3077   5.339   3.503   3.671 -0.0036 -0.3655 -0.1133
   10MOL   C180 3078   5.298   3.382   3.728 -0.1506 -0.1691 -0.0456
   10MOL  Cl181 3079   5.194   3.386   3.868 -0.2700  0.0866 -0.1416
   10MOL   C182 3080   5.340   3.260   3.665 -0.7962  0.2821  0.1836
   10MOL   C183 3081   5.412   3.258   3.541  0.0156  0.1482 -0.1122
   10MOL   C184 3082   5.441   3.381   3.478 -0.0617 -0.0682  0.1082
   10MOL   C185 3083   5.402   3.501   3.544 -0.5592 -0.1897 -0.2903
   10MOL   C186 3084   5.222   3.702   3.622 -0.3442 -0.3427 -0.2977
   10MOL   H187 3085   5.258   3.631   3.828 -1.1713  0.1660 -1.0154
   10MOL   H188 3086   5.314   3.165   3.710  1.1230 -0.5187 -0.3765
   10MOL   H189 3087   5.450   3.163   3.508 -1.2218 -0.8336  1.2215
   10MOL   H190 3088   5.499   3.381   3.387  0.5673  0.8247  0.5045
   10MOL   H191 3089   5.419   3.589   3.484  0.9033 -1.0578 -1.1823
   10MOL   H192 3090   5.175   3.632   3.553  0.8743 -3.4615  1.8645
   10MOL   H193 3091   5.291   3.758   3.559 -0.7669  0.0622 -0.3969
   10MOL   C194 3092   5.112   3.799   3.680 -0.1855  0.4173 -0.0239
   10MOL   C195 3093   5.011   3.719   3.766  1.0383  0.3502  0.0511
   10MOL   C196 3094   4.992   3.742   3.902  0.9535  0.4594 -0.6707
   10MOL  Cl197 3095   5.078   3.861   3.995  0.4166 -0.4231  0.0466
   10MOL   C198 3096   4.887   3.678   3.968  0.2085  0.1469  0.0033
   10MOL   C199 3097   4.802   3.587   3.902  0.9993 -0.0482  0.7088
   10MOL   C200 3098   4.814   3.563   3.765  0.5659  0.3555 -0.1218
   10MOL   C201 3099   4.921   3.628   3.701 -0.0519  1.2719  0.5431
   10MOL   C202 3100   5.054   3.879   3.561 -0.2447  0.0525 -0.0628
   10MOL   H203 3101   5.161   3.870   3.747  1.2967  0.4731 -1.1488
   10MOL   H204 3102   4.868   3.701   4.072 -0.3003  2.2321 -0.5244
   10MOL   H205 3103   4.719   3.542   3.954  0.3669 -1.6852 -1.6479
   10MOL   H206 3104   4.741   3.499   3.719  2.2095 -2.7897  1.4930
   10MOL   H207 3105   4.934   3.614   3.595 -0.8834 -0.4539  0.6480
   10MOL   H208 3106   5.054   3.808   3.479  3.0565 -0.0866 -0.0223
   10MOL   H209 3107   5.128   3.956   3.538 -0.3263 -0.2773 -1.4784
   10MOL   C210 3108   4.914   3.948   3.587 -0.2915 -0.0764 -0.2007
   10MOL   C211 3109   4.861   4.012   3.456 -0.2482  0.4076 -0.1087
   10MOL   C212 3110   4.768   3.940   3.373 -0.2143 -0.1246 -0.2648
   10MOL  Cl213 3111   4.709   3.777   3.411 -0.1689  0.6432  0.1062
   10MOL   C214 3112   4.714   4.006   3.261 -0.2742 -0.1021 -0.0545
   10MOL   C215 3113   4.753   4.137   3.235 -0.2448 -0.3253 -1.1610
   10MOL   C216 3114   4.851   4.199   3.307 -0.4708 -0.2397 -0.3715
   10MOL   C217 3115   4.908   4.139   3.421  0.0094  0.5217 -0.4922
   10MOL   C218 3116   4.908   4.049   3.710 -0.1519 -0.4349 -0.2499
   10MOL   H219 3117   4.854   3.863   3.621 -0.4842  0.0087 -0.3224
   10MOL   H220 3118   4.631   3.958   3.212 -0.2256  0.4653 -0.6880
   10MOL   H221 3119   4.714   4.192   3.150 -1.4335  3.4013  1.6610
   10MOL   H222 3120   4.884   4.293   3.267 -0.7723 -0.6313 -1.5388
   10MOL   H223 3121   4.967   4.202   3.486 -0.4562  1.2777 -0.8013
   10MOL   H224 3122   4.989   4.121   3.707  1.6514 -2.3625  0.8008
   10MOL   H225 3123   4.932   3.992   3.799 -1.0824 -0.4117  0.0226
   10MOL   C226 3124   4.773   4.112   3.738  0.9234 -0.2684 -0.1972
   10MOL   C227 3125   4.790   4.219   3.840 -0.5153  0.1430  0.4373
   10MOL   C228 3126   4.755   4.358   3.822  0.3019  0.9247 -0.1173
   10MOL  Cl229 3127   4.666   4.412   3.679 -0.5097 -0.2378  0.0234
   10MOL   C230 3128   4.776   4.457   3.921 -0.2345 -0.1437  0.1625
   10MOL   C231 3129   4.822   4.414   4.048 -0.4252  0.0216 -0.2429
   10MOL   C232 3130   4.847   4.272   4.072 -0.4249 -1.1737 -0.1993
   10MOL   C233 3131   4.830   4.178   3.969 -0.3911 -0.3264  0.1707
   10MOL   C234 3132   4.675   3.998   3.772  0.0127 -0.3182 -0.7870
   10MOL   H235 3133   4.739   4.168   3.650 -0.7051 -0.6848  0.1504
   10MOL   H236 3134   4.751   4.557   3.891  1.3831  0.1239 -0.3617
   10MOL   H237 3135   4.829   4.482   4.132 -2.7961 -0.3998  0.3072
   10MOL   H238 3136   4.873   4.245   4.173 -0.3617  0.8770  0.3372
   10MOL   H239 3137   4.851   4.073   3.984 -0.8992 -0.5046 -0.3627
   10MOL   H240 3138   4.731   3.912   3.808  2.1565  0.5351 -2.0189
   10MOL   H241 3139   4.645   3.952   3.678 -1.5598 -0.1381 -0.3928
   10MOL   C242 3140   4.558   4.021   3.869 -0.2173 -0.3013 -0.2456
   10MOL   C243 3141   4.498   3.892   3.923  0.2987 -0.0199  0.0766
   10MOL   C244 3142   4.545   3.831   4.036 -0.2683  0.1914  0.3621
   10MOL  Cl245 3143   4.688   3.882   4.118 -0.0068 -0.2007 -0.3267
   10MOL   C246 3144   4.489   3.710   4.076 -0.9749  0.4366 -0.5443
   10MOL   C247 3145   4.371   3.664   4.017 -0.2811  0.0466 -0.1181
   10MOL   C248 3146   4.323   3.730   3.904 -0.2441 -0.3187  0.1844
   10MOL   C249 3147   4.392   3.839   3.853 -0.0448 -0.2873 -0.4981
   10MOL   C250 3148   4.461   4.127   3.805 -0.3697 -0.2914 -0.1568
   10MOL   H251 3149   4.589   4.063   3.965 -2.4597  0.5997  0.1181
   10MOL   H252 3150   4.534   3.652   4.156 -0.3131 -1.1028 -2.0199
   10MOL   H253 3151   4.315   3.573   4.032  0.1123  0.1383  2.1873
   10MOL   H254 3152   4.242   3.685   3.848 -0.4756  1.3964 -0.9125
   10MOL   H255 3153   4.346   3.878   3.763  0.6637  0.9743 -0.3355
   10MOL   H256 3154   4.383   4.087   3.740 -0.1515 -0.4659 -0.3114
   10MOL   H257 3155   4.509   4.190   3.731 -1.6782 -0.5297 -1.2231
   10MOL   C258 3156   4.395   4.219   3.903 -0.7606 -0.5895  0.2824
   10MOL   C259 3157   4.302   4.147   4.001 -0.5763 -0.6179  0.8880
   10MOL   C260 3158   4.322   4.149   4.136  0.2396  0.0348  0.7493
   10MOL  Cl261 3159   4.465   4.224   4.206  0.0166  0.4197  0.4237
   10MOL   C262 3160   4.233   4.092   4.225 -0.4158 -0.2371 -0.0169
   10MOL   C263 3161   4.113   4.036   4.176  0.2356 -0.5282 -0.2677
   10MOL   C264 3162   4.089   4.036   4.038  0.2469  0.4218 -0.5101
   10MOL   C265 3163   4.186   4.089   3.952  0.0607  0.7157  1.1874
   10MOL   C266 3164   4.328   4.337   3.840 -0.3992 -1.0901 -0.4597
   10MOL   H267 3165   4.478   4.249   3.967 -2.1045  0.0309  1.7671
   10MOL   H268 3166   4.256   4.082   4.330  1.1032 -1.2507 -0.4244
   10MOL   H269 3167   4.051   3.976   4.240  2.0314 -0.8943  1.2010
   10MOL   H270 3168   3.993   4.000   4.003 -1.3407  2.7449  1.2716
   10MOL   H271 3169   4.174   4.080   3.845 -0.5194 -0.9037  1.3712
   10MOL   H272 3170   4.226   4.307   3.818 -1.2550  1.5552 -0.3409
   10MOL   H273 3171   4.358   4.380   3.744 -2.2219 -0.0209 -0.5642
   10MOL   C274 3172   4.320   4.460   3.934 -0.1523 -0.0508  0.7055
   10MOL   C275 3173   4.214   4.557   3.881 -0.0931 -0.0592 -0.3482
   10MOL   C276 3174   4.081   4.545   3.919 -0.7040 -0.5935 -0.4049
   10MOL  Cl277 3175   4.018   4.424   4.019  0.1391  0.3820 -0.0568
   10MOL   C278 3176   3.986   4.627   3.864  0.9719  0.1051  0.1903
   10MOL   C279 3177   4.017   4.726   3.767 -0.0593 -0.3154 -0.0687
   10MOL   C280 3178   4.145   4.731   3.717 -0.1362  0.7315  0.0766
   10MOL   C281 3179   4.245   4.649   3.779  0.6812  0.3270  0.4263
   10MOL   C282 3180   4.445   4.531   3.970  0.3024  0.4417  0.5164
   10MOL   H283 3181   4.268   4.419   4.021 -0.0862 -0.8855  0.3594
   10MOL   H284 3182   3.882   4.619   3.895  0.4584 -0.3931 -1.5968
   10MOL   H285 3183   3.948   4.800   3.728  1.3324  0.6252 -0.8234
   10MOL   H286 3184   4.165   4.794   3.632  1.5904  1.3597  0.9245
   10MOL   H287 3185   4.347   4.667   3.748 -0.0661  0.4128 -2.0504
   10MOL   H288 3186   4.489   4.580   3.883 -1.4141  0.9630 -0.0833
   10MOL   H289 3187   4.520   4.465   4.012  1.0147  0.9071 -0.0004
   10MOL   C290 3188   4.430   4.660   4.065  0.0302  0.1061  0.6207
   10MOL   C291 3189   4.553   4.743   4.059  0.4560  0.5411 -0.4147
   10MOL   C292 3190   4.581   4.846   3.967  0.1782  0.3543 -0.2295
   10MOL  Cl293 3191   4.466   4.891   3.847 -0.2382  0.3137  0.0064
   10MOL   C294 3192   4.707   4.910   3.954 -0.7057 -0.0299 -0.5188
   10MOL   C295 3193   4.805   4.885   4.051  0.1748 -0.1257 -0.6910
   10MOL   C296 3194   4.774   4.791   4.160 -0.0167 -0.0492 -0.2047
   10MOL   C297 3195   4.653   4.720   4.159  0.5970 -0.6280 -0.1956
   10MOL   C298 3196   4.378   4.629   4.210  0.2305 -0.0962 -0.1108
   10MOL   H299 3197   4.354   4.723   4.017 -0.4998 -0.7088  0.3699
   10MOL   H300 3198   4.730   4.975   3.870  1.6823 -2.1928 -1.6448
   10MOL   H301 3199   4.904   4.925   4.038 -0.0465  0.2835 -1.1143
   10MOL   H302 3200   4.855   4.775   4.228 -1.3028  2.5550  2.0579
   10MOL   H303 3201   4.652   4.633   4.224  1.6614 -0.6948 -0.2559
   10MOL   H304 3202   4.451   4.569   4.263  1.2421 -1.0250 -2.4665
   10MOL   H305 3203   4.293   4.564   4.189  0.9214 -0.6427 -1.2725
   10MOL   C306 3204   4.326   4.746   4.301  0.4315  0.6664 -0.1378
   10MOL   C307 3205   4.280   4.693   4.440  0.3464  0.0603 -0.0817
   10MOL   C308 3206   4.263   4.790   4.543 -0.1719  0.7435  0.0054
   10MOL  Cl309 3207   4.304   4.956   4.523 -0.0121  0.3456 -0.3127
   10MOL   C310 3208   4.220   4.746   4.668  0.2387  0.2896 -0.1894
   10MOL   C311 3209   4.191   4.607   4.691 -0.0684  1.0449 -0.4175
   10MOL   C312 3210   4.208   4.515   4.587  0.7032 -0.2952 -0.1948
   10MOL   C313 3211   4.247   4.559   4.463  0.8281  0.2479 -0.7712
   10MOL   C314 3212   4.220   4.834   4.235  0.2988 -0.0941  0.3916
   10MOL   H315 3213   4.415   4.806   4.322 -0.2610  1.3309  0.8914
   10MOL   H316 3214   4.214   4.819   4.747  0.1109 -1.8682  1.8273
   10MOL   H317 3215   4.152   4.575   4.787 -1.7306 -1.9893 -2.0221
   10MOL   H318 3216   4.181   4.411   4.599 -0.4469 -0.1781 -1.6251
   10MOL   H319 3217   4.237   4.489   4.382 -0.4736 -2.4618  1.6354
   10MOL   H320 3218   4.260   4.876   4.143 -0.6946  0.4568  0.2081
   10MOL   H321 3219   4.178   4.914   4.295 -0.1358  1.6730 -2.2194
   10MOL   H322 3220   4.140   4.764   4.212  1.7595 -1.5489 -0.3712
   11MOL     C1 3221   2.651   7.834   3.451 -0.0906  0.1941 -0.1861
   11MOL     C2 3222   2.565   7.947   3.498  0.4886 -0.0559  0.0377
   11MOL     C3 3223   2.601   8.079   3.475 -0.1076 -0.1662  0.1018
   11MOL    Cl4 3224   2.736   8.122   3.382  0.1747  0.1696  0.0429
   11MOL     C5 3225   2.522   8.179   3.529  0.7019 -0.2494  0.3526
   11MOL     C6 3226   2.402   8.150   3.596  0.3551 -0.7090  0.2634
   11MOL     C7 3227   2.354   8.014   3.604 -0.2360  0.2515  0.2331
   11MOL     C8 3228   2.440   7.913   3.557  0.2301 -0.1578  0.1011
   11MOL     C9 3229   2.763   7.791   3.548 -0.4314  0.1285  0.2347
   11MOL    H10 3230   2.587   7.746   3.442  1.1088 -0.7098  0.0273
   11MOL    H11 3231   2.546   8.284   3.529 -1.7948  0.3891 -2.0632
   11MOL    H12 3232   2.331   8.229   3.619 -1.6783 -2.1127 -0.9883
   11MOL    H13 3233   2.252   7.986   3.625 -0.1160 -0.1449  0.2825
   11MOL    H14 3234   2.406   7.811   3.564 -0.3252  0.1027  1.3264
   11MOL    H15 3235   2.717   7.799   3.647  0.4702 -1.5112  0.8048
   11MOL    H16 3236   2.835   7.873   3.549  0.1067 -0.3100 -1.3738
   11MOL    H17 3237   2.691   7.845   3.351 -0.5369  0.9476 -0.2862
   11MOL    C18 3238   2.822   7.658   3.526 -1.0675  0.4194  0.1337
   11MOL    C19 3239   2.882   7.604   3.657 -0.4782 -0.4380 -0.2087
   11MOL    C20 3240   2.855   7.469   3.693  0.4733  0.1251 -0.1366
   11MOL   Cl21 3241   2.744   7.367   3.609 -0.2691 -0.3026  0.2069
   11MOL    C22 3242   2.902   7.423   3.817  0.1239 -0.1766  0.6205
   11MOL    C23 3243   2.991   7.508   3.895  0.2663  0.7692 -0.3675
   11MOL    C24 3244   3.025   7.633   3.851  0.6271  0.1211 -0.4613
   11MOL    C25 3245   2.968   7.683   3.734  0.1460 -0.3921 -0.2047
   11MOL    C26 3246   2.929   7.647   3.415  0.1138  0.4318  0.1094
   11MOL    H27 3247   2.735   7.596   3.504 -1.4378  0.2881  1.8599
   11MOL    H28 3248   2.885   7.321   3.848 -1.1880 -0.3610 -0.6586
   11MOL    H29 3249   3.034   7.468   3.986  1.4203  3.8873  0.5077
   11MOL    H30 3250   3.094   7.695   3.907  0.5684 -0.6795  0.4917
   11MOL    H31 3251   2.990   7.780   3.692  1.6992 -1.0065 -0.8424
   11MOL    H32 3252   2.961   7.542   3.421  0.7100  0.5751 -0.5852
   11MOL    H33 3253   3.017   7.701   3.452 -0.2667  1.7378 -0.8635
   11MOL    C34 3254   2.896   7.662   3.265 -0.0642 -0.3855 -0.1898
   11MOL    C35 3255   2.774   7.583   3.215  0.1374 -0.2576 -0.0459
   11MOL    C36 3256   2.670   7.644   3.143  0.8948  0.3103  0.2683
   11MOL   Cl37 3257   2.657   7.812   3.112  0.1105 -0.1988 -0.0564
   11MOL    C38 3258   2.563   7.566   3.098  0.7992  0.8730  0.0603
   11MOL    C39 3259   2.552   7.431   3.116 -0.0012  0.0581 -0.7352
   11MOL    C40 3260   2.654   7.371   3.196  0.2198  0.4776  0.1249
   11MOL    C41 3261   2.762   7.450   3.248 -0.2735  0.2125 -0.0173
   11MOL    C42 3262   3.013   7.622   3.168 -0.0880  0.7115 -0.0778
   11MOL    H43 3263   2.892   7.770   3.253 -0.2977 -0.6195 -2.3759
   11MOL    H44 3264   2.492   7.619   3.035 -0.7072  0.2220  1.1807
   11MOL    H45 3265   2.464   7.384   3.075 -2.3556  2.5170  1.3485
   11MOL    H46 3266   2.655   7.264   3.213  1.9283  0.3717 -0.5880
   11MOL    H47 3267   2.834   7.404   3.315 -0.0444  1.7481  0.8240
   11MOL    H48 3268   2.988   7.661   3.070  1.7365 -0.0209 -0.8571
   11MOL    H49 3269   3.028   7.515   3.161 -0.1974  0.7604 -1.1584
   11MOL    C50 3270   3.147   7.688   3.204  0.0386  0.2691 -0.2821
   11MOL    C51 3271   3.139   7.842   3.222  0.0787  0.5070  0.3186
   11MOL    C52 3272   3.196   7.903   3.337 -0.2285 -0.1807  0.2521
   11MOL   Cl53 3273   3.275   7.815   3.458  0.0274 -0.1480  0.0745
   11MOL    C54 3274   3.178   8.037   3.358 -0.0999  0.5751  0.0753
   11MOL    C55 3275   3.110   8.115   3.264 -0.5130 -0.6649  0.3983
   11MOL    C56 3276   3.055   8.055   3.147  0.7414  0.5048 -0.1185
   11MOL    C57 3277   3.072   7.917   3.124  0.0289  0.1097  0.0913
   11MOL    C58 3278   3.260   7.650   3.103  0.3585 -0.2280  0.6039
   11MOL    H59 3279   3.165   7.649   3.305 -0.9767  1.8325  0.5193
   11MOL    H60 3280   3.218   8.090   3.443  1.0537 -0.8458  0.4251
   11MOL    H61 3281   3.082   8.218   3.281  0.8116 -0.4437  1.3297
   11MOL    H62 3282   3.004   8.110   3.069  2.9371  1.5440 -0.8623
   11MOL    H63 3283   3.036   7.883   3.028 -2.5360  0.2803  0.9523
   11MOL    H64 3284   3.327   7.734   3.088 -0.1277  0.1065  0.2905
   11MOL    H65 3285   3.209   7.637   3.007 -0.6654 -0.5609  1.1909
   11MOL    C66 3286   3.320   7.513   3.138 -0.6753  0.1047  0.3974
   11MOL    C67 3287   3.402   7.507   3.269 -0.2216  0.3878  0.0206
   11MOL    C68 3288   3.408   7.390   3.352 -0.8084  0.0150 -0.2010
   11MOL   Cl69 3289   3.307   7.259   3.331 -0.0822 -0.2750  0.2170
   11MOL    C70 3290   3.495   7.393   3.462  0.1134 -0.5215 -0.8880
   11MOL    C71 3291   3.589   7.496   3.480  0.1887  0.2442 -0.3205
   11MOL    C72 3292   3.590   7.604   3.388  0.1848  0.3587 -0.3419
   11MOL    C73 3293   3.495   7.607   3.286 -0.2281  0.1427  0.5873
   11MOL    C74 3294   3.398   7.459   3.016 -0.3681 -0.2990 -0.2682
   11MOL    H75 3295   3.229   7.455   3.146 -1.1246  0.4977 -1.4539
   11MOL    H76 3296   3.491   7.308   3.528  0.3431  0.1213 -0.0431
   11MOL    H77 3297   3.652   7.499   3.567 -2.2837  0.3255  1.5331
   11MOL    H78 3298   3.666   7.680   3.389  2.1644 -1.5486 -1.3671
   11MOL    H79 3299   3.494   7.691   3.217  0.2731  0.2688  0.7354
   11MOL    H80 3300   3.458   7.376   3.053  1.0883 -0.3127 -2.5618
   11MOL    H81 3301   3.467   7.533   2.975  0.3762 -0.5529  0.5006
   11MOL    C82 3302   3.315   7.378   2.918 -0.3558  0.1645 -0.0492
   11MOL    C83 3303   3.319   7.227   2.930 -0.1597  0.4685  0.0293
   11MOL    C84 3304   3.211   7.144   2.984 -0.4086 -0.4315 -0.9962
   11MOL   Cl85 3305   3.057   7.211   3.033  0.0272 -0.0043 -0.0199
   11MOL    C86 3306   3.228   7.008   2.997  0.2592  0.6964 -0.3379
   11MOL    C87 3307   3.343   6.940   2.951  0.8369 -0.3267 -0.4730
   11MOL    C88 3308   3.449   7.018   2.902  0.4108  0.5052  0.3302
   11MOL    C89 3309   3.439   7.158   2.892  0.9614 -0.4489  0.3417
   11MOL    C90 3310   3.327   7.427   2.769 -0.9489 -0.1769 -0.5788
   11MOL    H91 3311   3.212   7.405   2.941 -0.7297 -1.0703 -0.2058
   11MOL    H92 3312   3.157   6.942   3.044  2.0859  0.4895  2.2652
   11MOL    H93 3313   3.356   6.834   2.964  0.1998 -0.0555  2.8086
   11MOL    H94 3314   3.532   6.961   2.862 -0.8610 -0.8795 -0.3800
   11MOL    H95 3315   3.516   7.215   2.842  1.2903  0.2984  1.6475
   11MOL    H96 3316   3.383   7.355   2.710 -0.0804  0.3760 -0.4347
   11MOL    H97 3317   3.384   7.519   2.779 -0.9450 -0.0705 -1.6033
   11MOL    C98 3318   3.198   7.464   2.695  0.4542  0.3040  0.6476
   11MOL    C99 3319   3.081   7.366   2.696 -0.2180 -0.0962  0.1806
   11MOL   C100 3320   2.951   7.412   2.743 -0.3873 -0.4448  0.4405
   11MOL  Cl101 3321   2.936   7.581   2.789 -0.0509  0.0960  0.1456
   11MOL   C102 3322   2.843   7.314   2.736  0.4803 -0.5162 -0.6455
   11MOL   C103 3323   2.864   7.188   2.679 -0.2664  0.3226  0.4021
   11MOL   C104 3324   2.989   7.149   2.625 -0.7633  0.4276  0.4223
   11MOL   C105 3325   3.100   7.237   2.641  0.0036 -0.3668 -0.4092
   11MOL   C106 3326   3.234   7.499   2.552  0.2670 -0.1128 -0.1540
   11MOL   H107 3327   3.171   7.556   2.748 -1.2222 -0.8473  1.8501
   11MOL   H108 3328   2.750   7.329   2.789 -0.9929 -1.7935 -2.7816
   11MOL   H109 3329   2.784   7.114   2.679  1.4850 -1.6186 -0.6970
   11MOL   H110 3330   3.008   7.052   2.582  0.9973  0.6111  0.7659
   11MOL   H111 3331   3.203   7.219   2.612  0.4453  1.2501  0.0779
   11MOL   H112 3332   3.141   7.490   2.496  0.8319 -2.6185 -0.7731
   11MOL   H113 3333   3.303   7.424   2.513  0.6610 -0.6209  1.5006
   11MOL   C114 3334   3.290   7.647   2.532  0.2009 -0.7452  0.1854
   11MOL   C115 3335   3.178   7.747   2.542 -0.9064  0.0860  0.2276
   11MOL   C116 3336   3.186   7.843   2.649 -0.4941  0.1372  0.3234
   11MOL  Cl117 3337   3.313   7.845   2.768  0.2580  0.2684  0.1159
   11MOL   C118 3338   3.087   7.939   2.656 -0.9104 -0.1050  0.0000
   11MOL   C119 3339   2.982   7.938   2.564 -0.2088  0.1342 -0.5094
   11MOL   C120 3340   2.970   7.853   2.453 -0.4362 -0.5198  0.2475
   11MOL   C121 3341   3.070   7.752   2.445 -0.4794 -0.3640 -0.2561
   11MOL   C122 3342   3.371   7.657   2.407  0.0965 -0.3874  0.1832
   11MOL   H123 3343   3.368   7.661   2.607 -1.2245 -0.0761  1.5735
   11MOL   H124 3344   3.092   8.017   2.731  0.5986 -0.8279  0.6739
   11MOL   H125 3345   2.906   8.013   2.571  0.2892  0.6289 -0.3411
   11MOL   H126 3346   2.891   7.857   2.379  0.4709 -0.6615 -0.7485
   11MOL   H127 3347   3.072   7.678   2.367 -0.4135 -2.0266  1.2805
   11MOL   H128 3348   3.398   7.762   2.397 -2.4070  0.4432  1.8527
   11MOL   H129 3349   3.306   7.630   2.324 -0.0572 -1.7983  0.7436
   11MOL   C130 3350   3.502   7.568   2.410 -0.9806  0.2090 -0.2939
   11MOL   C131 3351   3.626   7.644   2.460  0.1123  0.1438 -0.6632
   11MOL   C132 3352   3.689   7.617   2.586 -0.3558 -0.4192  0.0802
   11MOL  Cl133 3353   3.635   7.507   2.701  0.1219 -0.2058 -0.1649
   11MOL   C134 3354   3.808   7.675   2.614 -0.6666  0.3314  0.2371
   11MOL   C135 3355   3.858   7.787   2.537 -0.4589 -0.2411  0.0948
   11MOL   C136 3356   3.792   7.820   2.417  0.5439 -0.3307 -0.4491
   11MOL   C137 3357   3.676   7.746   2.377 -1.0717  0.0974  0.1269
   11MOL   C138 3358   3.520   7.514   2.269 -0.5221  0.0476 -0.2261
   11MOL   H139 3359   3.486   7.487   2.481  0.2431  0.4543  0.2779
   11MOL   H140 3360   3.858   7.641   2.704 -0.1640 -0.3806 -0.3050
   11MOL   H141 3361   3.952   7.835   2.560 -1.6153  1.6217  1.1501
   11MOL   H142 3362   3.823   7.904   2.357 -2.0334 -0.3829 -1.9538
   11MOL   H143 3363   3.623   7.777   2.287  0.4420  3.2148  0.2448
   11MOL   H144 3364   3.624   7.490   2.248 -0.1592  0.6644  0.8413
   11MOL   H145 3365   3.502   7.594   2.198 -0.8705  0.3177  0.1680
   11MOL   C146 3366   3.424   7.388   2.248 -0.9029  0.0882  0.3742
   11MOL   C147 3367   3.460   7.266   2.327  0.2835  1.2358  0.1996
   11MOL   C148 3368   3.364   7.170   2.366  0.5556  0.7434 -0.2660
   11MOL  Cl149 3369   3.196   7.171   2.309  0.4017 -0.0744  0.0459
   11MOL   C150 3370   3.398   7.061   2.452  0.0814  0.3953 -0.0005
   11MOL   C151 3371   3.532   7.044   2.491 -0.0141  0.1168  0.5859
   11MOL   C152 3372   3.630   7.137   2.460 -0.0275  0.4848  0.2596
   11MOL   C153 3373   3.592   7.243   2.376  0.7593 -0.4809  0.9109
   11MOL   C154 3374   3.423   7.360   2.092  0.2057 -0.8243 -0.9383
   11MOL   H155 3375   3.321   7.410   2.277 -1.8776 -1.1165 -1.9859
   11MOL   H156 3376   3.320   6.999   2.495  3.0037 -2.9008  0.8385
   11MOL   H157 3377   3.531   6.967   2.567 -0.4313  0.2204  0.6852
   11MOL   H158 3378   3.729   7.112   2.496 -0.0598 -0.4306 -0.2539
   11MOL   H159 3379   3.674   7.309   2.351 -0.9573  1.2903 -0.2662
   11MOL   H160 3380   3.384   7.263   2.064 -0.7444 -1.2527  1.6912
   11MOL   H161 3381   3.525   7.334   2.064 -0.0080  0.4669 -3.0615
   11MOL   C162 3382   3.364   7.472   2.001  0.4653  0.8981  0.1185
   11MOL   C163 3383   3.216   7.512   2.030 -0.5463 -0.2542  0.2354
   11MOL   C164 3384   3.177   7.637   2.083  0.9407 -0.7487 -0.1132
   11MOL  Cl165 3385   3.291   7.769   2.094  0.4479  0.1262  0.1693
   11MOL   C166 3386   3.041   7.664   2.106  0.2742 -0.0009  0.1322
   11MOL   C167 3387   2.939   7.565   2.078 -0.0902  0.0043 -0.5884
   11MOL   C168 3388   2.987   7.436   2.051 -0.2903 -1.0175 -0.6620
   11MOL   C169 3389   3.122   7.406   2.024 -0.1709 -0.2974 -0.0149
   11MOL   C170 3390   3.382   7.434   1.856 -0.3050  0.3600 -0.2986
   11MOL   H171 3391   3.428   7.559   2.015  1.7530 -0.3119  2.0375
   11MOL   H172 3392   3.003   7.761   2.135 -1.6794 -1.0348  1.1504
   11MOL   H173 3393   2.833   7.580   2.082 -0.2848 -1.7109  1.7262
   11MOL   H174 3394   2.919   7.355   2.030 -0.5634 -0.8376 -0.4788
   11MOL   H175 3395   3.151   7.314   1.977  1.2897  0.1428 -0.0121
   11MOL   H176 3396   3.313   7.353   1.834  0.0076  0.5090 -1.9604
   11MOL   H177 3397   3.479   7.387   1.844 -1.0409 -1.5960  1.1859
   11MOL   C178 3398   3.370   7.550   1.761 -0.1954 -0.0459  0.0183
   11MOL   C179 3399   3.243   7.550   1.683  0.6869 -0.0140  0.5452
   11MOL   C180 3400   3.155   7.666   1.682  0.1162 -0.2460  0.4079
   11MOL  Cl181 3401   3.190   7.815   1.755  0.0571 -0.0584 -0.1707
   11MOL   C182 3402   3.032   7.656   1.613 -0.4348 -0.0942  0.2032
   11MOL   C183 3403   2.991   7.543   1.544  0.0055  0.2647  0.0868
   11MOL   C184 3404   3.080   7.437   1.537 -0.5712  0.5401 -0.3705
   11MOL   C185 3405   3.206   7.444   1.597 -0.1601 -0.0007  0.8706
   11MOL   C186 3406   3.490   7.545   1.662 -0.5680  0.2053 -0.0767
   11MOL   H187 3407   3.372   7.640   1.822  0.6102  1.1935 -1.7937
   11MOL   H188 3408   2.967   7.742   1.618 -1.0000 -0.3573 -2.0354
   11MOL   H189 3409   2.891   7.537   1.502  0.0310  0.6433 -0.0299
   11MOL   H190 3410   3.048   7.353   1.477 -0.8428  0.5808 -0.2829
   11MOL   H191 3411   3.272   7.359   1.584  0.4832  0.9701 -2.6859
   11MOL   H192 3412   3.465   7.612   1.580  0.0648  0.9328  0.3109
   11MOL   H193 3413   3.489   7.448   1.613 -3.1867 -0.4724  1.2244
   11MOL   C194 3414   3.633   7.587   1.705  0.3449  0.2644  0.5167
   11MOL   C195 3415   3.646   7.711   1.789 -0.4616 -0.5382 -0.4096
   11MOL   C196 3416   3.702   7.711   1.923  0.3050  0.2263  0.5630
   11MOL  Cl197 3417   3.755   7.564   2.003  0.1204  0.3342  0.0938
   11MOL   C198 3418   3.733   7.831   1.986  0.4692 -0.5820  0.1876
   11MOL   C199 3419   3.698   7.954   1.933  0.2558  0.8543 -0.0722
   11MOL   C200 3420   3.625   7.960   1.810 -0.3635 -0.2060 -0.1950
   11MOL   C201 3421   3.597   7.838   1.737  0.2705  0.0640  0.4454
   11MOL   C202 3422   3.738   7.595   1.593  0.4353  0.6988  0.2864
   11MOL   H203 3423   3.677   7.501   1.755 -0.0401 -1.8584 -2.6907
   11MOL   H204 3424   3.793   7.822   2.076  2.2516 -0.5341 -0.9838
   11MOL   H205 3425   3.718   8.044   1.989  3.1918 -0.0803  0.4535
   11MOL   H206 3426   3.607   8.058   1.767  1.0451  0.8665  1.6121
   11MOL   H207 3427   3.551   7.836   1.639  0.9567  0.8324  0.1006
   11MOL   H208 3428   3.834   7.612   1.641  1.6474 -0.9646 -1.4818
   11MOL   H209 3429   3.723   7.689   1.541  1.6972 -0.4120 -2.1436
   11MOL   C210 3430   3.737   7.475   1.491 -0.0271  0.6291 -0.6742
   11MOL   C211 3431   3.788   7.341   1.547 -1.0883 -0.4017 -0.2944
   11MOL   C212 3432   3.715   7.217   1.528  0.2670 -0.4527  0.1784
   11MOL  Cl213 3433   3.570   7.219   1.435 -0.5436 -0.1183 -0.1792
   11MOL   C214 3434   3.767   7.095   1.571 -0.3241 -0.1409  0.0715
   11MOL   C215 3435   3.891   7.091   1.627 -0.0783 -0.4161 -0.1718
   11MOL   C216 3436   3.974   7.205   1.638  0.3167  0.6717  0.1163
   11MOL   C217 3437   3.918   7.332   1.600  0.3233 -0.6735  0.0179
   11MOL   C218 3438   3.804   7.510   1.364  0.5241  0.0233  0.3767
   11MOL   H219 3439   3.632   7.463   1.465 -0.0270  0.7254 -0.7173
   11MOL   H220 3440   3.703   7.009   1.557 -2.4010  1.1434  1.3760
   11MOL   H221 3441   3.939   6.998   1.655  1.3653 -0.0699 -1.4104
   11MOL   H222 3442   4.078   7.196   1.665  0.0755  0.7530  1.0875
   11MOL   H223 3443   3.975   7.420   1.624  1.7302 -2.1442  2.2784
   11MOL   H224 3444   3.803   7.420   1.301 -0.6879 -1.5668  2.5991
   11MOL   H225 3445   3.906   7.533   1.396  0.1950  0.8991  0.7852
   11MOL   C226 3446   3.753   7.622   1.271 -0.1451 -0.6447  0.4055
   11MOL   C227 3447   3.602   7.642   1.266  0.3274 -0.2313 -0.2075
   11MOL   C228 3448   3.544   7.755   1.329 -0.3570 -0.1330  0.5806
   11MOL  Cl229 3449   3.642   7.885   1.375  0.1710 -0.1541  0.5275
   11MOL   C230 3450   3.409   7.765   1.352 -0.4878 -0.2304 -1.1782
   11MOL   C231 3451   3.328   7.654   1.324 -1.0306  0.3341 -0.2099
   11MOL   C232 3452   3.376   7.543   1.258  0.5818 -0.1253  0.1088
   11MOL   C233 3453   3.513   7.538   1.230 -0.6667  0.0625 -0.1106
   11MOL   C234 3454   3.810   7.621   1.126  0.4382 -0.4507 -0.6756
   11MOL   H235 3455   3.792   7.712   1.317 -1.3693 -0.3278  0.8604
   11MOL   H236 3456   3.371   7.857   1.394 -0.6952 -0.4844 -0.8087
   11MOL   H237 3457   3.225   7.656   1.358 -0.8864 -2.1451  0.5336
   11MOL   H238 3458   3.305   7.469   1.224  1.3008 -0.6379 -0.2794
   11MOL   H239 3459   3.542   7.441   1.191  0.2865 -0.3203  1.4988
   11MOL   H240 3460   3.764   7.538   1.072  0.6685 -1.2136  0.2840
   11MOL   H241 3461   3.915   7.592   1.135 -0.2004 -3.2615 -1.5630
   11MOL   C242 3462   3.791   7.751   1.044  0.8599 -0.1803  0.0184
   11MOL   C243 3463   3.809   7.721   0.897 -0.3101 -1.0726 -0.3425
   11MOL   C244 3464   3.700   7.686   0.810 -0.1651 -0.0011 -0.1561
   11MOL  Cl245 3465   3.533   7.678   0.863 -0.0075 -0.2689 -0.2317
   11MOL   C246 3466   3.722   7.663   0.673 -0.0761 -0.5662 -0.1011
   11MOL   C247 3467   3.847   7.667   0.617 -0.1240  0.6544  0.0776
   11MOL   C248 3468   3.955   7.702   0.698  0.4800  0.2490 -0.1568
   11MOL   C249 3469   3.934   7.720   0.838  0.2922 -0.0580 -0.3234
   11MOL   C250 3470   3.875   7.871   1.103 -0.4018  0.0083  0.2948
   11MOL   H251 3471   3.687   7.784   1.045  0.1450 -2.3944  1.6969
   11MOL   H252 3472   3.644   7.633   0.605  1.0883 -1.9951 -0.8335
   11MOL   H253 3473   3.853   7.622   0.519  1.0053  0.8738  0.0293
   11MOL   H254 3474   4.057   7.693   0.664  0.7424  2.1236  0.0948
   11MOL   H255 3475   4.023   7.735   0.897  0.3763  0.0555 -0.4764
   11MOL   H256 3476   3.966   7.829   1.145  0.0800 -0.4884 -1.2429
   11MOL   H257 3477   3.824   7.921   1.186 -1.4402 -0.5918  0.0406
   11MOL   C258 3478   3.920   7.989   1.014  0.6279 -0.1419 -0.4786
   11MOL   C259 3479   4.036   8.064   1.073 -0.6329 -0.0003  1.1730
   11MOL   C260 3480   4.153   8.087   0.993 -0.5699 -0.2084 -0.6964
   11MOL  Cl261 3481   4.166   8.039   0.820 -0.0071  0.4238 -0.1370
   11MOL   C262 3482   4.270   8.132   1.057  0.1019  0.0110 -0.3417
   11MOL   C263 3483   4.270   8.164   1.193  0.1061 -0.0263 -0.2437
   11MOL   C264 3484   4.150   8.155   1.268 -0.6297 -0.0788  0.2575
   11MOL   C265 3485   4.039   8.100   1.208  0.1316  0.1728 -0.0872
   11MOL   C266 3486   3.803   8.080   0.990  0.5035  0.2758 -0.0664
   11MOL   H267 3487   3.953   7.941   0.922 -0.0756 -1.0219 -0.2716
   11MOL   H268 3488   4.361   8.149   1.002 -1.2239 -0.4061 -2.7521
   11MOL   H269 3489   4.363   8.195   1.239  0.1713  2.0015 -1.7008
   11MOL   H270 3490   4.147   8.182   1.373  0.7403  1.8793 -0.1639
   11MOL   H271 3491   3.950   8.081   1.266  1.8038  0.6747  2.7232
   11MOL   H272 3492   3.760   8.111   1.085 -0.2116  0.2452 -0.3788
   11MOL   H273 3493   3.730   8.022   0.934  2.3099  0.0635 -2.2705
   11MOL   C274 3494   3.829   8.206   0.907 -0.3379 -0.6474 -0.2977
   11MOL   C275 3495   3.745   8.325   0.966  0.5067  0.7071 -0.7535
   11MOL   C276 3496   3.809   0.008   1.034 -0.1131  0.4067 -0.3067
   11MOL  Cl277 3497   3.979   0.016   1.064 -0.1536 -0.0104 -0.2648
   11MOL   C278 3498   3.736   0.115   1.091 -0.1729 -0.7017  0.7161
   11MOL   C279 3499   3.594   0.117   1.071 -0.5782 -0.3098  0.0972
   11MOL   C280 3500   3.537   0.020   0.988  0.0575  0.6756  0.0338
   11MOL   C281 3501   3.610   8.337   0.933 -0.2819  0.3175  0.0332
   11MOL   C282 3502   3.803   8.185   0.759  0.0087  0.1572 -0.0444
   11MOL   H283 3503   3.931   8.240   0.921  0.2442 -2.7852  0.8321
   11MOL   H284 3504   3.792   0.188   1.147  0.9444  0.3942 -1.7725
   11MOL   H285 3505   3.540   0.203   1.108 -2.5798 -0.9354 -1.3134
   11MOL   H286 3506   3.437   0.042   0.952 -1.2266 -1.3486  2.2029
   11MOL   H287 3507   3.555   8.272   0.866 -1.7487  1.7466 -0.1679
   11MOL   H288 3508   3.696   8.169   0.749 -0.3706  2.6779 -0.3971
   11MOL   H289 3509   3.843   8.094   0.715  1.4561  0.0499  1.4498
   11MOL   C290 3510   3.854   8.301   0.662  0.2721  0.0995  0.1032
   11MOL   C291 3511   3.792   8.281   0.522  0.2965  0.2341  0.2998
   11MOL   C292 3512   3.663   8.331   0.488 -0.1840 -0.3570 -0.3486
   11MOL  Cl293 3513   3.569   0.008   0.596  0.0210 -0.0274 -0.2836
   11MOL   C294 3514   3.612   8.298   0.363 -0.5417  0.3402  0.5040
   11MOL   C295 3515   3.685   8.234   0.266 -0.3928  0.5546 -0.5363
   11MOL   C296 3516   3.806   8.173   0.299  0.1425 -0.1139  0.8189
   11MOL   C297 3517   3.859   8.197   0.428 -0.2720  0.5983  0.2006
   11MOL   C298 3518   4.007   8.314   0.670 -0.0968  0.0750  0.5241
   11MOL   H299 3519   3.817   8.392   0.709  3.0061  1.1392  0.2983
   11MOL   H300 3520   3.515   8.330   0.327 -0.9822  0.5178  1.8206
   11MOL   H301 3521   3.649   8.209   0.167  2.0440  1.3153 -1.6421
   11MOL   H302 3522   3.866   8.115   0.230 -0.7924  0.8062 -0.7909
   11MOL   H303 3523   3.946   8.142   0.462 -0.7817  1.4602  3.0362
   11MOL   H304 3524   4.056   8.218   0.656 -2.8737 -1.3393  0.1424
   11MOL   H305 3525   4.038   8.344   0.771 -1.2507  2.6226  0.1794
   11MOL   C306 3526   4.086   8.402   0.570 -0.1626 -0.4097  0.0760
   11MOL   C307 3527   4.240   8.388   0.593 -0.0800  0.0524  0.2736
   11MOL   C308 3528   4.316   8.297   0.519  0.3874 -0.5775  0.1435
   11MOL  Cl309 3529   4.239   8.180   0.422 -0.4005  0.3073  0.0360
   11MOL   C310 3530   4.458   8.292   0.534  0.4272 -0.4363  0.3150
   11MOL   C311 3531   4.526   8.378   0.615 -0.2740 -0.0662 -0.2958
   11MOL   C312 3532   4.448   0.054   0.676  0.7151  0.4420 -0.5844
   11MOL   C313 3533   4.307   0.060   0.680 -0.2573 -0.7137  0.5613
   11MOL   C314 3534   4.030   0.125   0.572  0.1063  0.2261 -0.1117
   11MOL   H315 3535   4.073   8.375   0.466  1.2158  0.8469 -0.4495
   11MOL   H316 3536   4.515   8.222   0.475  0.0636  0.5134 -1.1938
   11MOL   H317 3537   4.634   8.378   0.621 -0.1736 -1.6542 -1.7332
   11MOL   H318 3538   4.504   0.124   0.737 -0.0962  0.7938 -0.2481
   11MOL   H319 3539   4.257   0.133   0.742  0.0703  0.1092 -0.1199
   11MOL   H320 3540   3.926   0.126   0.539 -0.3606 -0.4172  1.3177
   11MOL   H321 3541   4.088   0.192   0.508  0.0596 -0.3489 -0.7711
   11MOL   H322 3542   4.032   0.162   0.674 -1.9285 -0.9902  0.3882
   12MOL     C1 3543   7.923   6.330   6.241 -0.3642 -0.4255  0.9555
   12MOL     C2 3544   7.838   6.456   6.233 -0.0685  0.4744  0.4291
   12MOL     C3 3545   7.718   6.478   6.304 -0.2671  0.2925 -0.0567
   12MOL    Cl4 3546   7.654   6.352   6.405 -0.0687  0.3618 -0.1768
   12MOL     C5 3547   7.648   6.599   6.293  0.0509 -0.1544 -0.4118
   12MOL     C6 3548   7.695   6.704   6.216 -0.1534 -0.3358  0.0227
   12MOL     C7 3549   7.815   6.687   6.144  0.9917 -0.0543 -0.3010
   12MOL     C8 3550   7.881   6.565   6.152 -0.0907 -0.5612  0.6413
   12MOL     C9 3551   7.991   6.318   6.375  0.0767  0.1728 -0.1712
   12MOL    H10 3552   7.860   6.243   6.222  1.8078 -1.4840 -1.7109
   12MOL    H11 3553   7.563   6.608   6.359  0.3388  0.8516 -0.1618
   12MOL    H12 3554   7.650   6.802   6.217  0.2112 -0.1588  2.5380
   12MOL    H13 3555   7.858   6.775   6.099 -0.1500  0.9787  0.6005
   12MOL    H14 3556   7.970   6.563   6.091 -0.3387  1.0566  0.2127
   12MOL    H15 3557   7.909   6.309   6.446  0.8480  1.6080  0.9250
   12MOL    H16 3558   8.052   6.405   6.400 -0.6126  0.8604 -0.8188
   12MOL    H17 3559   7.994   6.328   6.159 -0.4368  1.1814  0.8439
   12MOL    C18 3560   8.091   6.196   6.387 -0.0561  0.3443  0.6156
   12MOL    C19 3561   8.046   6.066   6.320  0.3723 -0.1748 -0.3008
   12MOL    C20 3562   8.125   6.004   6.218 -0.1684 -0.7149  0.5966
   12MOL   Cl21 3563   8.278   6.066   6.172  0.7454  0.2527 -0.0525
   12MOL    C22 3564   8.080   5.881   6.164  0.3503  0.2198  0.7632
   12MOL    C23 3565   7.960   5.823   6.203  0.6603 -0.7619  0.5770
   12MOL    C24 3566   7.877   5.889   6.300 -0.4731 -0.0893 -0.1662
   12MOL    C25 3567   7.926   5.999   6.366 -0.8895  0.1901 -0.0152
   12MOL    C26 3568   8.136   6.165   6.534 -0.2312 -0.3843 -0.3525
   12MOL    H27 3569   8.187   6.220   6.342  1.2473 -0.5522  2.8513
   12MOL    H28 3570   8.136   5.838   6.083 -0.2200  0.5101  0.2091
   12MOL    H29 3571   7.922   5.744   6.140  0.6015  0.6906 -1.2694
   12MOL    H30 3572   7.781   5.845   6.320 -0.3941 -0.7497 -1.2296
   12MOL    H31 3573   7.874   6.032   6.455  1.8824 -0.3345  1.8677
   12MOL    H32 3574   8.173   6.063   6.534 -0.9408 -0.6539 -1.8397
   12MOL    H33 3575   8.040   6.166   6.586 -0.3973  2.9553 -0.6303
   12MOL    C34 3576   8.229   6.275   6.586  0.5149  0.6055  0.0538
   12MOL    C35 3577   8.364   6.268   6.521 -0.2298 -0.4815 -0.0080
   12MOL    C36 3578   0.008   6.387   6.474 -0.1633  0.6100 -0.1771
   12MOL   Cl37 3579   8.343   6.540   6.485 -0.4027 -0.1969  0.1528
   12MOL    C38 3580   0.140   6.393   6.412  0.2400  0.4348  0.0072
   12MOL    C39 3581   0.201   6.268   6.387 -0.3655 -0.0574  0.3362
   12MOL    C40 3582   0.136   6.152   6.435  0.2785 -0.0049  0.4480
   12MOL    C41 3583   0.012   6.150   6.499  0.2162 -0.1793 -0.2347
   12MOL    C42 3584   8.242   6.267   6.743 -0.3961 -0.7747  0.1454
   12MOL    H43 3585   8.177   6.364   6.551 -0.3442  0.2794  0.5143
   12MOL    H44 3586   0.185   6.480   6.366  0.4478  0.4456  0.2275
   12MOL    H45 3587   0.295   6.260   6.334 -0.4991  0.2117  0.0616
   12MOL    H46 3588   0.186   6.060   6.408 -0.6928 -0.7949  1.3236
   12MOL    H47 3589   8.385   6.057   6.527  3.9232 -1.9388  0.5745
   12MOL    H48 3590   8.343   6.279   6.781 -1.0723  0.0397  1.7389
   12MOL    H49 3591   8.215   6.163   6.763 -1.7031 -0.0623  2.2887
   12MOL    C50 3592   8.142   6.365   6.815  0.7230  0.3270  0.1906
   12MOL    C51 3593   8.183   6.515   6.797  0.1248 -0.2381  0.6533
   12MOL    C52 3594   8.102   6.604   6.718 -0.6626 -0.5122  0.7768
   12MOL   Cl53 3595   7.952   6.563   6.646 -0.0256 -0.0701 -0.1848
   12MOL    C54 3596   8.137   6.736   6.702 -0.3025  0.0436 -0.2731
   12MOL    C55 3597   8.257   6.788   6.764  0.7569  0.3718 -0.2745
   12MOL    C56 3598   8.325   6.705   6.848 -0.4577  0.4398  0.0518
   12MOL    C57 3599   8.299   6.564   6.853  0.0297 -0.1246  0.1661
   12MOL    C58 3600   8.126   6.317   6.970  0.1891  0.1748  0.2439
   12MOL    H59 3601   8.043   6.347   6.776  1.1243 -0.3712 -0.5133
   12MOL    H60 3602   8.070   6.800   6.646 -0.3964 -0.3422 -0.6077
   12MOL    H61 3603   8.278   6.893   6.752 -0.9474  0.6197 -1.1855
   12MOL    H62 3604   8.404   6.746   6.909  0.3310 -0.0116 -0.6655
   12MOL    H63 3605   8.361   6.511   6.924 -1.1661 -0.6113  0.8607
   12MOL    H64 3606   8.066   6.390   7.023 -1.2394  0.6445 -1.9346
   12MOL    H65 3607   8.218   6.332   7.026  0.0342 -0.3728  0.6504
   12MOL    C66 3608   8.052   6.179   6.992  0.6086  0.6375 -0.3027
   12MOL    C67 3609   7.906   6.177   6.936  0.0269  0.0851  0.4859
   12MOL    C68 3610   7.860   6.085   6.835 -0.6941 -0.1372 -0.5167
   12MOL   Cl69 3611   7.969   5.972   6.763  0.3110  0.0449  0.2890
   12MOL    C70 3612   7.722   6.082   6.798 -0.7000  1.0328 -0.4654
   12MOL    C71 3613   7.632   6.179   6.850 -0.0706  0.2419 -0.4436
   12MOL    C72 3614   7.674   6.273   6.950  0.0192  0.2429  0.0447
   12MOL    C73 3615   7.809   6.276   6.985 -0.3870  1.1360  0.1132
   12MOL    C74 3616   8.045   6.152   7.145  0.1955  0.0647  0.3041
   12MOL    H75 3617   8.109   6.100   6.942 -1.0563 -0.4666 -0.5116
   12MOL    H76 3618   7.682   5.994   6.749  0.8006 -1.1719  2.1254
   12MOL    H77 3619   7.528   6.176   6.824 -0.1661 -0.9184  0.0598
   12MOL    H78 3620   7.603   6.343   6.992  0.5438  1.4996 -1.1510
   12MOL    H79 3621   7.837   6.338   7.069  3.0090 -0.6687  0.4272
   12MOL    H80 3622   7.960   6.086   7.160  0.9989 -1.0721 -0.0853
   12MOL    H81 3623   8.020   6.236   7.210 -2.2296 -0.7970  0.5404
   12MOL    C82 3624   8.173   6.088   7.194  0.5990  0.4561  0.4029
   12MOL    C83 3625   8.186   5.944   7.141 -0.3668 -0.1615 -0.1149
   12MOL    C84 3626   8.282   5.908   7.041 -0.4044  0.9857 -0.6363
   12MOL   Cl85 3627   8.416   6.007   7.001 -0.1373 -0.2151 -0.1631
   12MOL    C86 3628   8.286   5.777   6.985 -0.3156  0.1399  0.1927
   12MOL    C87 3629   8.175   5.695   7.015  0.1471  0.6944 -0.5945
   12MOL    C88 3630   8.080   5.724   7.107 -0.4593 -1.4869 -1.1508
   12MOL    C89 3631   8.091   5.845   7.178 -0.7192 -0.4740  0.2731
   12MOL    C90 3632   8.188   6.082   7.349  0.0376 -0.4405 -0.1800
   12MOL    H91 3633   8.248   6.151   7.147 -0.8306  2.6974  1.0821
   12MOL    H92 3634   8.354   5.733   6.913 -1.5819 -0.7296 -0.4789
   12MOL    H93 3635   8.171   5.601   6.962  0.9395 -0.0110  0.5683
   12MOL    H94 3636   7.996   5.657   7.120 -1.8660  0.3555 -0.4103
   12MOL    H95 3637   8.028   5.871   7.261  0.6452  3.1071  0.2885
   12MOL    H96 3638   8.279   6.025   7.364  0.7068 -0.1657 -2.9353
   12MOL    H97 3639   8.107   6.018   7.386 -1.6583  1.5712 -0.3271
   12MOL    C98 3640   8.184   6.216   7.437  0.2553 -0.0178 -0.5103
   12MOL    C99 3641   8.265   6.333   7.374  0.7397  1.1024  0.4381
   12MOL   C100 3642   8.205   6.458   7.355  0.2793  0.4905 -0.7187
   12MOL  Cl101 3643   8.045   6.484   7.408  0.2813  0.4287 -0.1565
   12MOL   C102 3644   8.283   6.564   7.306 -0.8565 -0.1200 -0.0629
   12MOL   C103 3645   8.407   6.541   7.249 -0.4235  0.1782 -0.5568
   12MOL   C104 3646   0.039   6.412   7.258  0.2926  0.1538  0.5284
   12MOL   C105 3647   8.392   6.309   7.322  0.2972 -0.1554  0.3873
   12MOL   C106 3648   8.220   6.191   7.583 -0.9610  0.4948 -0.2708
   12MOL   H107 3649   8.077   6.232   7.429  0.0319 -1.4193 -0.3723
   12MOL   H108 3650   8.235   6.660   7.309 -1.3829 -0.3938  0.4782
   12MOL   H109 3651   0.033   6.627   7.202  0.4958 -0.9452 -1.7392
   12MOL   H110 3652   0.134   6.398   7.209 -0.0846 -0.9793  0.1209
   12MOL   H111 3653   0.020   6.213   7.329  0.4017 -0.0536  1.1086
   12MOL   H112 3654   8.255   6.287   7.622  3.3297 -0.5684 -1.2281
   12MOL   H113 3655   8.311   6.132   7.590 -0.7697  0.9622  1.6254
   12MOL   C114 3656   8.116   6.123   7.667  0.0904  0.2640  0.3549
   12MOL   C115 3657   7.999   6.220   7.698  0.0802  0.2479  0.0186
   12MOL   C116 3658   7.862   6.192   7.645  0.1788  0.4694 -0.0356
   12MOL  Cl117 3659   7.830   6.049   7.549  0.1012 -0.4321 -0.2957
   12MOL   C118 3660   7.759   6.284   7.670 -0.6457  0.1145 -0.0298
   12MOL   C119 3661   7.782   6.398   7.748  0.2592 -0.2281  0.6273
   12MOL   C120 3662   7.911   6.429   7.794 -0.3641 -0.6113  0.7267
   12MOL   C121 3663   8.017   6.339   7.769  0.0386 -1.2431  0.1895
   12MOL   C122 3664   8.179   6.048   7.790 -0.0956  0.1557  0.0896
   12MOL   H123 3665   8.074   6.057   7.591  0.1216 -0.0159  0.5795
   12MOL   H124 3666   7.656   6.271   7.639 -0.0354 -1.3309 -1.4985
   12MOL   H125 3667   7.703   6.471   7.761  0.3302  0.4644 -2.4149
   12MOL   H126 3668   7.929   6.517   7.854  3.1994 -0.3932 -0.5593
   12MOL   H127 3669   8.116   6.360   7.806  0.6862 -0.0798 -2.0842
   12MOL   H128 3670   8.107   6.010   7.862  1.2969  3.1533  3.1822
   12MOL   H129 3671   8.247   6.115   7.842  0.4999 -0.2104 -0.2163
   12MOL   C130 3672   8.272   5.926   7.755  0.5836  0.4383 -0.4366
   12MOL   C131 3673   8.200   5.830   7.658  0.1010  0.2617  0.3561
   12MOL   C132 3674   8.269   5.800   7.540 -0.4324 -0.1654  0.3339
   12MOL  Cl133 3675   0.016   5.846   7.502  0.1735 -0.2626  0.0750
   12MOL   C134 3676   8.206   5.721   7.445 -0.3280  0.7455 -0.3184
   12MOL   C135 3677   8.077   5.666   7.469  0.2480 -0.2444 -0.0202
   12MOL   C136 3678   8.006   5.687   7.587 -0.3334  0.6022 -0.2601
   12MOL   C137 3679   8.071   5.770   7.685 -0.6969 -0.9317 -0.7777
   12MOL   C138 3680   8.319   5.847   7.881  0.2194 -0.0887 -0.2897
   12MOL   H139 3681   8.370   5.947   7.712 -0.0414 -0.2830 -2.2453
   12MOL   H140 3682   8.251   5.683   7.354  1.4723 -0.8915  1.2302
   12MOL   H141 3683   8.033   5.606   7.390 -0.3903 -1.2411  1.0783
   12MOL   H142 3684   7.909   5.640   7.595  0.5282 -0.9103  1.7891
   12MOL   H143 3685   8.020   5.801   7.775 -0.2160  0.8492 -1.1012
   12MOL   H144 3686   8.342   5.743   7.857 -0.3550 -0.2012 -0.3723
   12MOL   H145 3687   8.234   5.825   7.945  0.3213 -2.4944 -0.9320
   12MOL   C146 3688   0.006   5.918   7.968  0.0088 -0.0915 -0.4287
   12MOL   C147 3689   0.147   5.894   7.904 -0.4381  0.4961  0.3277
   12MOL   C148 3690   0.221   5.997   7.843  0.1164  0.2257  0.2384
   12MOL  Cl149 3691   0.150   6.157   7.826 -0.3579  0.0484 -0.1674
   12MOL   C150 3692   0.357   5.975   7.803  0.1261  0.6158  0.2936
   12MOL   C151 3693   0.415   5.843   7.805 -0.2177  0.1970 -0.0837
   12MOL   C152 3694   0.332   5.738   7.851  0.0562 -0.5631  0.5653
   12MOL   C153 3695   0.203   5.763   7.909  0.4830 -0.5397 -0.4776
   12MOL   C154 3696   0.001   5.884   8.119  0.8299  0.3099 -0.1038
   12MOL   H155 3697   8.403   6.024   7.967  2.0202  0.3846  0.1108
   12MOL   H156 3698   0.413   6.057   7.761  1.4484 -1.0774 -1.3378
   12MOL   H157 3699   0.519   5.822   7.784  0.4815  0.8678  2.4684
   12MOL   H158 3700   0.380   5.642   7.849  0.9009 -0.1710 -3.2698
   12MOL   H159 3701   0.154   5.678   7.953  0.2820  0.6625  1.7132
   12MOL   H160 3702   0.103   5.872   8.158  1.9434  0.1093 -2.9520
   12MOL   H161 3703   8.370   5.788   8.120  0.2642  0.6206  0.8505
   12MOL   C162 3704   8.347   5.989   8.209  0.6844  0.2941 -0.2852
   12MOL   C163 3705   0.012   6.113   8.234 -0.7498  0.3496 -1.0645
   12MOL   C164 3706   8.399   6.234   8.170 -0.3377 -0.1237 -0.0778
   12MOL  Cl165 3707   8.250   6.260   8.082 -0.1988  0.2383 -0.1606
   12MOL   C166 3708   0.067   6.347   8.179 -0.3534  1.2047  0.0595
   12MOL   C167 3709   0.187   6.330   8.247 -0.8263 -0.4158 -0.7924
   12MOL   C168 3710   0.223   6.210   8.314 -0.6772  0.4178 -0.1838
   12MOL   C169 3711   0.140   6.098   8.299  0.2031 -0.3708  0.0237
   12MOL   C170 3712   8.295   5.932   8.339  0.3841 -0.5914  0.0058
   12MOL   H171 3713   8.259   6.020   8.152 -1.1658 -0.7125  1.9506
   12MOL   H172 3714   0.048   6.439   8.125 -0.2942  0.7542 -0.7378
   12MOL   H173 3715   0.258   6.412   8.251 -2.4770  0.9885  0.0457
   12MOL   H174 3716   0.320   6.203   8.360 -0.2289 -1.3204 -1.3655
   12MOL   H175 3717   0.169   6.007   8.349  1.7101 -0.2384 -0.5661
   12MOL   H176 3718   8.260   6.009   8.408  0.1006 -1.0500  0.3760
   12MOL   H177 3719   8.377   5.890   8.398  0.0902 -2.1746 -0.7012
   12MOL   C178 3720   8.178   5.829   8.321 -0.7605  0.7322 -0.3100
   12MOL   C179 3721   8.042   5.890   8.359 -1.0319 -0.9268  0.6370
   12MOL   C180 3722   7.940   5.923   8.266  0.1341 -0.2821 -0.1502
   12MOL  Cl181 3723   7.975   5.914   8.099  0.2562  0.3686  0.0123
   12MOL   C182 3724   7.817   5.977   8.309 -0.5486  0.1725  0.2891
   12MOL   C183 3725   7.788   5.985   0.025 -0.4645  0.4161  0.6963
   12MOL   C184 3726   7.896   5.961   0.117  0.7083 -0.6123  0.1794
   12MOL   C185 3727   8.019   5.908   0.076 -0.2300 -0.3577 -0.0482
   12MOL   C186 3728   8.203   5.688   8.396  0.4347 -0.0743  0.1934
   12MOL   H187 3729   8.181   5.800   8.216  1.3555 -0.8615  0.1364
   12MOL   H188 3730   7.741   6.008   8.238 -1.5044  1.5432  1.8483
   12MOL   H189 3731   7.693   6.022   0.059 -0.8113  1.3818 -1.2433
   12MOL   H190 3732   7.869   5.970   0.221 -1.1419  0.7711 -0.3996
   12MOL   H191 3733   8.093   5.897   0.154 -0.5887  2.5585  0.7739
   12MOL   H192 3734   8.177   5.690   0.081 -2.3237 -1.9448 -0.3967
   12MOL   H193 3735   8.309   5.669   8.407 -0.2457 -2.8165  2.4153
   12MOL   C194 3736   8.125   5.572   8.330  0.0262 -0.3771  1.1310
   12MOL   C195 3737   8.154   5.548   8.182  0.2237 -0.3849 -0.0263
   12MOL   C196 3738   8.280   5.493   8.145 -0.6331 -0.0860  0.1567
   12MOL  Cl197 3739   8.400   5.456   8.259  0.0353  0.0903  0.1254
   12MOL   C198 3740   8.305   5.489   8.010  0.0175  0.5806 -0.3647
   12MOL   C199 3741   8.206   5.516   7.914 -0.2934 -0.2202 -0.3501
   12MOL   C200 3742   8.079   5.558   7.948 -0.5139 -0.6445 -0.6557
   12MOL   C201 3743   8.053   5.576   8.085 -0.5343  0.0649 -0.4860
   12MOL   C202 3744   7.974   5.570   8.367  0.5432  0.7717  0.0503
   12MOL   H203 3745   8.172   5.484   8.373  0.8574 -1.3613 -1.6614
   12MOL   H204 3746   8.407   5.464   7.984  0.1609 -3.2248  3.2877
   12MOL   H205 3747   8.237   5.509   7.811  1.1348  1.1564 -0.0217
   12MOL   H206 3748   8.013   5.576   7.865  0.3588  0.5262 -1.1053
   12MOL   H207 3749   7.960   5.623   8.111  0.4046  2.0373 -0.5572
   12MOL   H208 3750   7.935   5.484   8.312  2.2069 -0.7242  1.1464
   12MOL   H209 3751   7.921   5.655   8.324  1.3610  1.5069  0.4840
   12MOL   C210 3752   7.935   5.563   0.098  0.4603 -0.4076  0.0591
   12MOL   C211 3753   7.982   5.428   0.158 -0.4969  0.6244  0.2110
   12MOL   C212 3754   8.058   5.420   0.285  0.1412 -0.6017  0.6488
   12MOL  Cl213 3755   8.134   5.560   0.354  0.0274  0.0068  0.1217
   12MOL   C214 3756   8.082   5.295   0.346  0.2537 -0.0426  0.7991
   12MOL   C215 3757   8.021   5.182   0.290  0.6277 -0.2826 -0.1935
   12MOL   C216 3758   7.946   5.189   0.166  0.5272  0.5374 -0.2214
   12MOL   C217 3759   7.926   5.311   0.102  0.2689 -0.2795  0.2588
   12MOL   C218 3760   7.784   5.583   0.116 -0.4660 -0.5758 -0.6230
   12MOL   H219 3761   7.986   5.644   0.149 -0.6144  0.8667 -0.8632
   12MOL   H220 3762   8.145   5.273   0.432 -1.1453 -1.3390  1.5194
   12MOL   H221 3763   8.037   5.077   0.313 -0.6236 -1.0117 -2.5920
   12MOL   H222 3764   7.896   5.107   0.117 -0.3833  0.1396  1.3575
   12MOL   H223 3765   7.849   5.311   0.027  1.4554  0.9883 -0.9629
   12MOL   H224 3766   7.738   5.508   0.052 -0.6805 -0.7588 -0.2595
   12MOL   H225 3767   7.752   5.677   0.071  0.5524 -0.0625 -0.2718
   12MOL   C226 3768   7.738   5.574   0.268 -0.4133 -0.8304  0.4717
   12MOL   C227 3769   7.593   5.526   0.293  0.3083 -0.0787 -0.8059
   12MOL   C228 3770   7.562   5.405   0.360 -0.4107  0.9862  0.2634
   12MOL  Cl229 3771   7.687   5.296   0.403 -0.0288 -0.3393  0.2419
   12MOL   C230 3772   7.432   5.371   0.402 -0.2734 -0.6344  0.2912
   12MOL   C231 3773   7.326   5.456   0.363 -0.1395  0.0952 -0.1631
   12MOL   C232 3774   7.352   5.579   0.303 -0.7313 -0.3431  0.6945
   12MOL   C233 3775   7.483   5.617   0.273 -0.2419  0.0715  0.6755
   12MOL   C234 3776   7.780   5.707   0.345  0.8311  0.2852  0.7185
   12MOL   H235 3777   7.799   5.500   0.320 -0.9357  0.8738  3.6217
   12MOL   H236 3778   7.424   5.280   0.460  0.1316 -0.8744 -0.0311
   12MOL   H237 3779   7.224   5.426   0.382  0.8085 -1.8944  2.0001
   12MOL   H238 3780   7.267   5.637   0.271 -1.0316 -0.8522  0.5643
   12MOL   H239 3781   7.485   5.716   0.231  1.3853 -0.8156 -1.4908
   12MOL   H240 3782   7.740   5.793   0.290  0.4560  0.8400  1.8478
   12MOL   H241 3783   7.887   5.724   0.337  0.5415  1.0016 -2.1601
   12MOL   C242 3784   7.735   5.728   0.482  0.0054 -0.0619 -0.7663
   12MOL   C243 3785   7.761   5.869   0.537  0.7541 -0.6093  0.6240
   12MOL   C244 3786   7.663   5.963   0.571 -0.1719  0.4166 -0.7686
   12MOL  Cl245 3787   7.494   5.924   0.570 -0.1573 -0.1351  0.2415
   12MOL   C246 3788   7.701   6.089   0.621 -0.4526 -0.8674 -0.1244
   12MOL   C247 3789   7.834   6.138   0.635  0.9088 -0.7509 -0.5639
   12MOL   C248 3790   7.932   6.043   0.596  0.1666 -0.2808 -0.4139
   12MOL   C249 3791   7.896   5.915   0.548 -0.5743 -0.0045 -0.3272
   12MOL   C250 3792   7.799   5.624   0.582 -0.3763  0.0560  0.8143
   12MOL   H251 3793   7.629   5.706   0.487  0.6861 -3.5848  0.1745
   12MOL   H252 3794   7.627   6.154   0.664  0.3647 -0.5399  0.8252
   12MOL   H253 3795   7.847   6.239   0.672  0.6584 -1.0759  0.4420
   12MOL   H254 3796   8.034   6.079   0.584  0.4784 -1.0550 -0.0935
   12MOL   H255 3797   7.973   5.852   0.505  0.7856  1.0901  0.4214
   12MOL   H256 3798   7.908   5.626   0.571 -0.5553  1.3810 -0.9770
   12MOL   H257 3799   7.757   5.526   0.557 -0.6442  0.6221 -1.0411
   12MOL   C258 3800   7.774   5.645   0.726  0.3708 -0.1375  0.2665
   12MOL   C259 3801   7.862   5.540   0.800  0.0311  0.7167 -1.0284
   12MOL   C260 3802   7.968   5.581   0.886  0.0797  0.1355 -0.5337
   12MOL  Cl261 3803   8.010   5.748   0.890  0.1756 -0.1617  0.0778
   12MOL   C262 3804   8.032   5.485   0.966 -0.3584  0.0877 -0.4424
   12MOL   C263 3805   7.985   5.351   0.951 -0.4098  0.0150 -0.4248
   12MOL   C264 3806   7.887   5.309   0.866  0.3061  0.0690  0.5054
   12MOL   C265 3807   7.819   5.408   0.793 -0.4034  0.2294  0.8065
   12MOL   C266 3808   7.624   5.646   0.774  1.3131  0.4256 -0.2784
   12MOL   H267 3809   7.806   5.747   0.744 -0.2773  0.4427 -1.7530
   12MOL   H268 3810   8.097   5.510   1.049 -1.1452 -0.6657  0.4193
   12MOL   H269 3811   8.023   5.274   1.017  2.2277  1.7494  0.1997
   12MOL   H270 3812   7.855   5.206   0.858  0.4595  0.1119 -0.9558
   12MOL   H271 3813   7.728   5.384   0.740 -0.4896 -0.9536  1.4912
   12MOL   H272 3814   7.576   5.561   0.727  2.4890 -1.1302  1.2896
   12MOL   H273 3815   7.582   5.737   0.729 -0.1752 -0.2306 -0.2358
   12MOL   C274 3816   7.604   5.644   0.923 -0.1232 -0.8159 -0.3345
   12MOL   C275 3817   7.462   5.618   0.959 -0.2956 -0.8797 -0.9044
   12MOL   C276 3818   7.408   5.498   1.020  1.3930 -0.0334  0.2776
   12MOL  Cl277 3819   7.513   5.373   1.077 -0.0982  0.2378  0.0278
   12MOL   C278 3820   7.273   5.479   1.037  0.3616 -0.0307 -0.7395
   12MOL   C279 3821   7.184   5.582   1.005  0.0902  0.4398 -0.3733
   12MOL   C280 3822   7.237   5.705   0.967  0.1095 -0.4590  0.4754
   12MOL   C281 3823   7.370   5.715   0.933 -0.1624 -0.1414  0.1553
   12MOL   C282 3824   7.654   5.780   0.984 -0.0335  0.0965 -0.4489
   12MOL   H283 3825   7.663   5.566   0.970  0.4546  1.5625  3.0799
   12MOL   H284 3826   7.238   5.382   1.069  1.7068  0.4097  2.3187
   12MOL   H285 3827   7.079   5.566   1.025  0.2361 -0.0840 -0.0218
   12MOL   H286 3828   7.181   5.794   0.941  0.4811  0.3013  2.2148
   12MOL   H287 3829   7.394   5.803   0.875 -0.8086 -0.4016 -0.5172
   12MOL   H288 3830   7.604   5.857   0.924 -1.0381 -1.7837 -2.0900
   12MOL   H289 3831   7.759   5.787   0.958  0.1514 -0.4707  0.1379
   12MOL   C290 3832   7.635   5.808   1.133  0.2090 -0.5684  0.3223
   12MOL   C291 3833   7.678   5.950   1.164 -0.1969  0.2370  0.0479
   12MOL   C292 3834   7.590   6.053   1.208  0.1897  0.2360 -0.4081
   12MOL  Cl293 3835   7.419   6.038   1.192 -0.1206  0.0312 -0.2692
   12MOL   C294 3836   7.639   6.183   1.235 -0.2510 -0.7675  0.1207
   12MOL   C295 3837   7.774   6.215   1.213  0.3782  0.3855  0.0022
   12MOL   C296 3838   7.859   6.116   1.162 -0.1116 -0.8655  0.3029
   12MOL   C297 3839   7.815   5.989   1.142 -0.5437  0.0609 -0.2829
   12MOL   C298 3840   7.724   5.697   1.208 -0.3911 -0.5984 -0.3271
   12MOL   H299 3841   7.528   5.802   1.151  0.2041 -1.2204  0.0689
   12MOL   H300 3842   7.561   6.252   1.264 -0.6225 -1.7743  1.5825
   12MOL   H301 3843   7.808   6.314   1.242 -0.9336  0.1187  2.6290
   12MOL   H302 3844   7.965   6.135   1.151  0.0699 -2.3017 -0.5918
   12MOL   H303 3845   7.881   5.915   1.100 -0.6216 -0.6166  0.7680
   12MOL   H304 3846   7.827   5.710   1.177 -0.7418  2.4855 -0.3443
   12MOL   H305 3847   7.711   5.601   1.158  1.2005 -0.4421 -1.0635
   12MOL   C306 3848   7.704   5.685   1.357  0.1532  0.2532 -0.2239
   12MOL   C307 3849   7.819   5.621   1.424 -0.3538  0.0116  0.7303
   12MOL   C308 3850   7.838   5.644   1.566 -0.3916 -0.9246 -0.3411
   12MOL  Cl309 3851   7.737   5.741   1.668 -0.1030  0.5409 -0.0124
   12MOL   C310 3852   7.942   5.584   1.640 -0.2822 -0.6038  0.0112
   12MOL   C311 3853   8.030   5.502   1.576 -0.6484  0.2879 -0.0065
   12MOL   C312 3854   8.026   5.491   1.436 -0.2396 -0.3416  0.1063
   12MOL   C313 3855   7.919   5.544   1.364 -0.1084 -0.1259  0.4913
   12MOL   C314 3856   7.573   5.608   1.394  0.3829 -0.6819  0.0040
   12MOL   H315 3857   7.705   5.787   1.395 -1.7072  0.0879  0.3447
   12MOL   H316 3858   7.958   5.610   1.744 -0.5783  0.5381 -0.2257
   12MOL   H317 3859   8.113   5.455   1.626 -1.1581  2.8951  3.3885
   12MOL   H318 3860   8.101   5.430   1.388  0.5562  1.1427 -0.5959
   12MOL   H319 3861   7.921   5.524   1.258 -0.8029  2.7730 -0.1069
   12MOL   H320 3862   7.482   5.646   1.347  0.6636 -1.2086 -0.9820
   12MOL   H321 3863   7.560   5.624   1.501 -2.1644  2.2827 -0.6773
   12MOL   H322 3864   7.576   5.500   1.374  3.7939 -0.0510 -3.6379
   13MOL     C1 3865   0.724   4.400   5.443  0.6743  0.4295 -0.1482
   13MOL     C2 3866   0.710   4.539   5.387 -0.4597 -0.0403  1.0614
   13MOL     C3 3867   0.823   4.607   5.332  0.0791 -0.3385  0.3374
   13MOL    Cl4 3868   0.982   4.543   5.334 -0.5188  0.3383 -0.3208
   13MOL     C5 3869   0.805   4.734   5.272 -0.0108 -0.4646 -0.0368
   13MOL     C6 3870   0.676   4.790   5.286 -0.2175  0.3761 -0.3543
   13MOL     C7 3871   0.568   4.722   5.346 -0.1493  0.0908  0.4480
   13MOL     C8 3872   0.583   4.595   5.389  0.0523  0.1644  0.2237
   13MOL     C9 3873   0.710   4.402   5.592  0.6569  0.4685 -0.0122
   13MOL    H10 3874   0.656   4.329   5.396  0.4390  1.4649 -1.3791
   13MOL    H11 3875   0.884   4.774   5.210  1.5216  0.0096  2.1675
   13MOL    H12 3876   0.658   4.894   5.264 -0.3274  0.7881  1.6719
   13MOL    H13 3877   0.470   4.767   5.354 -1.3442 -2.7174  2.6008
   13MOL    H14 3878   0.497   4.538   5.422  0.3949  0.1108  1.0487
   13MOL    H15 3879   0.605   4.406   5.619 -0.4760  1.5612 -4.2867
   13MOL    H16 3880   0.764   4.489   5.630 -1.2722  1.7178 -0.0523
   13MOL    H17 3881   0.816   4.347   5.417 -0.0094 -2.1630  2.4549
   13MOL    C18 3882   0.767   4.277   5.663 -0.1390 -0.4137 -0.1683
   13MOL    C19 3883   0.657   4.173   5.656  0.6438 -0.5213  0.2923
   13MOL    C20 3884   0.691   4.041   5.621 -0.8844 -0.0374 -0.1575
   13MOL   Cl21 3885   0.852   3.993   5.577 -0.0318  0.0703  0.0017
   13MOL    C22 3886   0.596   3.933   5.633  0.3367  0.3165 -0.6308
   13MOL    C23 3887   0.466   3.961   5.688  0.8601  0.1151 -0.4097
   13MOL    C24 3888   0.439   4.090   5.733  0.1672 -0.6685  0.2009
   13MOL    C25 3889   0.536   4.191   5.724 -0.2970  0.2853  0.3397
   13MOL    C26 3890   0.804   4.307   5.810 -0.0527  0.2898 -1.1611
   13MOL    H27 3891   0.854   4.239   5.608 -0.1778  1.2604 -1.4412
   13MOL    H28 3892   0.620   3.828   5.622 -2.1162 -0.2019 -1.2877
   13MOL    H29 3893   0.399   3.876   5.693 -0.1471  0.8527 -1.2849
   13MOL    H30 3894   0.345   4.108   5.784  0.4934  1.4131  0.1027
   13MOL    H31 3895   0.517   4.289   5.763 -0.5946  0.6416 -0.6747
   13MOL    H32 3896   0.798   4.213   5.865  0.8602  0.3254 -0.9861
   13MOL    H33 3897   0.730   4.378   5.844  1.2188  1.3607 -0.5872
   13MOL    C34 3898   0.959   4.342   5.828  0.0142  0.0386  0.3390
   13MOL    C35 3899   0.985   4.348   5.982 -0.5928 -0.3277  0.4846
   13MOL    C36 3900   1.041   4.240   6.054  0.4852 -0.5228  0.7569
   13MOL   Cl37 3901   1.061   4.087   5.984 -0.0207  0.5079 -0.3864
   13MOL    C38 3902   1.064   4.255   6.193  0.8555 -0.4251 -0.2962
   13MOL    C39 3903   1.046   4.376   6.261 -0.3943 -0.3205 -0.0805
   13MOL    C40 3904   0.996   4.483   6.190  0.0801 -0.1254 -0.3918
   13MOL    C41 3905   0.968   4.467   6.056  0.8320 -0.2191 -0.4457
   13MOL    C42 3906   1.015   4.463   5.741  0.3684 -0.4548 -0.0945
   13MOL    H43 3907   1.008   4.249   5.799 -0.2285  0.4276 -1.3952
   13MOL    H44 3908   1.106   4.175   6.253 -2.0454 -0.8024  1.3506
   13MOL    H45 3909   1.076   4.389   6.364  0.1263 -1.8380 -0.0269
   13MOL    H46 3910   0.985   4.577   6.243  1.0454  0.0096 -0.4253
   13MOL    H47 3911   0.931   4.554   6.002 -2.9538  0.7090  3.3385
   13MOL    H48 3912   0.952   4.544   5.777  0.3210 -0.5121 -0.0463
   13MOL    H49 3913   0.988   4.453   5.636 -0.3737  0.1895  0.0331
   13MOL    C50 3914   1.168   4.483   5.762  0.0490  0.2392 -0.3262
   13MOL    C51 3915   1.197   4.626   5.802  0.8894 -0.2184  0.1825
   13MOL    C52 3916   1.266   4.664   5.921 -0.0368 -0.6018  0.5429
   13MOL   Cl53 3917   1.330   4.548   6.030  0.0835  0.2419 -0.2901
   13MOL    C54 3918   1.293   4.802   5.944 -0.4955 -0.1376 -0.9715
   13MOL    C55 3919   1.256   4.900   5.856 -0.3433 -0.2619 -0.5888
   13MOL    C56 3920   1.195   4.860   5.735 -0.0515  0.0286 -0.5215
   13MOL    C57 3921   1.167   4.721   5.707 -0.0512 -0.0582  0.2902
   13MOL    C58 3922   1.242   4.431   5.636 -0.1119 -0.3656 -0.3931
   13MOL    H59 3923   1.206   4.414   5.838  1.0415  1.2898  0.1439
   13MOL    H60 3924   1.345   4.827   6.036  0.7900 -3.8456 -0.5757
   13MOL    H61 3925   1.266   5.002   5.889  0.2597 -0.6341  0.3987
   13MOL    H62 3926   1.177   4.932   5.657  0.5717 -0.5541 -1.2043
   13MOL    H63 3927   1.114   4.691   5.618 -2.2850 -1.4382  2.0561
   13MOL    H64 3928   1.207   4.483   5.546  0.8057 -0.3539 -0.7418
   13MOL    H65 3929   1.209   4.329   5.616 -2.9363  0.0395  1.8517
   13MOL    C66 3930   1.399   4.441   5.632 -0.1069 -0.1727  0.0465
   13MOL    C67 3931   1.453   4.586   5.604  1.0802  0.2024  0.3322
   13MOL    C68 3932   1.540   4.647   5.692  0.0302  0.4032 -0.6478
   13MOL   Cl69 3933   1.603   4.563   5.823  0.2624 -0.1634  0.3633
   13MOL    C70 3934   1.586   4.783   5.680 -0.2627 -0.2180  0.7451
   13MOL    C71 3935   1.534   4.865   5.574  0.5343  0.0587 -0.0251
   13MOL    C72 3936   1.449   4.801   5.478  0.3142  0.4579  0.3744
   13MOL    C73 3937   1.416   4.659   5.487 -0.0578 -0.7804 -0.5470
   13MOL    C74 3938   1.461   4.344   5.530 -0.1338  0.0991  0.7350
   13MOL    H75 3939   1.424   4.409   5.733  1.1300 -1.4066 -0.6336
   13MOL    H76 3940   1.651   4.837   5.747 -0.5553  2.1089 -0.7859
   13MOL    H77 3941   1.565   4.967   5.556  0.9103 -0.2332 -1.0634
   13MOL    H78 3942   1.413   4.862   5.396 -1.2026  1.4163  1.7351
   13MOL    H79 3943   1.360   4.598   5.418 -0.0374 -0.2540 -1.0249
   13MOL    H80 3944   1.566   4.368   5.514 -0.7910  2.4281 -0.3817
   13MOL    H81 3945   1.406   4.364   5.438  0.6390  0.2084  0.2942
   13MOL    C82 3946   1.442   4.194   5.561 -0.7103 -0.6493  0.2561
   13MOL    C83 3947   1.468   4.150   5.709 -0.4519 -0.0052 -0.9020
   13MOL    C84 3948   1.389   4.046   5.780 -0.5501 -0.0365  0.2534
   13MOL   Cl85 3949   1.238   3.977   5.716  0.3605 -0.4055 -0.2595
   13MOL    C86 3950   1.428   4.013   5.915 -0.7033  0.5779 -0.1226
   13MOL    C87 3951   1.532   4.084   5.981  0.4363 -0.0786 -0.0880
   13MOL    C88 3952   1.603   4.184   5.912  0.1095 -0.5251 -0.3826
   13MOL    C89 3953   1.580   4.208   5.774  0.2621  0.8075 -0.1195
   13MOL    C90 3954   1.518   4.104   5.455  1.1976  0.2091  0.1196
   13MOL    H91 3955   1.336   4.169   5.555 -1.3294  1.3905  1.9277
   13MOL    H92 3956   1.378   3.938   5.974 -2.0466 -1.2600 -3.4506
   13MOL    H93 3957   1.550   4.071   6.087  0.2293  0.8511  0.0758
   13MOL    H94 3958   1.679   4.245   5.959 -3.0361  2.0875  1.4675
   13MOL    H95 3959   1.640   4.275   5.715 -0.5158  2.2634  0.7122
   13MOL    H96 3960   1.517   4.008   5.506  1.0116  0.8418  1.3350
   13MOL    H97 3961   1.624   4.126   5.444  1.4827 -1.4867 -0.7483
   13MOL    C98 3962   1.455   4.107   5.310  0.3984  0.7289 -0.3293
   13MOL    C99 3963   1.303   4.065   5.316 -0.7085 -0.2106  0.0088
   13MOL   C100 3964   1.202   4.148   5.263  0.9955  0.0089  0.0295
   13MOL  Cl101 3965   1.230   4.308   5.199  0.0068 -0.2050 -0.0679
   13MOL   C102 3966   1.073   4.098   5.254 -0.1469 -0.4772 -0.7064
   13MOL   C103 3967   1.041   3.974   5.304  0.0752  0.5287  0.2314
   13MOL   C104 3968   1.136   3.894   5.368 -0.0188  0.4293  0.6980
   13MOL   C105 3969   1.265   3.940   5.368 -0.2590 -0.5583  0.7206
   13MOL   C106 3970   1.526   4.003   5.222  0.6384  0.5944 -0.2197
   13MOL   H107 3971   1.463   4.213   5.283  0.1408  0.1129 -3.0011
   13MOL   H108 3972   0.992   4.153   5.208 -1.5330 -2.3914 -0.6156
   13MOL   H109 3973   0.941   3.935   5.294  0.6190 -1.0730  0.8077
   13MOL   H110 3974   1.114   3.792   5.394  0.5197 -0.0295 -0.5856
   13MOL   H111 3975   1.340   3.875   5.413  1.5020  2.4824  2.3615
   13MOL   H112 3976   1.471   3.982   5.131  1.6056 -1.0904 -0.4437
   13MOL   H113 3977   1.526   3.908   5.276  1.1192  0.6590 -0.1029
   13MOL   C114 3978   1.670   4.033   5.161  0.4396  0.6662  0.5296
   13MOL   C115 3979   1.676   4.168   5.094  0.8354 -0.4966  0.7623
   13MOL   C116 3980   1.750   4.280   5.145  0.6146 -0.1145 -0.0893
   13MOL  Cl117 3981   1.832   4.266   5.299  0.3879 -0.0592  0.3260
   13MOL   C118 3982   1.744   4.407   5.083  0.1503  0.0576 -0.2680
   13MOL   C119 3983   1.653   4.430   4.970 -0.2823 -0.1678  0.3079
   13MOL   C120 3984   1.585   4.324   4.918 -0.2566 -0.3981  0.4676
   13MOL   C121 3985   1.602   4.192   4.975 -0.4086  0.6024  0.2480
   13MOL   C122 3986   1.712   3.924   5.061  0.5364  0.0981 -0.1807
   13MOL   H123 3987   1.737   4.040   5.247  0.6266  1.6746  0.3064
   13MOL   H124 3988   1.811   4.486   5.115 -0.2631  0.7107 -0.9910
   13MOL   H125 3989   1.647   4.523   4.915 -0.0934  0.6096  1.5792
   13MOL   H126 3990   1.524   4.343   4.830  2.5418 -0.3930 -1.5206
   13MOL   H127 3991   1.540   4.111   4.941  1.6578  0.1766 -2.6932
   13MOL   H128 3992   1.811   3.946   5.021  0.5262 -0.9024 -0.7851
   13MOL   H129 3993   1.645   3.910   4.976  2.3703  0.1587 -1.6516
   13MOL   C130 3994   1.734   3.789   5.141  0.0307 -0.5268 -0.0263
   13MOL   C131 3995   1.823   3.792   5.269  0.2719 -0.3141 -0.0509
   13MOL   C132 3996   1.784   3.737   5.392  0.3657 -0.1072  0.5356
   13MOL  Cl133 3997   1.634   3.657   5.414 -0.0329  0.2817  0.0721
   13MOL   C134 3998   1.870   3.734   5.503  0.5494 -0.3972 -0.3267
   13MOL   C135 3999   2.001   3.784   5.492  0.1324 -0.1276 -0.1938
   13MOL   C136 4000   2.040   3.844   5.370 -0.3298 -0.9424 -0.0470
   13MOL   C137 4001   1.954   3.846   5.258  0.1441  0.0589 -0.1559
   13MOL   C138 4002   1.776   3.668   5.052  0.2518  0.8907  0.1119
   13MOL   H139 4003   1.633   3.766   5.174 -1.1702 -0.6934 -3.6077
   13MOL   H140 4004   1.836   3.680   5.590  1.1967 -1.1023 -0.4991
   13MOL   H141 4005   2.066   3.779   5.578  0.7996 -0.2070 -0.6997
   13MOL   H142 4006   2.138   3.885   5.353 -0.0633 -1.7517 -0.5392
   13MOL   H143 4007   1.996   3.881   5.166 -0.3982  1.7944  0.2349
   13MOL   H144 4008   1.826   3.585   5.102 -0.0646  1.7037  1.8131
   13MOL   H145 4009   1.854   3.712   4.990  0.7749  1.7369  1.3433
   13MOL   C146 4010   1.659   3.603   4.971  0.5749  0.5742  0.1856
   13MOL   C147 4011   1.564   3.507   5.060  0.0518  0.6926 -0.0554
   13MOL   C148 4012   1.420   3.532   5.069 -0.3106 -0.6887 -0.8845
   13MOL  Cl149 4013   1.349   3.662   4.974 -0.2251 -0.4390  0.0797
   13MOL   C150 4014   1.346   3.447   5.154 -0.3186  0.1825 -0.4391
   13MOL   C151 4015   1.405   3.348   5.229  0.3180 -0.3551 -0.6303
   13MOL   C152 4016   1.540   3.328   5.217 -0.2702  0.4922 -0.0160
   13MOL   C153 4017   1.621   3.402   5.127 -0.4441  0.5988 -0.2147
   13MOL   C154 4018   1.714   3.542   4.840 -0.4470 -0.0527  0.0392
   13MOL   H155 4019   1.596   3.685   4.938  1.0706  1.5042  1.4886
   13MOL   H156 4020   1.244   3.468   5.181 -0.8377  0.6841 -2.6837
   13MOL   H157 4021   1.357   3.293   5.309  0.8326 -1.5010 -1.0982
   13MOL   H158 4022   1.585   3.248   5.275 -1.9939 -0.7719 -0.3667
   13MOL   H159 4023   1.724   3.376   5.105 -0.5627 -0.3627  0.3376
   13MOL   H160 4024   1.635   3.476   4.802  0.6765 -0.0680 -2.3628
   13MOL   H161 4025   1.787   3.470   4.879 -0.1144  0.8100  1.0236
   13MOL   C162 4026   1.776   3.642   4.741 -0.0854 -0.1062  0.0755
   13MOL   C163 4027   1.684   3.766   4.705  0.0636  1.3558 -0.2616
   13MOL   C164 4028   1.737   3.896   4.714 -0.0443  0.1845 -0.2560
   13MOL  Cl165 4029   1.903   3.931   4.743  0.4982  0.5069  0.1370
   13MOL   C166 4030   1.644   4.003   4.702 -0.3020  0.3278  0.2050
   13MOL   C167 4031   1.504   3.977   4.675  0.3011 -0.1946  0.9757
   13MOL   C168 4032   1.455   3.850   4.650  0.1521 -0.2751 -0.4325
   13MOL   C169 4033   1.545   3.744   4.669 -0.1707  0.2851 -0.4252
   13MOL   C170 4034   1.823   3.567   4.614  0.1459 -0.5098 -0.1539
   13MOL   H171 4035   1.863   3.696   4.777  0.5319 -0.0133 -1.5159
   13MOL   H172 4036   1.681   4.103   4.715 -1.6240  1.0321 -1.2276
   13MOL   H173 4037   1.437   4.061   4.665  0.7146 -0.0615 -0.7923
   13MOL   H174 4038   1.351   3.825   4.641  0.0542 -0.4892  1.0564
   13MOL   H175 4039   1.507   3.644   4.660 -3.6479  1.5763 -0.7817
   13MOL   H176 4040   1.861   3.641   4.543 -0.2409  0.0873  0.2616
   13MOL   H177 4041   1.736   3.522   4.566 -0.3389  2.2894 -2.0433
   13MOL   C178 4042   1.936   3.459   4.642  0.2222  0.0921 -0.7047
   13MOL   C179 4043   2.052   3.510   4.732 -0.5762  0.1655  0.7428
   13MOL   C180 4044   2.091   3.442   4.850 -0.5718  0.3748 -0.6148
   13MOL  Cl181 4045   2.019   3.300   4.917 -0.3027  0.2719  0.0676
   13MOL   C182 4046   2.202   3.498   4.918  0.5117  0.7649 -0.7648
   13MOL   C183 4047   2.279   3.607   4.876 -0.1465  0.2450 -0.1046
   13MOL   C184 4048   2.242   3.667   4.755 -0.2356 -0.4989 -0.3848
   13MOL   C185 4049   2.127   3.623   4.692 -0.5104 -0.0001  0.4933
   13MOL   C186 4050   1.984   3.394   4.513 -0.0869 -0.3541  0.8223
   13MOL   H187 4051   1.881   3.386   4.701  0.8870  1.0104  1.1304
   13MOL   H188 4052   2.233   3.447   5.008  0.6531 -1.1296 -1.8664
   13MOL   H189 4053   2.368   3.631   4.932  0.9041 -2.6471 -0.4680
   13MOL   H190 4054   2.294   3.751   4.710 -1.3853  0.9432  0.8996
   13MOL   H191 4055   2.102   3.678   4.602 -0.2406  0.0636  0.4561
   13MOL   H192 4056   2.065   3.456   4.474  1.7069 -2.8530  0.4163
   13MOL   H193 4057   1.921   3.386   4.424  1.4469 -1.5235 -0.1842
   13MOL   C194 4058   2.019   3.243   4.537 -0.4117 -0.6522  0.4984
   13MOL   C195 4059   2.162   3.212   4.487  0.5002  0.1156  0.0692
   13MOL   C196 4060   2.266   3.154   4.570  0.0478 -0.6458 -0.4631
   13MOL  Cl197 4061   2.251   3.138   4.735  0.3701  0.2992  0.1877
   13MOL   C198 4062   2.390   3.109   4.508  0.3675 -0.4954  0.0944
   13MOL   C199 4063   2.400   3.117   4.367  0.4153  0.4315  0.3336
   13MOL   C200 4064   2.298   3.174   4.290 -0.3022 -0.0337  0.5394
   13MOL   C201 4065   2.182   3.223   4.349 -0.2031 -0.0484  0.3423
   13MOL   C202 4066   1.918   3.144   4.461 -0.2533 -0.1429 -0.5763
   13MOL   H203 4067   2.018   3.223   4.644  0.1543 -1.7653  0.3054
   13MOL   H204 4068   2.466   3.071   4.574  0.5412 -0.4651 -0.0871
   13MOL   H205 4069   2.490   3.077   4.324  0.9832  0.0838  1.8013
   13MOL   H206 4070   2.308   3.178   4.182 -1.6226 -3.1166  0.2482
   13MOL   H207 4071   2.103   3.270   4.293 -1.1027 -1.4390  0.4428
   13MOL   H208 4072   1.966   3.047   4.451  0.4140 -0.1653  2.3968
   13MOL   H209 4073   1.906   3.181   4.359 -0.7667 -2.3571 -1.3297
   13MOL   C210 4074   1.783   3.117   4.535 -0.2120 -0.0554  0.5699
   13MOL   C211 4075   1.797   3.057   4.676  0.5889 -0.3209 -0.7232
   13MOL   C212 4076   1.718   3.096   4.785  0.6308  0.4322  0.0938
   13MOL  Cl213 4077   1.593   3.212   4.775 -0.1774  0.0013 -0.2791
   13MOL   C214 4078   1.751   3.045   4.910  0.6616  0.8623 -0.3010
   13MOL   C215 4079   1.855   2.955   4.930 -0.4706  0.1642 -0.0187
   13MOL   C216 4080   1.938   2.920   4.821 -0.3713  0.2008  0.1841
   13MOL   C217 4081   1.902   2.962   4.699 -0.2344  0.2078 -0.2746
   13MOL   C218 4082   1.678   3.040   4.441 -0.0110 -0.2682  0.3604
   13MOL   H219 4083   1.737   3.214   4.550 -2.8131 -0.9343 -1.3205
   13MOL   H220 4084   1.691   3.077   4.994  0.0817  1.6863 -1.0210
   13MOL   H221 4085   1.865   2.917   5.031 -3.4534  1.0463  0.6612
   13MOL   H222 4086   2.020   2.850   4.825 -2.3154 -2.4124 -2.8705
   13MOL   H223 4087   1.952   2.909   4.619 -0.0204 -3.8337  2.4118
   13MOL   H224 4088   1.597   2.992   4.496 -0.3791 -0.6320 -0.4932
   13MOL   H225 4089   1.736   2.959   4.396 -1.0630 -1.4078  1.0259
   13MOL   C226 4090   1.603   3.120   4.341 -1.0101  0.2450 -0.1411
   13MOL   C227 4091   1.529   3.235   4.404  0.7421  0.0224 -0.6550
   13MOL   C228 4092   1.572   3.368   4.388 -0.6409 -0.7737  0.1960
   13MOL  Cl229 4093   1.702   3.415   4.284  0.0631  0.4444 -0.2392
   13MOL   C230 4094   1.490   3.473   4.443  0.2603 -0.6076 -0.6916
   13MOL   C231 4095   1.373   3.450   4.514 -0.1588 -0.8733 -0.6914
   13MOL   C232 4096   1.327   3.319   4.521  0.4114 -0.3274 -0.1433
   13MOL   C233 4097   1.403   3.215   4.467  0.1636  0.2024 -0.9647
   13MOL   C234 4098   1.525   3.048   4.236 -0.1369 -0.0271  0.1344
   13MOL   H235 4099   1.685   3.162   4.282 -0.0761 -2.1254 -0.5823
   13MOL   H236 4100   1.522   3.576   4.446 -0.6096 -0.3782  2.0469
   13MOL   H237 4101   1.331   3.538   4.561  2.5452 -0.3555  0.8344
   13MOL   H238 4102   1.233   3.305   4.573  2.2459  0.9915  3.7048
   13MOL   H239 4103   1.365   3.114   4.473  0.5417  0.0464 -1.1604
   13MOL   H240 4104   1.478   3.126   4.175  1.9012  1.3980  0.3383
   13MOL   H241 4105   1.445   2.998   4.291 -0.2342 -2.5595 -2.2057
   13MOL   C242 4106   1.582   2.934   4.145  0.1633  0.5018 -0.3079
   13MOL   C243 4107   1.704   2.975   4.073 -0.7719 -1.1479  0.0960
   13MOL   C244 4108   1.829   2.912   4.081  0.1991 -0.0740 -0.3804
   13MOL  Cl245 4109   1.847   2.773   4.191 -0.3271 -0.1823  0.0504
   13MOL   C246 4110   1.942   2.955   4.003  0.1174  0.0492 -0.5673
   13MOL   C247 4111   1.933   3.068   3.920  0.7176  0.2810  0.0822
   13MOL   C248 4112   1.812   3.139   3.927  0.1144  0.5328 -0.5110
   13MOL   C249 4113   1.705   3.098   4.005  0.4570  0.2384  0.9778
   13MOL   C250 4114   1.470   2.880   4.047 -0.2079 -0.5489 -0.2114
   13MOL   H251 4115   1.601   2.850   4.212  1.5727  1.0447  0.0012
   13MOL   H252 4116   2.034   2.898   4.005  0.0778 -0.0575 -1.4562
   13MOL   H253 4117   2.014   3.100   3.857 -0.2958  2.0209 -0.3696
   13MOL   H254 4118   1.803   3.223   3.860 -0.1165  0.1401 -0.9817
   13MOL   H255 4119   1.614   3.154   3.986 -0.0356 -0.3305  1.6207
   13MOL   H256 4120   1.513   2.794   3.995  0.0087 -0.2474 -0.5319
   13MOL   H257 4121   1.451   2.951   3.967 -0.9526  0.3961  0.7879
   13MOL   C258 4122   1.332   2.823   4.110  0.0481 -0.0233 -0.0162
   13MOL   C259 4123   1.360   2.715   4.224  0.0473 -0.0821 -0.0367
   13MOL   C260 4124   1.308   2.730   4.356 -0.5437  0.0937 -0.1013
   13MOL  Cl261 4125   1.189   2.852   4.385  0.0849 -0.1722  0.3050
   13MOL   C262 4126   1.359   2.641   4.456 -0.8077  0.0824  0.0847
   13MOL   C263 4127   1.461   2.542   4.433 -0.3579 -0.3973 -0.1196
   13MOL   C264 4128   1.502   2.522   4.298  0.0437 -0.0244  0.2675
   13MOL   C265 4129   1.449   2.603   4.197 -0.3493 -0.8240 -0.1594
   13MOL   C266 4130   1.239   2.765   3.995 -0.1408 -1.0716 -0.0275
   13MOL   H267 4131   1.274   2.902   4.157  0.5073  0.7090 -0.6481
   13MOL   H268 4132   1.327   2.662   4.557  1.0062  0.0931  0.6775
   13MOL   H269 4133   1.504   2.480   4.510 -1.6180  1.2553  1.9710
   13MOL   H270 4134   1.581   2.454   4.272  0.2598 -0.0506  0.9914
   13MOL   H271 4135   1.481   2.597   4.094 -0.7869  0.4846 -0.3846
   13MOL   H272 4136   1.151   2.715   4.034  1.0299 -2.5719  0.7314
   13MOL   H273 4137   1.294   2.684   3.947  0.0335 -1.2798  0.5229
   13MOL   C274 4138   1.191   2.874   3.893  0.3572  0.6281 -0.6431
   13MOL   C275 4139   1.116   2.990   3.966 -0.0075  0.3986 -0.0761
   13MOL   C276 4140   1.171   3.123   3.961 -0.0184  0.1220  0.7403
   13MOL  Cl277 4141   1.302   3.155   3.861 -0.0294 -0.1017  0.1006
   13MOL   C278 4142   1.121   3.223   4.045  0.6083  0.1274  0.4658
   13MOL   C279 4143   1.002   3.202   4.117  0.5673  0.4704 -0.3290
   13MOL   C280 4144   0.932   3.075   4.103 -1.0139 -0.0287 -0.0407
   13MOL   C281 4145   0.991   2.974   4.026  0.8070 -0.2778  0.3542
   13MOL   C282 4146   1.095   2.800   3.801 -0.3838 -0.7724 -0.4372
   13MOL   H283 4147   1.280   2.906   3.841  0.9211 -0.3665 -0.3102
   13MOL   H284 4148   1.162   3.324   4.048 -1.6515  1.1724 -2.4906
   13MOL   H285 4149   0.969   3.284   4.179  0.5464 -0.4584  0.8948
   13MOL   H286 4150   0.838   3.052   4.150 -1.2939  1.3369  0.0884
   13MOL   H287 4151   0.942   2.877   4.025 -1.7465  0.9455  2.3443
   13MOL   H288 4152   1.050   2.875   3.736  1.1662  0.5951  0.0284
   13MOL   H289 4153   1.008   2.762   3.854 -1.0117  1.4887  0.2121
   13MOL   C290 4154   1.158   2.676   3.727 -0.2785 -0.6674 -0.2559
   13MOL   C291 4155   1.280   2.722   3.647  0.5806 -0.1430 -0.1409
   13MOL   C292 4156   1.406   2.660   3.667 -0.0123  0.0292  0.0483
   13MOL  Cl293 4157   1.441   2.530   3.778  0.7560  0.1367  0.1632
   13MOL   C294 4158   1.514   2.706   3.590  0.3169 -0.0012 -0.3877
   13MOL   C295 4159   1.512   2.808   3.489  0.0859  0.0224 -0.0244
   13MOL   C296 4160   1.383   2.877   3.482 -0.4910  0.6972 -0.4818
   13MOL   C297 4161   1.275   2.834   3.556  0.2443  0.9030 -0.2199
   13MOL   C298 4162   1.054   2.601   3.635  0.5467  0.1555 -0.2936
   13MOL   H299 4163   1.182   2.595   3.795 -0.6651 -0.1432  0.5114
   13MOL   H300 4164   1.608   2.652   3.597 -0.6054 -1.8374 -1.8329
   13MOL   H301 4165   1.592   2.835   3.422  0.3125  2.0439  0.9994
   13MOL   H302 4166   1.375   2.949   3.401  2.1905  2.7399  0.9956
   13MOL   H303 4167   1.178   2.872   3.527 -0.7777 -1.7629 -0.4764
   13MOL   H304 4168   1.003   2.678   3.577 -0.3225 -0.9404 -1.0316
   13MOL   H305 4169   0.990   2.551   3.708  0.3040  1.2138  0.2307
   13MOL   C306 4170   1.117   2.489   3.546 -0.1435 -0.4261  0.6496
   13MOL   C307 4171   1.029   2.455   3.422 -0.1311 -0.3984 -0.1803
   13MOL   C308 4172   0.887   2.450   3.426 -0.0646  0.1886 -0.2571
   13MOL  Cl309 4173   0.784   2.466   3.563  0.0651 -0.0920  0.2042
   13MOL   C310 4174   0.813   2.417   3.310 -0.7547 -0.1092 -0.3499
   13MOL   C311 4175   0.879   2.388   3.190  0.5455 -0.4556  0.1114
   13MOL   C312 4176   1.022   2.394   3.187  0.7367  0.2233 -0.5170
   13MOL   C313 4177   1.096   2.416   3.302 -0.1765  0.1857 -0.4046
   13MOL   C314 4178   1.146   2.360   3.635 -0.1917  0.3482 -0.2088
   13MOL   H315 4179   1.214   2.524   3.512 -0.4157  1.8479  2.1208
   13MOL   H316 4180   0.705   2.423   3.314 -0.8074 -0.5174 -1.1712
   13MOL   H317 4181   0.825   2.369   3.098  0.6471 -0.3385  0.0252
   13MOL   H318 4182   1.080   2.378   3.097  0.4491  0.4247 -0.7378
   13MOL   H319 4183   1.203   2.421   3.291  0.0720 -0.2286  1.6521
   13MOL   H320 4184   1.049   2.327   3.674  0.0913 -0.1287  0.1028
   13MOL   H321 4185   1.221   2.375   3.712 -0.5366 -0.0540  0.2073
   13MOL   H322 4186   1.188   2.283   3.570  1.5126  1.2795 -0.2394
   14MOL     C1 4187   1.663   2.816   0.381  0.1221  0.5454 -0.7355
   14MOL     C2 4188   1.633   2.950   0.305  0.0236  0.6201  0.0214
   14MOL     C3 4189   1.735   3.000   0.217  0.2524 -0.1621 -0.3551
   14MOL    Cl4 4190   1.893   2.932   0.206  0.3020  0.1547  0.0602
   14MOL     C5 4191   1.721   3.112   0.140 -0.6385 -0.2428  0.5355
   14MOL     C6 4192   1.592   3.169   0.131 -0.0529  0.0503  0.1355
   14MOL     C7 4193   1.481   3.105   0.202 -0.0578  0.3922 -1.3558
   14MOL     C8 4194   1.505   3.006   0.294  0.3460 -1.3291 -0.0955
   14MOL     C9 4195   1.660   2.704   0.286  0.1835 -0.3856  0.0017
   14MOL    H10 4196   1.756   2.831   0.435  0.2290 -0.3618 -0.6529
   14MOL    H11 4197   1.798   3.155   0.078 -1.0128 -0.3366  0.0001
   14MOL    H12 4198   1.578   3.251   0.063 -0.6471 -1.1887 -1.2757
   14MOL    H13 4199   1.382   3.140   0.179  0.2892  1.5279 -1.1202
   14MOL    H14 4200   1.425   2.949   0.338  0.6519 -1.5303  0.1988
   14MOL    H15 4201   1.761   2.682   0.251  1.7928  2.2195  2.7530
   14MOL    H16 4202   1.600   2.729   0.199  0.4402 -0.6274 -0.2459
   14MOL    H17 4203   1.588   2.811   0.461  1.1032 -0.8262  0.1255
   14MOL    C18 4204   1.593   2.571   0.350 -0.1842 -0.1552  0.0229
   14MOL    C19 4205   1.600   2.464   0.240 -0.3346 -0.7516  0.0189
   14MOL    C20 4206   1.670   2.342   0.261  0.0867 -0.0024 -0.1139
   14MOL   Cl21 4207   1.729   2.309   0.413  0.1732  0.3164  0.2137
   14MOL    C22 4208   1.685   2.243   0.160 -0.0125 -0.3398  0.1103
   14MOL    C23 4209   1.617   2.265   0.041  0.2770  0.3479  0.8533
   14MOL    C24 4210   1.545   2.381   0.012 -0.1892 -0.6902  0.1535
   14MOL    C25 4211   1.542   2.482   0.113 -0.4516  0.2150 -0.0342
   14MOL    C26 4212   1.449   2.591   0.400 -0.2313  0.7330  0.4213
   14MOL    H27 4213   1.650   2.544   0.438 -0.8179 -1.4606  0.0378
   14MOL    H28 4214   1.731   2.147   0.176  1.1863 -0.0439 -1.3978
   14MOL    H29 4215   1.624   2.203   8.373  1.6844  0.4241  0.9080
   14MOL    H30 4216   1.508   2.410   8.335 -1.6882 -0.0118  0.9038
   14MOL    H31 4217   1.485   2.572   0.091 -1.3779 -0.3272  0.1442
   14MOL    H32 4218   1.397   2.641   0.319 -1.7943 -0.1102  0.8890
   14MOL    H33 4219   1.446   2.662   0.483  1.8069  1.3508  0.0038
   14MOL    C34 4220   1.372   2.470   0.455  0.2944 -0.1519  0.7028
   14MOL    C35 4221   1.223   2.498   0.436  0.0686  0.8723  0.2637
   14MOL    C36 4222   1.150   2.439   0.329  0.0573 -0.3876 -1.0138
   14MOL   Cl37 4223   1.229   2.328   0.221  0.0864 -0.1773  0.3659
   14MOL    C38 4224   1.018   2.477   0.305  1.0365 -0.2991  0.0912
   14MOL    C39 4225   0.950   2.569   0.386 -0.3860  0.0885 -0.2530
   14MOL    C40 4226   1.019   2.623   0.495  0.4942 -0.4605 -0.1606
   14MOL    C41 4227   1.157   2.594   0.516 -1.1630  0.0095 -0.6398
   14MOL    C42 4228   1.413   2.439   0.603  0.8840  0.0048 -0.1839
   14MOL    H43 4229   1.402   2.387   0.390  1.3175  1.0022 -0.3185
   14MOL    H44 4230   0.958   2.430   0.227  1.6319  0.6958 -0.9825
   14MOL    H45 4231   0.852   2.608   0.362 -0.4021  0.3369  0.1958
   14MOL    H46 4232   0.961   2.682   0.564 -0.2986 -0.6814 -0.6376
   14MOL    H47 4233   1.218   2.654   0.582  1.1005 -0.7168 -2.0132
   14MOL    H48 4234   1.378   2.521   0.665 -0.1396  0.4417 -1.3174
   14MOL    H49 4235   1.521   2.429   0.596  0.7814 -1.1026 -0.2858
   14MOL    C50 4236   1.350   2.302   0.659  0.3852 -0.1815 -0.3662
   14MOL    C51 4237   1.249   2.333   0.767 -0.1531 -0.1649  0.5771
   14MOL    C52 4238   1.110   2.302   0.751 -0.0549 -0.0238  0.4521
   14MOL   Cl53 4239   1.048   2.235   0.605  0.0826 -0.2589 -0.1147
   14MOL    C54 4240   1.029   2.316   0.866 -0.0877 -0.0759 -0.3612
   14MOL    C55 4241   1.072   2.374   0.986 -0.0280 -0.2113 -0.4009
   14MOL    C56 4242   1.212   2.406   0.999  0.6921  0.1603  0.0170
   14MOL    C57 4243   1.293   2.373   0.893  0.3008 -0.3574 -0.5290
   14MOL    C58 4244   1.448   2.193   0.703  0.1543 -0.1688  0.4923
   14MOL    H59 4245   1.297   2.262   0.572  0.3788 -1.9176  0.4162
   14MOL    H60 4246   0.926   2.284   0.862 -0.2595  0.4139  0.0248
   14MOL    H61 4247   1.008   2.383   1.073 -2.0946  2.9197 -2.1618
   14MOL    H62 4248   1.253   2.431   1.095 -2.4195  0.8260  1.2454
   14MOL    H63 4249   1.397   2.378   0.923 -0.2366  1.1963  1.1128
   14MOL    H64 4250   1.521   2.231   0.776  0.3751 -0.3460  0.3661
   14MOL    H65 4251   1.512   2.161   0.620 -1.0128  0.4863 -0.6658
   14MOL    C66 4252   1.392   2.067   0.777  0.2636  0.4820 -0.3553
   14MOL    C67 4253   1.513   1.990   0.830 -0.8257 -0.3005  0.1211
   14MOL    C68 4254   1.534   1.971   0.969  0.0766  0.1245 -0.2528
   14MOL   Cl69 4255   1.429   2.033   1.093 -0.0392  0.1140  0.0826
   14MOL    C70 4256   1.639   1.898   1.009 -0.3608  0.2381  0.0060
   14MOL    C71 4257   1.737   1.838   0.924  0.3263 -0.3248 -0.2822
   14MOL    C72 4258   1.721   1.859   0.785  0.1031  0.2580  0.3330
   14MOL    C73 4259   1.609   1.933   0.739 -0.8962 -0.3800 -0.2692
   14MOL    C74 4260   1.308   1.976   0.687  0.3216  0.4146  0.1280
   14MOL    H75 4261   1.326   2.092   0.860 -1.2142 -0.6740 -1.1580
   14MOL    H76 4262   1.642   1.892   1.117  1.7430 -0.4337 -0.0608
   14MOL    H77 4263   1.820   1.783   0.967 -0.3349 -2.0399 -1.1472
   14MOL    H78 4264   1.788   1.816   0.712  0.4714  2.2246 -0.5057
   14MOL    H79 4265   1.584   1.947   0.635 -2.6784  1.8967  0.4121
   14MOL    H80 4266   1.380   1.925   0.623 -0.1806 -0.2463  0.0728
   14MOL    H81 4267   1.240   2.019   0.613 -1.1419 -0.7568  0.7616
   14MOL    C82 4268   1.220   1.870   0.754 -0.4561  0.2130 -0.3636
   14MOL    C83 4269   1.193   1.756   0.658 -0.3735  0.2553 -1.5750
   14MOL    C84 4270   1.255   1.626   0.675 -1.0137 -0.2799 -0.8475
   14MOL   Cl85 4271   1.361   1.591   0.807 -0.1414 -0.0587 -0.0773
   14MOL    C86 4272   1.236   1.533   0.570 -0.3899 -0.0576 -0.0565
   14MOL    C87 4273   1.157   1.562   0.458 -0.2576 -0.3157  0.9212
   14MOL    C88 4274   1.099   1.688   0.441  1.0418  0.2149 -0.8216
   14MOL    C89 4275   1.118   1.783   0.546 -0.1725 -0.0107 -0.2721
   14MOL    C90 4276   1.076   1.923   0.790 -0.4439 -0.4364 -0.6467
   14MOL    H91 4277   1.264   1.831   0.846  0.9559 -0.3488 -1.2586
   14MOL    H92 4278   1.290   1.440   0.577  1.7648  1.1322 -0.2729
   14MOL    H93 4279   1.140   1.488   0.381 -0.9153 -0.7126  1.4466
   14MOL    H94 4280   1.024   1.708   0.366 -0.6956 -0.4998  0.6770
   14MOL    H95 4281   1.074   1.879   0.523  0.9011  0.3903 -0.6704
   14MOL    H96 4282   0.992   1.902   0.724 -1.8987  0.4570  0.8733
   14MOL    H97 4283   1.089   2.032   0.789  0.2583 -0.4436  1.9920
   14MOL    C98 4284   1.018   1.897   0.931  0.5027 -0.1544  0.1245
   14MOL    C99 4285   1.028   1.750   0.974 -0.2318 -0.7227  0.1141
   14MOL   C100 4286   1.093   1.702   1.087  0.6638  0.3923 -0.1255
   14MOL  Cl101 4287   1.180   1.809   1.196  0.0327 -0.1700 -0.0317
   14MOL   C102 4288   1.095   1.562   1.108  0.2799 -0.2678  0.4001
   14MOL   C103 4289   1.031   1.468   1.017 -0.3181 -0.7278 -0.2095
   14MOL   C104 4290   0.966   1.522   0.905 -0.3062 -0.0520  0.5373
   14MOL   C105 4291   0.973   1.656   0.880 -1.0103 -0.3134 -0.4901
   14MOL   C106 4292   0.873   1.953   0.943 -0.0650  0.6349  0.0329
   14MOL   H107 4293   1.075   1.960   1.000  1.4674 -2.4640  1.4937
   14MOL   H108 4294   1.157   1.516   1.183  1.1138  1.9120  1.0694
   14MOL   H109 4295   1.039   1.363   1.043  0.8626 -0.6353 -0.1552
   14MOL   H110 4296   0.910   1.446   0.853  2.1102 -1.7455  0.2991
   14MOL   H111 4297   0.912   1.687   0.796 -2.0562 -1.5109 -0.1941
   14MOL   H112 4298   0.806   1.875   0.906  0.2533  0.2225  0.3241
   14MOL   H113 4299   0.864   2.031   0.868 -1.3457  1.9267  1.5033
   14MOL   C114 4300   0.828   2.005   1.079  0.1479  0.2148  0.3752
   14MOL   C115 4301   0.837   1.899   1.190  0.5799 -0.3203 -0.3320
   14MOL   C116 4302   0.901   1.921   1.310  0.3870 -0.7560 -0.2968
   14MOL  Cl117 4303   0.987   2.072   1.335  0.0235 -0.4306  0.4353
   14MOL   C118 4304   0.889   1.829   1.419 -0.0300  0.7468  0.9816
   14MOL   C119 4305   0.820   1.710   1.407  0.4092 -0.7037  0.1526
   14MOL   C120 4306   0.758   1.680   1.281  0.0719  0.7571 -0.5307
   14MOL   C121 4307   0.765   1.775   1.178  0.9308 -0.2405 -0.3645
   14MOL   C122 4308   0.685   2.050   1.058 -0.6151 -0.4032  0.2866
   14MOL   H123 4309   0.889   2.094   1.095 -0.9050  0.9622  0.3022
   14MOL   H124 4310   0.937   1.854   1.512  1.2861  1.3765  0.1546
   14MOL   H125 4311   0.828   1.653   1.498  1.5376  0.3096  0.7080
   14MOL   H126 4312   0.706   1.586   1.270 -2.3794  1.8068  1.5518
   14MOL   H127 4313   0.717   1.756   1.083  1.7345  0.6036 -0.9489
   14MOL   H128 4314   0.615   1.969   1.079 -0.4951 -0.0762  1.9780
   14MOL   H129 4315   0.675   2.077   0.952 -0.5953  0.0262  0.3915
   14MOL   C130 4316   0.649   2.181   1.133  0.5180  0.5745 -0.0869
   14MOL   C131 4317   0.664   2.184   1.283  0.4448  0.1029 -0.1900
   14MOL   C132 4318   0.733   2.286   1.354  0.0258 -0.0442  0.2388
   14MOL  Cl133 4319   0.819   2.405   1.264  0.0319 -0.3935  0.0815
   14MOL   C134 4320   0.731   2.298   1.492 -0.7058 -0.0390 -0.4873
   14MOL   C135 4321   0.669   2.203   1.576  0.2806  0.4629  0.5107
   14MOL   C136 4322   0.608   2.095   1.502  0.6850  0.4878 -0.1691
   14MOL   C137 4323   0.606   2.084   1.362  0.6840 -0.4812  0.3717
   14MOL   C138 4324   0.511   2.234   1.095 -0.6909 -0.5901  0.5729
   14MOL   H139 4325   0.718   2.254   1.092 -1.1885  1.8336 -0.7961
   14MOL   H140 4326   0.772   2.382   1.546  0.7128 -1.8537  1.3136
   14MOL   H141 4327   0.651   2.210   1.682 -1.4747  3.1682  0.1033
   14MOL   H142 4328   0.572   2.010   1.559 -0.0034  0.6830 -0.3066
   14MOL   H143 4329   0.559   1.993   1.330 -1.6196  0.1518  1.7928
   14MOL   H144 4330   0.494   2.320   1.160  1.0001 -0.6894  1.1652
   14MOL   H145 4331   0.439   2.157   1.123 -1.3742 -1.0091 -2.1560
   14MOL   C146 4332   0.490   2.276   0.945 -0.1023  0.2401 -0.1739
   14MOL   C147 4333   0.588   2.385   0.913  0.0383 -0.2336  0.1239
   14MOL   C148 4334   0.663   2.385   0.787  0.1542  0.0129 -0.2105
   14MOL  Cl149 4335   0.663   2.250   0.676 -0.0170  0.1904 -0.5043
   14MOL   C150 4336   0.741   2.502   0.759  0.0496 -0.4509 -0.1883
   14MOL   C151 4337   0.746   2.608   0.849  0.1685  0.4828 -0.4312
   14MOL   C152 4338   0.672   2.611   0.967 -0.4242 -0.3755 -0.0494
   14MOL   C153 4339   0.593   2.501   1.001 -0.5889 -0.5172  0.5516
   14MOL   C154 4340   0.346   2.330   0.917 -1.3678 -0.4382  0.0231
   14MOL   H155 4341   0.495   2.190   0.878 -1.1632  0.5426 -0.6585
   14MOL   H156 4342   0.785   2.525   0.663  0.2132  1.4534  0.3252
   14MOL   H157 4343   0.791   2.697   0.808  1.9391 -0.5062 -0.7072
   14MOL   H158 4344   0.679   2.696   1.034  0.3107 -1.8642  1.8367
   14MOL   H159 4345   0.542   2.498   1.096  0.1005  0.5773  0.9639
   14MOL   H160 4346   0.348   2.347   0.809 -0.1130 -3.6219 -0.5246
   14MOL   H161 4347   0.339   2.428   0.963 -0.4867 -0.8361  1.0281
   14MOL   C162 4348   0.235   2.232   0.954 -0.2151 -0.3319 -0.1598
   14MOL   C163 4349   0.253   2.088   0.902  0.2121 -0.7035 -0.0862
   14MOL   C164 4350   0.257   1.975   0.983  0.4883  0.2843  0.3835
   14MOL  Cl165 4351   0.220   1.984   1.154  0.1965  0.2009 -0.1328
   14MOL   C166 4352   0.280   1.847   0.926 -0.1286 -0.1958  0.9866
   14MOL   C167 4353   0.309   1.834   0.788 -0.2818  0.0559 -0.3628
   14MOL   C168 4354   0.309   1.951   0.706 -0.8163  0.1142 -0.1779
   14MOL   C169 4355   0.287   2.073   0.767 -0.3947 -0.6722 -0.0637
   14MOL   C170 4356   0.086   2.281   0.922  0.2207  0.6848  0.2883
   14MOL   H171 4357   0.251   2.226   1.062  3.5635 -1.6265 -0.7188
   14MOL   H172 4358   0.276   1.753   0.979 -1.3404 -0.9869 -0.4924
   14MOL   H173 4359   0.331   1.743   0.736  1.6663  1.2060 -1.6104
   14MOL   H174 4360   0.323   1.945   0.599 -0.4411 -0.7809 -0.0841
   14MOL   H175 4361   0.287   2.157   0.699  0.7620 -0.5098  0.1346
   14MOL   H176 4362   0.027   2.192   0.946  0.5288  0.9162  2.0035
   14MOL   H177 4363   0.072   2.279   0.814  0.6888 -0.7530  0.2356
   14MOL   C178 4364   0.042   2.411   1.007  0.5421  0.3132  0.2269
   14MOL   C179 4365   0.099   2.404   1.148  0.3243  0.1481 -0.1657
   14MOL   C180 4366   0.182   2.500   1.204  0.0770 -0.3042 -0.0618
   14MOL  Cl181 4367   0.271   2.628   1.125 -0.1421  0.1409  0.1880
   14MOL   C182 4368   0.227   2.478   1.335 -0.2011  0.3520  0.0339
   14MOL   C183 4369   0.192   2.367   1.412  0.4323 -0.5900 -0.5270
   14MOL   C184 4370   0.110   2.274   1.362 -0.6207  0.0654  0.7081
   14MOL   C185 4371   0.056   2.293   1.233  0.3167 -0.9683 -0.2983
   14MOL   C186 4372   8.304   2.418   1.018 -0.0936  0.3887 -0.3384
   14MOL   H187 4373   0.075   2.502   0.957 -0.9272  1.1395  0.7413
   14MOL   H188 4374   0.284   2.564   1.370  1.6753 -1.2289  0.9896
   14MOL   H189 4375   0.240   2.345   1.506  1.8380 -2.5792 -1.6759
   14MOL   H190 4376   0.066   2.191   1.414 -1.2654  0.1441  0.2937
   14MOL   H191 4377   8.406   2.214   1.211 -1.2836  0.3295  0.1151
   14MOL   H192 4378   8.273   2.504   1.077 -1.0530 -0.9838  1.1789
   14MOL   H193 4379   8.266   2.339   1.081 -1.5059  0.7522 -0.7281
   14MOL   C194 4380   8.233   2.417   0.879  0.2155  1.1600 -0.4282
   14MOL   C195 4381   8.221   2.551   0.820 -0.5313  0.8572 -0.0960
   14MOL   C196 4382   8.311   2.583   0.714 -0.5555  0.2922  0.0601
   14MOL  Cl197 4383   0.009   2.470   0.651  0.1591  0.3044  0.0893
   14MOL   C198 4384   8.308   2.713   0.652  0.0608 -0.3650 -0.2019
   14MOL   C199 4385   8.227   2.815   0.703 -0.1263 -0.3688  0.0112
   14MOL   C200 4386   8.145   2.785   0.810  0.0340  0.6125 -1.6560
   14MOL   C201 4387   8.144   2.659   0.870  0.2100 -0.3096 -0.6135
   14MOL   C202 4388   8.096   2.346   0.909  0.0539  0.3297  0.2985
   14MOL   H203 4389   8.290   2.345   0.819  0.6772  2.2372 -1.2827
   14MOL   H204 4390   8.380   2.731   0.573  0.2114  1.4243  0.3243
   14MOL   H205 4391   8.217   2.910   0.654 -0.9016  0.1248  1.0955
   14MOL   H206 4392   8.080   2.860   0.853 -0.2608  0.1125 -1.2266
   14MOL   H207 4393   8.074   2.647   0.952  2.7208  0.2052  1.6663
   14MOL   H208 4394   8.028   2.373   0.828 -0.4956  1.2986  1.0591
   14MOL   H209 4395   8.052   2.392   0.998 -0.2208 -0.4729  0.5836
   14MOL   C210 4396   8.100   2.186   0.911 -0.1580  0.8144  0.2995
   14MOL   C211 4397   8.153   2.124   0.775 -0.3200 -0.3920  0.0353
   14MOL   C212 4398   8.230   2.007   0.771  0.3911  0.2998 -0.5161
   14MOL  Cl213 4399   8.260   1.926   0.917  0.4092 -0.2396 -0.1605
   14MOL   C214 4400   8.288   1.959   0.657  0.2894  0.4198  0.0175
   14MOL   C215 4401   8.263   2.016   0.532 -0.0616  0.1072 -0.0409
   14MOL   C216 4402   8.173   2.125   0.529 -0.6015  0.1951 -0.3278
   14MOL   C217 4403   8.132   2.183   0.650 -0.3426 -0.6031 -0.5602
   14MOL   C218 4404   7.968   2.119   0.964  0.0300 -0.0822  0.0149
   14MOL   H219 4405   8.171   2.153   0.987 -0.1303 -1.5738 -0.7154
   14MOL   H220 4406   8.353   1.873   0.666 -1.2343 -0.8760 -1.1240
   14MOL   H221 4407   8.291   1.972   0.437  1.9506  1.5171 -0.1156
   14MOL   H222 4408   8.157   2.164   0.430 -1.2822 -0.2375 -0.3947
   14MOL   H223 4409   8.083   2.278   0.646 -0.7428 -0.6434  2.3381
   14MOL   H224 4410   7.986   2.012   0.954 -0.2517 -0.1349  0.0781
   14MOL   H225 4411   7.885   2.142   0.896 -0.6953  2.0318  1.5615
   14MOL   C226 4412   7.928   2.152   1.107  0.3734  0.0536  0.2449
   14MOL   C227 4413   8.020   2.090   1.217 -0.4297  0.8979  0.1260
   14MOL   C228 4414   8.055   2.169   1.331  0.6064  0.1703  0.1658
   14MOL  Cl229 4415   8.010   2.332   1.356 -0.2305  0.2088  0.1526
   14MOL   C230 4416   8.129   2.111   1.437 -0.0454  0.4912 -0.1142
   14MOL   C231 4417   8.175   1.973   1.420 -0.2334  0.3985  0.1906
   14MOL   C232 4418   8.143   1.901   1.302  0.2172  0.0190  0.6002
   14MOL   C233 4419   8.053   1.954   1.206 -0.5274  0.5871  0.5209
   14MOL   C234 4420   7.783   2.128   1.145 -0.4839  0.0339 -0.1068
   14MOL   H235 4421   7.952   2.256   1.130 -1.1870 -0.0841  2.6403
   14MOL   H236 4422   8.159   2.162   1.528  1.3267 -0.9178  0.2381
   14MOL   H237 4423   8.229   1.933   1.504  2.3720  3.3250 -0.0194
   14MOL   H238 4424   8.183   1.802   1.282  1.6268  0.6955  0.0431
   14MOL   H239 4425   8.018   1.888   1.128 -0.4938  1.5621 -0.3334
   14MOL   H240 4426   7.790   2.157   1.250  0.2641 -0.5454  0.0049
   14MOL   H241 4427   7.777   2.019   1.153  1.5752 -0.2194 -1.4349
   14MOL   C242 4428   7.657   2.184   1.068 -0.4025  0.9135 -0.4437
   14MOL   C243 4429   7.683   2.325   1.018 -0.4928 -0.2430 -0.2587
   14MOL   C244 4430   7.668   2.351   0.881 -0.0988 -1.0317  0.7946
   14MOL  Cl245 4431   7.607   2.227   0.773  0.0749 -0.2938 -0.1823
   14MOL   C246 4432   7.709   2.475   0.823  0.0420  0.1055  0.3984
   14MOL   C247 4433   7.756   2.573   0.915  0.2482  0.0243  0.1117
   14MOL   C248 4434   7.772   2.545   1.051  0.6963 -0.5515 -0.5799
   14MOL   C249 4435   7.737   2.423   1.104  0.2633 -0.6313  0.3412
   14MOL   C250 4436   7.529   2.175   1.161 -0.0953 -0.0844  0.1463
   14MOL   H251 4437   7.639   2.120   0.981  2.3944  3.1560 -2.7481
   14MOL   H252 4438   7.718   2.500   0.718  0.8599  1.9227  0.8861
   14MOL   H253 4439   7.783   2.671   0.880 -1.9539  0.4237 -0.5904
   14MOL   H254 4440   7.815   2.620   1.116  0.8408  0.5162 -1.9063
   14MOL   H255 4441   7.745   2.407   1.211 -2.2689 -3.7212  0.1474
   14MOL   H256 4442   7.445   2.198   1.096 -0.7163 -0.5599  0.7678
   14MOL   H257 4443   7.520   2.252   1.238 -1.3177 -0.3973  0.3331
   14MOL   C258 4444   7.492   2.040   1.228  0.2895 -0.3545 -0.1437
   14MOL   C259 4445   7.498   1.916   1.130  0.0220  0.2923 -0.6140
   14MOL   C260 4446   7.575   1.802   1.152  0.7216  0.3629 -0.3462
   14MOL  Cl261 4447   7.672   1.785   1.294 -0.0230 -0.0923  0.0870
   14MOL   C262 4448   7.558   1.692   1.066  0.9932  0.4540  0.1680
   14MOL   C263 4449   7.463   1.695   0.956 -0.7347  0.4003 -0.2545
   14MOL   C264 4450   7.400   1.817   0.928 -0.1940  0.0633  0.5137
   14MOL   C265 4451   7.419   1.926   1.017 -0.1971 -0.6311 -0.3450
   14MOL   C266 4452   7.361   2.040   1.319  0.2160 -0.1136  0.0572
   14MOL   H267 4453   7.573   2.010   1.295 -2.1523 -2.7565  1.8641
   14MOL   H268 4454   7.624   1.608   1.079 -0.0283 -0.5231 -0.9088
   14MOL   H269 4455   7.444   1.618   0.882 -1.6154  0.0711  0.2988
   14MOL   H270 4456   7.320   1.823   0.856  0.0828  0.3406  0.2342
   14MOL   H271 4457   7.361   2.016   1.007  1.4879  0.8466  2.4834
   14MOL   H272 4458   7.300   1.953   1.297  2.2794 -1.2280 -1.4103
   14MOL   H273 4459   7.305   2.127   1.285  0.5970  0.0403 -0.1873
   14MOL   C274 4460   7.399   2.064   1.465  0.6535 -0.2560  0.7098
   14MOL   C275 4461   7.454   1.948   1.548  0.1663 -0.0892  0.1198
   14MOL   C276 4462   7.587   1.964   1.607 -0.7748 -0.2035 -0.0905
   14MOL  Cl277 4463   7.680   2.103   1.588 -0.0080  0.3106  0.0819
   14MOL   C278 4464   7.628   1.857   1.688 -0.5074  0.1246  0.4192
   14MOL   C279 4465   7.559   1.735   1.688  0.3283  0.3798  0.0290
   14MOL   C280 4466   7.434   1.716   1.629 -0.0012 -0.1340  0.4607
   14MOL   C281 4467   7.382   1.826   1.557 -0.0524 -1.0695  0.3348
   14MOL   C282 4468   7.274   2.123   1.540 -0.0310  0.4340  0.4099
   14MOL   H283 4469   7.468   2.148   1.469 -0.2754  0.5149  0.6030
   14MOL   H284 4470   7.728   1.859   1.730 -0.8560 -0.1864  1.2872
   14MOL   H285 4471   7.613   1.645   1.714  1.9891  1.3318 -0.0359
   14MOL   H286 4472   7.375   1.627   1.644 -2.6156  1.7705  1.9112
   14MOL   H287 4473   7.282   1.825   1.516 -0.1522 -0.2492  0.5403
   14MOL   H288 4474   7.208   2.041   1.569 -1.3625  1.5431  0.5518
   14MOL   H289 4475   7.220   2.191   1.474  1.5001  0.9379 -0.3317
   14MOL   C290 4476   7.312   2.214   1.663 -0.2936 -0.0578  0.2043
   14MOL   C291 4477   7.190   2.222   1.756  0.7238  0.0395  0.1461
   14MOL   C292 4478   7.178   2.137   1.867  0.1308  0.4317 -0.1905
   14MOL  Cl293 4479   7.284   1.999   1.901 -0.0619 -0.0773 -0.0026
   14MOL   C294 4480   7.065   2.149   1.953  1.0764  0.3524  0.0954
   14MOL   C295 4481   6.969   2.247   1.928  0.0230 -1.0461  0.0412
   14MOL   C296 4482   6.978   2.326   1.812  0.3275 -0.7665 -0.6938
   14MOL   C297 4483   7.088   2.316   1.727  0.2811  0.1306 -0.1938
   14MOL   C298 4484   7.361   2.360   1.629 -0.2079  0.0225  0.0021
   14MOL   H299 4485   7.387   2.159   1.719 -2.4260 -1.2636  1.9588
   14MOL   H300 4486   7.056   2.085   2.039  2.4082 -0.3997 -0.3097
   14MOL   H301 4487   6.882   2.246   1.992 -0.1072  0.3325 -0.1037
   14MOL   H302 4488   6.912   2.411   1.810  0.9230 -0.2827 -0.1318
   14MOL   H303 4489   7.097   2.374   1.637 -0.1274  1.0533  0.3485
   14MOL   H304 4490   7.281   2.423   1.589 -1.2770 -1.6850 -0.5661
   14MOL   H305 4491   7.429   2.347   1.545  1.4688  2.3796  0.9260
   14MOL   C306 4492   7.426   2.443   1.752 -0.5335 -0.4448  0.0627
   14MOL   C307 4493   7.316   2.522   1.831 -0.6379 -0.0680 -0.0702
   14MOL   C308 4494   7.295   2.502   1.968  0.3869 -0.9214 -0.5124
   14MOL  Cl309 4495   7.372   2.377   2.055 -0.0719 -0.2161  0.0040
   14MOL   C310 4496   7.203   2.575   2.039 -0.4650 -0.2068  0.1486
   14MOL   C311 4497   7.131   2.682   1.979 -0.5693 -0.3188  0.2636
   14MOL   C312 4498   7.150   2.705   1.842 -0.5939  0.0550  0.2090
   14MOL   C313 4499   7.244   2.625   1.769 -0.3875 -0.1893  0.0301
   14MOL   C314 4500   7.533   2.536   1.682 -0.6247 -0.4125 -0.0568
   14MOL   H315 4501   7.484   2.380   1.820 -0.2114 -1.1528 -0.8426
   14MOL   H316 4502   7.179   2.545   2.140 -1.9620 -1.8247 -0.6523
   14MOL   H317 4503   7.069   2.752   2.033 -1.0145 -0.3462 -0.2026
   14MOL   H318 4504   7.096   2.785   1.794  0.4098 -1.9241 -4.5301
   14MOL   H319 4505   7.264   2.656   1.668  1.4114  1.4649  0.8470
   14MOL   H320 4506   7.577   2.600   1.759  4.1975 -2.9242 -0.4870
   14MOL   H321 4507   7.487   2.605   1.612  0.4285  0.1451 -0.2163
   14MOL   H322 4508   7.615   2.481   1.635  0.2136  1.3017 -0.6274
   15MOL     C1 4509   2.267   5.084   1.012  0.1553  0.3239  0.4534
   15MOL     C2 4510   2.393   5.065   0.921  0.5200  0.4872 -0.5007
   15MOL     C3 4511   2.400   5.123   0.794  0.2801  1.0458  0.2574
   15MOL    Cl4 4512   2.264   5.201   0.721 -0.0400  0.0430 -0.3649
   15MOL     C5 4513   2.516   5.100   0.719 -0.4651 -0.3008  0.2323
   15MOL     C6 4514   2.626   5.025   0.777  0.1752 -0.4396 -0.4199
   15MOL     C7 4515   2.627   4.980   0.910  0.5949  0.1827  0.0110
   15MOL     C8 4516   2.506   5.000   0.978  0.2907  1.0254 -0.6888
   15MOL     C9 4517   2.168   4.966   0.996  0.1552 -0.1985 -0.2891
   15MOL    H10 4518   2.305   5.099   1.114 -0.3404  1.9311  0.4141
   15MOL    H11 4519   2.523   5.128   0.615  0.4262  0.9055  0.5947
   15MOL    H12 4520   2.711   5.012   0.712  1.0822  0.5148  0.5612
   15MOL    H13 4521   2.705   4.920   0.954  0.6221  1.9299  2.4182
   15MOL    H14 4522   2.492   4.954   1.075  1.5025 -2.4123 -2.0690
   15MOL    H15 4523   2.198   4.870   1.037 -2.0676 -0.2173  1.4126
   15MOL    H16 4524   2.166   4.954   0.888  2.2230  0.0681 -0.3662
   15MOL    H17 4525   2.218   5.178   0.989 -0.9829 -0.0879  1.1478
   15MOL    C18 4526   2.020   4.987   1.049 -0.3954  0.2785  0.2828
   15MOL    C19 4527   2.025   4.986   1.207  0.4832 -0.1382  0.9883
   15MOL    C20 4528   2.003   5.102   1.284 -0.7048  0.0178 -0.9539
   15MOL   Cl21 4529   1.964   5.250   1.211  0.3865  0.1733 -0.3331
   15MOL    C22 4530   2.009   5.092   1.423  0.3980  0.1021  0.0211
   15MOL    C23 4531   2.054   4.970   1.479  0.0863  0.1201 -0.1726
   15MOL    C24 4532   2.074   4.854   1.399  0.2157  0.7334 -0.9842
   15MOL    C25 4533   2.066   4.865   1.261  0.1809 -0.1632  0.3927
   15MOL    C26 4534   1.920   4.889   0.993  0.0392 -0.4110  0.1985
   15MOL    H27 4535   1.981   5.084   1.019  0.8018  0.4561 -0.7375
   15MOL    H28 4536   1.979   5.176   1.484  0.9859  0.1734  0.2191
   15MOL    H29 4537   2.071   4.972   1.586  2.6525 -1.4345 -0.5207
   15MOL    H30 4538   2.103   4.757   1.438 -0.7891  0.5976 -0.5511
   15MOL    H31 4539   2.089   4.783   1.194 -2.1964 -0.3140 -0.2987
   15MOL    H32 4540   1.986   4.803   0.987  2.2779  1.2702  0.4497
   15MOL    H33 4541   1.899   4.914   0.889 -2.3796 -0.3123  0.6783
   15MOL    C34 4542   1.780   4.859   1.055 -0.0269  0.4925  0.5786
   15MOL    C35 4543   1.794   4.734   1.144  0.2664 -0.7183 -0.1007
   15MOL    C36 4544   1.740   4.745   1.278 -0.5553 -0.1835  0.4961
   15MOL   Cl37 4545   1.647   4.882   1.337 -0.1147  0.3594  0.1469
   15MOL    C38 4546   1.765   4.641   1.370  0.9062 -0.2577  0.2669
   15MOL    C39 4547   1.847   4.528   1.332 -0.0431  0.5236  0.3359
   15MOL    C40 4548   1.892   4.519   1.201  0.0448 -0.2951 -0.1200
   15MOL    C41 4549   1.861   4.619   1.102 -0.3433  0.1418  0.4679
   15MOL    C42 4550   1.675   4.836   0.938  0.0587  0.5870  0.3633
   15MOL    H43 4551   1.750   4.943   1.118 -2.2528 -0.0334  0.2909
   15MOL    H44 4552   1.712   4.646   1.464 -0.1457 -1.2368 -0.2597
   15MOL    H45 4553   1.864   4.458   1.412  0.2383  0.6022  0.3417
   15MOL    H46 4554   1.950   4.430   1.184  0.3697 -0.0465 -0.3193
   15MOL    H47 4555   1.898   4.597   1.003 -0.2346 -0.3691  0.6207
   15MOL    H48 4556   1.592   4.771   0.966 -0.8227  0.4265 -2.4862
   15MOL    H49 4557   1.724   4.778   0.860 -2.4723 -1.7138  0.4069
   15MOL    C50 4558   1.609   4.961   0.876 -0.2949 -0.7524 -0.2693
   15MOL    C51 4559   1.597   5.080   0.981  0.6844 -1.1586  0.0872
   15MOL    C52 4560   1.673   5.201   0.955  0.1707 -0.3767  0.4503
   15MOL   Cl53 4561   1.796   5.227   0.839  0.1775  0.1651 -0.3130
   15MOL    C54 4562   1.650   5.307   1.045 -0.2631 -0.4712  0.3387
   15MOL    C55 4563   1.558   5.299   1.152  0.6659  0.5928  0.0927
   15MOL    C56 4564   1.481   5.177   1.172 -0.1190 -0.1499 -0.4125
   15MOL    C57 4565   1.506   5.066   1.089 -0.2757  0.3079 -0.4995
   15MOL    C58 4566   1.476   4.941   0.794  0.4628  0.2451 -0.8518
   15MOL    H59 4567   1.688   4.987   0.806  1.4410  1.3505  2.3499
   15MOL    H60 4568   1.722   5.387   1.032  1.3924 -2.2664 -1.8476
   15MOL    H61 4569   1.555   5.384   1.218  0.0668  1.3121 -0.8455
   15MOL    H62 4570   1.408   5.172   1.251  2.3571  2.7606  2.2228
   15MOL    H63 4571   1.463   4.968   1.103  1.4346 -0.4299 -0.3254
   15MOL    H64 4572   1.420   5.034   0.786  0.0615  0.2986  1.8142
   15MOL    H65 4573   1.406   4.871   0.841  1.9214 -0.5754  0.1185
   15MOL    C66 4574   1.501   4.890   0.647  0.1934  0.0673 -0.2498
   15MOL    C67 4575   1.527   5.003   0.550 -0.0039 -0.4234  0.2086
   15MOL    C68 4576   1.657   5.034   0.503  0.2789  0.6074 -0.4196
   15MOL   Cl69 4577   1.796   4.934   0.537  0.5081  0.0223  0.1764
   15MOL    C70 4578   1.673   5.135   0.409  0.0011 -0.9446  0.3902
   15MOL    C71 4579   1.564   5.222   0.374  0.2899  0.1626  0.7553
   15MOL    C72 4580   1.432   5.194   0.422  0.1018 -0.0900 -0.1192
   15MOL    C73 4581   1.418   5.081   0.508  0.5114  0.0261  0.6778
   15MOL    C74 4582   1.397   4.797   0.595  0.5169  0.0944 -0.4066
   15MOL    H75 4583   1.588   4.825   0.657 -0.2123 -0.0296  3.1443
   15MOL    H76 4584   1.773   5.159   0.376  1.4225 -2.4483  3.4515
   15MOL    H77 4585   1.586   5.310   0.315  1.4840 -0.3415  0.4348
   15MOL    H78 4586   1.345   5.257   0.408  0.8873  1.4754  1.7245
   15MOL    H79 4587   1.316   5.065   0.539  0.8668  2.2284  3.0592
   15MOL    H80 4588   1.300   4.848   0.592 -0.6339 -2.0611 -1.5478
   15MOL    H81 4589   1.383   4.721   0.671 -0.9335 -2.1311 -2.7964
   15MOL    C82 4590   1.423   4.730   0.459 -0.5619 -0.3361 -1.5595
   15MOL    C83 4591   1.344   4.795   0.342  0.4946 -0.0956  1.4899
   15MOL    C84 4592   1.397   4.845   0.221 -0.2835 -0.6810  0.1185
   15MOL   Cl85 4593   1.567   4.852   0.196 -0.4825  0.1465 -0.0732
   15MOL    C86 4594   1.317   4.910   0.127 -0.3874  0.0815 -0.1232
   15MOL    C87 4595   1.181   4.920   0.145 -0.4286 -0.0624 -0.7989
   15MOL    C88 4596   1.121   4.858   0.259 -0.6655 -0.7896  0.1135
   15MOL    C89 4597   1.203   4.796   0.358  0.3636 -0.1969  0.2145
   15MOL    C90 4598   1.401   4.579   0.465 -0.2441 -0.1634  0.3854
   15MOL    H91 4599   1.530   4.751   0.445 -0.0144 -0.0622  2.4927
   15MOL    H92 4600   1.372   4.936   0.038 -1.7605  0.2382 -0.9396
   15MOL    H93 4601   1.123   4.972   0.070 -1.7033  0.1034  0.2798
   15MOL    H94 4602   1.014   4.856   0.273 -0.8273  0.8802 -0.6740
   15MOL    H95 4603   1.162   4.744   0.443  1.4186 -0.3966  0.6056
   15MOL    H96 4604   1.417   4.550   0.361 -1.7186  2.9739 -0.7994
   15MOL    H97 4605   1.296   4.563   0.486  0.6516  0.3677  6.0988
   15MOL    C98 4606   1.489   4.486   0.546  0.0108 -0.0711  0.2157
   15MOL    C99 4607   1.639   4.529   0.536 -0.2124 -0.3314 -0.1045
   15MOL   C100 4608   1.723   4.529   0.650 -0.1875 -0.0730 -0.8386
   15MOL  Cl101 4609   1.679   4.467   0.806  0.2485  0.0091  0.0209
   15MOL   C102 4610   1.852   4.576   0.649  0.3239 -0.9601  0.3673
   15MOL   C103 4611   1.907   4.610   0.521  0.0631  0.1797  0.2089
   15MOL   C104 4612   1.834   4.598   0.400  0.1471  0.3525  0.1663
   15MOL   C105 4613   1.697   4.565   0.412 -0.1602  0.3044  0.6315
   15MOL   C106 4614   1.473   4.340   0.516 -0.2015 -0.2081 -0.2574
   15MOL   H107 4615   1.455   4.504   0.649 -0.1874  0.0116  0.1355
   15MOL   H108 4616   1.916   4.585   0.735 -0.3917 -1.2816  0.9383
   15MOL   H109 4617   2.006   4.652   0.523 -0.0553  0.4894 -0.1885
   15MOL   H110 4618   1.873   4.629   0.304  1.2762 -0.6537  0.2722
   15MOL   H111 4619   1.639   4.571   0.321  1.7085  1.5083 -0.5193
   15MOL   H112 4620   1.560   4.283   0.547  1.3774  1.2219 -1.9923
   15MOL   H113 4621   1.479   4.327   0.408  1.3842 -1.3805 -0.0431
   15MOL   C114 4622   1.340   4.276   0.568 -0.3496 -0.5340  0.0823
   15MOL   C115 4623   1.334   4.289   0.715 -0.1451  0.0518 -0.1457
   15MOL   C116 4624   1.238   4.364   0.785  0.2316 -0.4154  1.4298
   15MOL  Cl117 4625   1.124   4.463   0.699  0.3922 -0.3323  0.1444
   15MOL   C118 4626   1.229   4.369   0.926 -0.1276  0.5849  0.3814
   15MOL   C119 4627   1.311   4.286   1.004 -0.0617 -0.4148  0.7825
   15MOL   C120 4628   1.415   4.216   0.946 -0.4578 -0.3989  1.1343
   15MOL   C121 4629   1.420   4.211   0.801  0.2189 -0.7401  0.9285
   15MOL   C122 4630   1.325   4.131   0.525 -0.4410 -0.3325 -0.1456
   15MOL   H123 4631   1.257   4.335   0.530  1.1248  0.9991 -0.8480
   15MOL   H124 4632   1.146   4.420   0.973 -1.1051 -0.3795 -0.3077
   15MOL   H125 4633   1.298   4.281   1.111  0.8344  0.7286  0.9554
   15MOL   H126 4634   1.492   4.173   1.009  0.8293  0.8402  0.4219
   15MOL   H127 4635   1.500   4.151   0.761  1.0723  1.0434 -0.0937
   15MOL   H128 4636   1.271   4.070   0.598  0.2858 -1.0885 -0.2252
   15MOL   H129 4637   1.421   4.079   0.532 -1.2780 -1.7595  1.0092
   15MOL   C130 4638   1.260   4.110   0.387  0.1903  0.3811 -0.3779
   15MOL   C131 4639   1.111   4.148   0.396  0.1066  0.0556  0.5947
   15MOL   C132 4640   1.060   4.267   0.343 -0.8417 -0.7498 -0.2989
   15MOL  Cl133 4641   1.153   4.363   0.233  0.2978 -0.2635  0.2130
   15MOL   C134 4642   0.927   4.307   0.362  0.0494  0.3078  0.3268
   15MOL   C135 4643   0.844   4.221   0.443  0.1872 -0.5025 -0.4292
   15MOL   C136 4644   0.889   4.102   0.492 -0.0494 -0.5421 -0.0984
   15MOL   C137 4645   1.027   4.068   0.469 -0.0323  0.0960  0.3051
   15MOL   C138 4646   1.286   3.972   0.323  0.6348  0.0222  0.4845
   15MOL   H139 4647   1.313   4.182   0.324  1.6975 -0.9598 -0.6850
   15MOL   H140 4648   0.897   4.402   0.321  0.3773  0.9605  1.5729
   15MOL   H141 4649   0.745   4.252   0.472  0.3250 -0.0510 -0.4395
   15MOL   H142 4650   0.834   4.049   0.569  0.1737 -1.2147 -0.3988
   15MOL   H143 4651   1.059   3.979   0.522 -1.0486  0.2527  1.1992
   15MOL   H144 4652   1.217   3.972   0.238  0.1108 -1.5779  0.9054
   15MOL   H145 4653   1.234   3.895   0.381  1.4972 -1.7143 -0.9933
   15MOL   C146 4654   1.428   3.933   0.274  0.1985 -0.1252 -0.0898
   15MOL   C147 4655   1.486   4.010   0.161 -0.6061 -0.0472  1.1469
   15MOL   C148 4656   1.604   4.086   0.174  0.3528  0.6855 -0.1817
   15MOL  Cl149 4657   1.688   4.102   0.322  0.0475  0.3755 -0.1901
   15MOL   C150 4658   1.650   4.153   0.060 -0.1463 -0.6164 -0.3834
   15MOL   C151 4659   1.590   4.148   8.355  0.7078 -0.0665  0.3537
   15MOL   C152 4660   1.483   4.059   8.336  0.4270 -0.4760  0.4727
   15MOL   C153 4661   1.431   3.993   0.031  0.0244 -0.3003 -0.3831
   15MOL   C154 4662   1.446   3.780   0.253  0.2190 -0.1432 -0.5702
   15MOL   H155 4663   1.490   3.960   0.360  1.5953  0.0947 -1.1318
   15MOL   H156 4664   1.735   4.219   0.071 -0.9235  0.4502 -0.6715
   15MOL   H157 4665   1.613   4.212   8.271 -0.3058 -0.1357  0.0175
   15MOL   H158 4666   1.432   4.047   8.242  3.9594 -2.5049 -1.3083
   15MOL   H159 4667   1.343   3.935   0.010 -1.0759  1.2951 -0.2603
   15MOL   H160 4668   1.549   3.758   0.226  1.2751  1.6792  1.7194
   15MOL   H161 4669   1.378   3.741   0.178 -0.3084 -1.1972  0.4391
   15MOL   C162 4670   1.450   3.703   0.385 -0.1018  0.5290 -0.7439
   15MOL   C163 4671   1.579   3.727   0.469 -0.0053  0.5161  0.0440
   15MOL   C164 4672   1.585   3.788   0.592  0.2950  0.1351  0.4648
   15MOL  Cl165 4673   1.442   3.844   0.671 -0.0826  0.4278 -0.0941
   15MOL   C166 4674   1.705   3.807   0.664  0.5112 -0.3442  0.7562
   15MOL   C167 4675   1.820   3.763   0.603  0.1343 -0.0149  0.0080
   15MOL   C168 4676   1.814   3.688   0.485  0.3834 -0.2669 -0.9717
   15MOL   C169 4677   1.696   3.669   0.419 -0.1121  0.1632  0.6879
   15MOL   C170 4678   1.426   3.550   0.366  0.2271 -0.2185  0.3457
   15MOL   H171 4679   1.357   3.732   0.434  0.6356  1.3951  0.1898
   15MOL   H172 4680   1.710   3.856   0.760  0.9627  1.3589 -0.1188
   15MOL   H173 4681   1.913   3.771   0.658  0.4190 -2.8522  0.0108
   15MOL   H174 4682   1.900   3.637   0.444 -0.3678 -3.0779  0.7983
   15MOL   H175 4683   1.690   3.617   0.324  0.4369  0.8981  0.2481
   15MOL   H176 4684   1.508   3.523   0.299  0.4460  0.4344  0.3460
   15MOL   H177 4685   1.332   3.535   0.314  1.4206  0.8710 -2.2273
   15MOL   C178 4686   1.420   3.455   0.484 -0.3130 -0.0495 -0.0645
   15MOL   C179 4687   1.553   3.395   0.525  0.0531  0.3606 -0.2306
   15MOL   C180 4688   1.594   3.397   0.659 -0.8719 -0.8461  0.3422
   15MOL  Cl181 4689   1.492   3.445   0.775 -0.1446 -0.0550  0.2204
   15MOL   C182 4690   1.719   3.340   0.691  0.6870 -0.0773 -0.2824
   15MOL   C183 4691   1.786   3.268   0.597  0.8132  0.5604  0.1155
   15MOL   C184 4692   1.744   3.266   0.460 -0.6317  0.2989  0.1448
   15MOL   C185 4693   1.625   3.326   0.424  0.1371 -0.4568  0.5237
   15MOL   C186 4694   1.315   3.347   0.459  0.1703 -0.4413  0.3293
   15MOL   H187 4695   1.385   3.524   0.560 -1.0904 -1.2180  0.6335
   15MOL   H188 4696   1.757   3.338   0.792  1.9261  0.3901 -0.7216
   15MOL   H189 4697   1.879   3.217   0.615  0.1518 -0.3090  1.1450
   15MOL   H190 4698   1.799   3.211   0.385  0.8418 -1.7647  2.6713
   15MOL   H191 4699   1.576   3.320   0.327  0.3901  1.1683  0.2754
   15MOL   H192 4700   1.330   3.276   0.540  2.8935  0.0387  0.2996
   15MOL   H193 4701   1.349   3.302   0.365  0.3328 -0.7681  0.5458
   15MOL   C194 4702   1.165   3.398   0.471  0.2223  0.3196  0.1312
   15MOL   C195 4703   1.120   3.409   0.618  0.2423 -0.2495 -0.2927
   15MOL   C196 4704   1.071   3.535   0.673  0.4122 -0.0532 -0.3248
   15MOL  Cl197 4705   1.079   3.684   0.586 -0.3819 -0.2098 -0.1804
   15MOL   C198 4706   1.013   3.531   0.799 -0.2929 -0.4007 -0.4040
   15MOL   C199 4707   1.008   3.417   0.882 -0.1942 -0.7819 -0.8711
   15MOL   C200 4708   1.061   3.295   0.835 -0.1555  0.2071  0.1024
   15MOL   C201 4709   1.121   3.290   0.704  0.8611 -0.0992  0.4247
   15MOL   C202 4710   1.068   3.304   0.388 -0.5963 -0.5594  0.1028
   15MOL   H203 4711   1.158   3.501   0.437 -3.2040 -0.0004 -0.3431
   15MOL   H204 4712   0.976   3.623   0.842 -0.3621 -0.2448 -0.7971
   15MOL   H205 4713   0.965   3.431   0.980  2.6785  2.4425  0.0109
   15MOL   H206 4714   1.064   3.206   0.897  1.8104 -0.6288 -1.1452
   15MOL   H207 4715   1.149   3.194   0.664 -1.9439 -1.2587  1.1005
   15MOL   H208 4716   0.964   3.323   0.415 -0.1626  1.7393  0.1753
   15MOL   H209 4717   1.086   3.200   0.418 -0.4093 -0.1418  1.4630
   15MOL   C210 4718   1.081   3.317   0.234 -0.1884 -0.6222 -0.3685
   15MOL   C211 4719   1.079   3.468   0.191 -1.0081  0.4496 -0.0315
   15MOL   C212 4720   1.173   3.519   0.090 -0.0803  0.5093 -0.9622
   15MOL  Cl213 4721   1.292   3.423   0.007  0.0346 -0.3250  0.1123
   15MOL   C214 4722   1.162   3.655   0.056  0.6768 -0.1081  0.0270
   15MOL   C215 4723   1.060   3.736   0.113 -0.7175 -0.2761 -0.8760
   15MOL   C216 4724   0.972   3.685   0.210  0.0309 -0.0934  0.2916
   15MOL   C217 4725   0.980   3.548   0.257 -0.6673 -0.1699  0.3144
   15MOL   C218 4726   0.964   3.238   0.159  0.2143 -0.1832  0.6198
   15MOL   H219 4727   1.173   3.278   0.192  0.9849  1.9774 -0.3452
   15MOL   H220 4728   1.229   3.698   8.403  1.4573 -0.1664  0.7022
   15MOL   H221 4729   1.044   3.840   0.091 -1.6009  0.3942  2.6952
   15MOL   H222 4730   0.899   3.754   0.250 -1.1374 -0.7025 -0.7524
   15MOL   H223 4731   0.917   3.511   0.336  0.1250 -1.5098  0.3406
   15MOL   H224 4732   0.980   3.269   0.056 -1.0267  0.6941  0.6817
   15MOL   H225 4733   0.869   3.278   0.193  1.0297  1.9711  0.4233
   15MOL   C226 4734   0.967   3.082   0.166 -0.5613  0.5412 -0.2580
   15MOL   C227 4735   1.084   3.022   0.092  0.2649  0.0473  0.2184
   15MOL   C228 4736   1.172   2.934   0.153  0.0843  0.3864  0.7369
   15MOL  Cl229 4737   1.156   2.897   0.320 -0.0107  0.2632  0.0327
   15MOL   C230 4738   1.274   2.881   0.082 -0.4452 -0.1388  0.2779
   15MOL   C231 4739   1.287   2.904   8.361 -0.2272 -0.1362  0.8644
   15MOL   C232 4740   1.207   3.002   8.299 -0.4456 -0.0094  0.3350
   15MOL   C233 4741   1.101   3.058   8.376 -0.0949  0.0615 -0.1816
   15MOL   C234 4742   0.840   3.000   0.120  0.0171  0.3331 -0.4634
   15MOL   H235 4743   0.973   3.060   0.272  0.6320 -1.8073 -0.7830
   15MOL   H236 4744   1.351   2.821   0.128  0.0777 -0.5074 -1.0607
   15MOL   H237 4745   1.361   2.860   8.295 -1.0274  1.6163 -1.2526
   15MOL   H238 4746   1.221   3.029   8.195 -1.2551 -0.8139  0.0128
   15MOL   H239 4747   1.029   3.126   8.334 -0.2696 -1.1941 -2.0003
   15MOL   H240 4748   0.856   2.893   0.131  0.5801  0.5930  1.5640
   15MOL   H241 4749   0.816   3.015   0.015  0.2420 -0.1436 -0.5838
   15MOL   C242 4750   0.708   3.038   0.198 -0.2956 -0.1275  0.3052
   15MOL   C243 4751   0.719   3.054   0.353 -0.7363  0.2125  0.2098
   15MOL   C244 4752   0.698   3.175   0.423 -0.4712 -0.5151 -0.0610
   15MOL  Cl245 4753   0.676   3.327   0.338  0.3526 -0.4234  0.1162
   15MOL   C246 4754   0.693   3.175   0.559 -0.2363  0.0897  0.7911
   15MOL   C247 4755   0.708   3.052   0.628  0.1257 -0.6212 -0.3475
   15MOL   C248 4756   0.733   2.926   0.560  0.3948 -0.4058  0.0320
   15MOL   C249 4757   0.741   2.932   0.422 -0.8644  0.0244 -0.6759
   15MOL   C250 4758   0.592   2.940   0.164  0.1537 -0.2059 -0.1012
   15MOL   H251 4759   0.689   3.139   0.162  2.5077  0.1343 -0.5370
   15MOL   H252 4760   0.665   3.267   0.607  0.4614 -0.2043  1.7716
   15MOL   H253 4761   0.693   3.048   0.735 -3.0784  0.8923 -0.6560
   15MOL   H254 4762   0.735   2.832   0.612 -0.3444  0.6605  2.0604
   15MOL   H255 4763   0.752   2.841   0.365 -1.4184 -0.1829 -0.4556
   15MOL   H256 4764   0.502   2.932   0.226 -0.3501 -0.4390 -0.8500
   15MOL   H257 4765   0.623   2.836   0.156 -0.1946 -0.2051 -1.6037
   15MOL   C258 4766   0.518   2.977   0.031  0.1768 -0.2168  0.4159
   15MOL   C259 4767   0.450   3.109   0.033 -0.4476  0.2652  0.6886
   15MOL   C260 4768   0.446   3.193   8.337 -0.0796  0.3544  0.0357
   15MOL  Cl261 4769   0.520   3.146   8.195 -0.4599  0.1841 -0.3400
   15MOL   C262 4770   0.404   3.323   8.342 -0.6159 -0.0209 -0.3387
   15MOL   C263 4771   0.342   3.363   0.034 -0.5735  0.5462 -0.0538
   15MOL   C264 4772   0.322   3.280   0.150 -0.4865  0.7150 -0.3017
   15MOL   C265 4773   0.374   3.152   0.143  0.1848 -0.0778  0.1897
   15MOL   C266 4774   0.415   2.873   0.002  0.2079  0.6125 -0.1837
   15MOL   H267 4775   0.594   2.967   8.374  1.0164  2.9969  0.7763
   15MOL   H268 4776   0.418   3.388   8.257 -1.2393 -1.6124 -1.6819
   15MOL   H269 4777   0.311   3.466   0.027 -1.1753  0.5004  1.6566
   15MOL   H270 4778   0.281   3.315   0.244 -1.0073  0.3741 -0.4043
   15MOL   H271 4779   0.369   3.087   0.229  0.8044 -0.8731 -0.3677
   15MOL   H272 4780   0.361   2.903   8.332  1.1319 -1.5218 -1.4904
   15MOL   H273 4781   0.336   2.886   0.075  0.9892 -0.4725  0.8570
   15MOL   C274 4782   0.450   2.723   8.411 -0.1164  0.2250  0.3053
   15MOL   C275 4783   0.541   2.701   8.285  0.3299 -0.0285 -1.0301
   15MOL   C276 4784   0.663   2.629   8.289  0.2152  0.0832 -0.6561
   15MOL  Cl277 4785   0.734   2.557   0.013  0.0072 -0.5284 -0.0524
   15MOL   C278 4786   0.735   2.611   8.170  0.1375 -0.0499 -0.2106
   15MOL   C279 4787   0.690   2.662   8.048  0.1814  0.1085 -0.6859
   15MOL   C280 4788   0.573   2.737   8.045 -0.5235  0.2560  0.0090
   15MOL   C281 4789   0.502   2.752   8.162  0.5280  0.0193 -0.3921
   15MOL   C282 4790   0.326   2.631   8.413 -0.4371 -0.2096  0.1320
   15MOL   H283 4791   0.513   2.693   0.074  2.2519 -0.0331 -1.5216
   15MOL   H284 4792   0.830   2.561   8.170 -0.7692 -1.8379 -1.1141
   15MOL   H285 4793   0.746   2.659   7.956 -0.1710 -1.0584 -0.8808
   15MOL   H286 4794   0.523   2.773   7.956 -0.7013  3.8539  1.4787
   15MOL   H287 4795   0.413   2.812   8.153  0.8233  0.5813  0.4076
   15MOL   H288 4796   0.269   2.641   8.321 -1.3936 -0.0159  0.7353
   15MOL   H289 4797   0.261   2.672   0.070  1.7558  0.2291  1.8289
   15MOL   C290 4798   0.339   2.481   0.023 -0.0559 -0.5996 -0.5962
   15MOL   C291 4799   0.400   2.394   8.333 -0.6369 -0.3124 -0.1707
   15MOL   C292 4800   0.500   2.296   8.361  0.1838 -1.1467  0.1949
   15MOL  Cl293 4801   0.559   2.264   0.097  0.3999  0.0718  0.6963
   15MOL   C294 4802   0.560   2.223   8.256 -0.6373 -0.3541  0.0575
   15MOL   C295 4803   0.522   2.250   8.124 -1.2066  0.2373 -0.6661
   15MOL   C296 4804   0.421   2.342   8.095 -0.1458  1.2809 -0.3707
   15MOL   C297 4805   0.350   2.410   8.199 -0.3730  0.1999 -0.4394
   15MOL   C298 4806   0.203   2.428   0.062  0.4164  0.0440  0.6850
   15MOL   H299 4807   0.410   2.467   0.105  0.7020  1.1510 -0.9460
   15MOL   H300 4808   0.640   2.155   8.279  1.5194  0.7980 -3.6372
   15MOL   H301 4809   0.566   2.203   8.037  1.7586 -1.6310  1.7091
   15MOL   H302 4810   0.395   2.364   7.992 -0.2695  0.5414 -0.5044
   15MOL   H303 4811   0.268   2.478   8.179  0.0199  0.6999 -0.3684
   15MOL   H304 4812   0.200   2.320   0.044 -0.7746  0.1734  0.1124
   15MOL   H305 4813   0.123   2.470   0.001 -0.2508 -0.2767  1.3371
   15MOL   C306 4814   0.151   2.448   0.210  0.1696  0.8008 -0.3523
   15MOL   C307 4815   0.265   2.489   0.312  0.2732  0.2215  0.5451
   15MOL   C308 4816   0.272   2.622   0.358  0.1098 -0.0596  0.6476
   15MOL  Cl309 4817   0.151   2.739   0.324  0.0079 -0.0306  0.1507
   15MOL   C310 4818   0.370   2.652   0.457  0.0286 -0.7279  0.2763
   15MOL   C311 4819   0.460   2.560   0.503  0.1467 -0.7239 -0.1406
   15MOL   C312 4820   0.451   2.427   0.452  0.1507  0.0382  0.0494
   15MOL   C313 4821   0.359   2.391   0.352 -0.5715 -0.2229 -0.1327
   15MOL   C314 4822   0.076   2.325   0.257 -0.0787  0.3425 -0.1328
   15MOL   H315 4823   0.070   2.520   0.214 -0.4066  0.1002  1.5106
   15MOL   H316 4824   0.381   2.751   0.499 -0.5243  0.6926 -2.8152
   15MOL   H317 4825   0.535   2.588   0.575 -0.1229  0.4583 -0.3238
   15MOL   H318 4826   0.509   2.344   0.488  1.3930  1.4795  1.4648
   15MOL   H319 4827   0.361   2.286   0.326  1.1713 -0.1901 -0.1973
   15MOL   H320 4828   0.137   2.235   0.262 -1.2130 -0.4545 -0.3299
   15MOL   H321 4829   8.407   2.289   0.206 -0.8530  1.7418  0.2221
   15MOL   H322 4830   0.030   2.344   0.354  0.6317 -1.1257  0.5013
   16MOL     C1 4831   0.729   7.596   6.059  0.5347  0.1308  0.2045
   16MOL     C2 4832   0.768   7.612   6.207 -0.5551 -0.1316  0.4262
   16MOL     C3 4833   0.895   7.666   6.237  0.3805  0.9102 -0.8277
   16MOL    Cl4 4834   1.001   7.697   6.110 -0.2127 -0.1853  0.3378
   16MOL     C5 4835   0.929   7.699   6.368  0.1129  0.6140  0.0078
   16MOL     C6 4836   0.834   7.671   6.469  0.3428  0.2519 -0.0914
   16MOL     C7 4837   0.713   7.608   6.445 -0.2441 -0.0131 -0.7688
   16MOL     C8 4838   0.682   7.569   6.311  0.5635  0.0583  0.0666
   16MOL     C9 4839   0.677   7.726   5.995  0.8253 -0.2684 -0.1597
   16MOL    H10 4840   0.806   7.553   5.995 -0.9901 -1.3279 -0.7017
   16MOL    H11 4841   1.027   7.736   6.394  0.8901 -2.5349  1.8500
   16MOL    H12 4842   0.863   7.663   6.573  1.2620  0.0656 -0.3580
   16MOL    H13 4843   0.656   7.582   6.533  1.0987  1.4894  0.5575
   16MOL    H14 4844   0.593   7.512   6.286  0.1753  0.7531 -0.1423
   16MOL    H15 4845   0.743   7.804   6.033  1.2844 -0.4974 -0.4799
   16MOL    H16 4846   0.582   7.755   6.038  1.1486  0.6361 -0.0406
   16MOL    H17 4847   0.654   7.517   6.053 -0.8642  1.3905  0.4664
   16MOL    C18 4848   0.660   7.724   5.837 -0.2059  0.8834 -0.0985
   16MOL    C19 4849   0.782   7.678   5.757 -0.1762  0.3413  0.0756
   16MOL    C20 4850   0.785   7.572   5.662 -0.0210  0.1755 -0.3159
   16MOL   Cl21 4851   0.641   7.485   5.616 -0.0088 -0.2127  0.3383
   16MOL    C22 4852   0.909   7.535   5.605  0.4739  1.0815  0.0764
   16MOL    C23 4853   1.027   7.603   5.641 -0.9144  0.3465 -0.4481
   16MOL    C24 4854   1.028   7.698   5.740 -0.6413  0.0647 -0.3144
   16MOL    C25 4855   0.905   7.746   5.790  0.7584  0.1486 -0.3618
   16MOL    C26 4856   0.619   7.858   5.769 -0.2870  0.3497 -0.1507
   16MOL    H27 4857   0.584   7.650   5.809  0.5454  0.5045 -1.1728
   16MOL    H28 4858   0.898   7.466   5.522 -0.5403  1.7869 -0.3869
   16MOL    H29 4859   1.119   7.568   5.597 -0.7476  0.3826 -0.1262
   16MOL    H30 4860   1.120   7.746   5.770 -0.1843 -2.1550  2.0231
   16MOL    H31 4861   0.905   7.830   5.858 -1.5741 -0.0366 -0.0793
   16MOL    H32 4862   0.617   7.842   5.662 -0.9852 -3.4439  0.3559
   16MOL    H33 4863   0.687   7.942   5.782 -1.9996  1.8263 -0.5179
   16MOL    C34 4864   0.475   7.894   5.805  1.0019 -0.2899  0.2120
   16MOL    C35 4865   0.373   7.784   5.767  0.3830  0.6393 -0.2955
   16MOL    C36 4866   0.247   7.757   5.834 -0.3957  0.0148  0.2740
   16MOL   Cl37 4867   0.208   7.842   5.974  0.0078 -0.4495  0.3635
   16MOL    C38 4868   0.165   7.653   5.787 -0.1442  0.2462  0.2644
   16MOL    C39 4869   0.197   7.578   5.670  0.3346 -0.4734  0.8773
   16MOL    C40 4870   0.310   7.612   5.597 -1.0415 -0.2553  0.3266
   16MOL    C41 4871   0.392   7.716   5.648 -0.1493  0.6904 -0.0826
   16MOL    C42 4872   0.447   8.028   5.734  0.2993  0.0086  0.0333
   16MOL    H43 4873   0.469   7.912   5.912  0.9621 -2.2483  0.5574
   16MOL    H44 4874   0.077   7.631   5.846 -1.0931 -2.7815 -2.1460
   16MOL    H45 4875   0.136   7.494   5.643  0.4440  0.3835 -2.3139
   16MOL    H46 4876   0.341   7.570   5.502  0.9131 -0.6667  1.1222
   16MOL    H47 4877   0.473   7.733   5.578  0.9110 -3.0846  0.0777
   16MOL    H48 4878   0.340   8.039   5.719  0.3200 -0.4052 -0.4476
   16MOL    H49 4879   0.485   8.020   5.632 -0.9555  0.2375 -0.4668
   16MOL    C50 4880   0.510   8.150   5.801  0.2992  0.1416  0.3526
   16MOL    C51 4881   0.408   8.217   5.890  0.3445  0.8975 -0.1321
   16MOL    C52 4882   0.411   8.225   6.035  0.2380 -0.0771  1.1931
   16MOL   Cl53 4883   0.517   8.127   6.125 -0.4974  0.2177  0.2873
   16MOL    C54 4884   0.321   8.305   6.108  0.1428  0.1460 -0.2641
   16MOL    C55 4885   0.222   8.385   6.040  0.2460 -0.2823 -0.4444
   16MOL    C56 4886   0.225   8.384   5.900  0.2286 -0.6230  0.6635
   16MOL    C57 4887   0.311   8.298   5.825 -0.2516 -0.0084 -0.3999
   16MOL    C58 4888   0.603   8.242   5.705  0.3931 -0.2668 -0.4609
   16MOL    H59 4889   0.595   8.111   5.858  0.9488 -0.5593 -1.0632
   16MOL    H60 4890   0.307   8.303   6.215 -0.6370  1.7326 -0.3334
   16MOL    H61 4891   0.143   0.007   6.099 -1.8651 -0.6789 -2.8793
   16MOL    H62 4892   0.169   0.034   5.839  0.3609 -0.7446  0.4034
   16MOL    H63 4893   0.305   8.302   5.717 -0.0099 -0.6471 -0.4410
   16MOL    H64 4894   0.544   8.287   5.624 -0.1068 -0.5677 -0.2705
   16MOL    H65 4895   0.677   8.177   5.659 -0.7053 -2.3652  0.6475
   16MOL    C66 4896   0.702   8.344   5.755 -0.6653  0.0726 -0.2285
   16MOL    C67 4897   0.735   8.341   5.908  0.4818 -0.7157  0.6991
   16MOL    C68 4898   0.824   8.246   5.959  0.0661  0.0679 -0.0487
   16MOL   Cl69 4899   0.906   8.125   5.862  0.1613  0.2398  0.1260
   16MOL    C70 4900   0.858   8.245   6.093 -0.1675 -0.0565  0.0886
   16MOL    C71 4901   0.815   8.345   6.174  0.3155 -0.5028  0.0687
   16MOL    C72 4902   0.729   0.026   6.125 -0.7154  0.0878 -0.3407
   16MOL    C73 4903   0.684   0.022   5.991  0.2600  0.8931 -0.4540
   16MOL    C74 4904   0.669   0.065   5.697 -0.4442 -1.1531 -0.6069
   16MOL    H75 4905   0.803   8.321   5.720 -1.4014 -0.8926 -1.7247
   16MOL    H76 4906   0.933   8.174   6.125 -0.6493 -0.1917  0.9377
   16MOL    H77 4907   0.813   8.344   6.282 -1.5582 -0.6014  0.0594
   16MOL    H78 4908   0.686   0.094   6.197  1.4246  0.6488  0.4318
   16MOL    H79 4909   0.615   0.096   5.955 -0.9513 -0.2899 -0.6110
   16MOL    H80 4910   0.708   0.147   5.758 -2.2502  0.9408 -2.1931
   16MOL    H81 4911   0.562   0.086   5.709 -0.3352  0.2137 -1.9288
   16MOL    C82 4912   0.709   0.088   5.544 -0.2126 -0.4545  0.5227
   16MOL    C83 4913   0.859   0.059   5.525  0.5220 -0.8555 -0.1632
   16MOL    C84 4914   0.903   8.398   5.414  0.1754  0.4324 -0.4340
   16MOL   Cl85 4915   0.800   8.305   5.293  0.3076  0.0666 -0.3759
   16MOL    C86 4916   1.039   8.387   5.404  0.2089  0.1683 -0.0899
   16MOL    C87 4917   1.128   0.032   5.484  0.4045 -0.5879  0.4177
   16MOL    C88 4918   1.088   0.099   5.600  0.3594  0.1522  0.2172
   16MOL    C89 4919   0.950   0.117   5.610 -0.4325  0.3527  0.1287
   16MOL    C90 4920   0.677   0.233   5.517 -0.2022 -0.2297 -0.5369
   16MOL    H91 4921   0.647   0.027   5.479  1.2273  1.4848 -2.8010
   16MOL    H92 4922   1.069   8.330   5.318 -0.6531 -1.0254  0.3910
   16MOL    H93 4923   1.233   0.021   5.460 -0.7847 -2.3552 -4.5064
   16MOL    H94 4924   1.157   0.140   5.672  2.0886 -0.6985 -0.9072
   16MOL    H95 4925   0.903   0.184   5.680 -1.2821  0.0273 -0.1282
   16MOL    H96 4926   0.747   0.306   5.557  0.2126 -0.4660 -0.8363
   16MOL    H97 4927   0.582   0.246   5.569 -0.9721 -0.6702 -1.8155
   16MOL    C98 4928   0.633   0.265   5.368 -0.1128  0.8213 -0.4634
   16MOL    C99 4929   0.752   0.284   5.269 -0.4574  0.0964  0.1295
   16MOL   C100 4930   0.749   0.222   5.137  0.4197 -0.3775 -0.3862
   16MOL  Cl101 4931   0.639   0.099   5.095  0.1055  0.0218  0.3634
   16MOL   C102 4932   0.847   0.259   5.040 -0.2833 -0.0424 -0.1744
   16MOL   C103 4933   0.940   0.366   5.060 -0.0096  0.4066  0.1794
   16MOL   C104 4934   0.936   0.430   5.185  0.4135  0.1807  0.1025
   16MOL   C105 4935   0.848   0.391   5.289 -0.3219 -0.4941  0.1885
   16MOL   C106 4936   0.537   0.386   5.364  0.1144  0.2274  0.2803
   16MOL   H107 4937   0.578   0.178   5.331  0.2674  0.5862 -0.4730
   16MOL   H108 4938   0.838   0.195   4.953 -1.8128 -2.0530  1.4275
   16MOL   H109 4939   1.016   0.400   4.992 -0.9398 -0.3709 -1.2711
   16MOL   H110 4940   1.006   0.508   5.209 -0.8391  1.3751 -0.0497
   16MOL   H111 4941   0.845   0.438   5.386  2.1465 -1.3821  0.7497
   16MOL   H112 4942   0.551   0.418   5.261  0.8478  0.9202  0.5888
   16MOL   H113 4943   0.570   0.475   5.419 -0.2161  0.3514  0.2786
   16MOL   C114 4944   0.392   0.349   5.401 -1.4855 -0.0873  0.0547
   16MOL   C115 4945   0.337   0.258   5.287 -0.6375  0.4642  0.3637
   16MOL   C116 4946   0.303   0.119   5.312  0.1379 -0.3184  0.2585
   16MOL  Cl117 4947   0.308   0.041   5.462  0.2335 -0.3781 -0.3210
   16MOL   C118 4948   0.260   0.040   5.209 -0.2294 -0.4626 -0.4080
   16MOL   C119 4949   0.266   0.084   5.075  0.0014  0.1792 -0.2647
   16MOL   C120 4950   0.300   0.219   5.048  0.0223  0.1518 -0.4413
   16MOL   C121 4951   0.340   0.300   5.152  0.4548  0.3118 -0.3636
   16MOL   C122 4952   0.303   0.476   5.426 -0.1901  0.6530 -0.2227
   16MOL   H123 4953   0.392   0.291   5.494 -1.5685  0.9361  0.6970
   16MOL   H124 4954   0.224   8.361   5.232  3.7716 -1.9096 -0.0867
   16MOL   H125 4955   0.236   0.021   4.993 -0.5469  2.9431 -2.2378
   16MOL   H126 4956   0.301   0.257   4.947  2.0107  0.8585 -0.1710
   16MOL   H127 4957   0.371   0.401   5.133 -0.6018  1.3201  2.9403
   16MOL   H128 4958   0.197   0.450   5.420 -0.8934  3.6085 -1.4677
   16MOL   H129 4959   0.314   0.538   5.337 -1.9137 -2.8361 -2.9948
   16MOL   C130 4960   0.329   0.552   5.553 -0.3155 -0.4096  0.0005
   16MOL   C131 4961   0.287   0.464   5.673  0.1759  0.4359 -0.2714
   16MOL   C132 4962   0.384   0.418   5.759 -0.1742  1.0612  0.3200
   16MOL  Cl133 4963   0.556   0.451   5.748 -0.1413 -0.0958 -0.2020
   16MOL   C134 4964   0.349   0.332   5.869  0.8498  0.0433  0.2898
   16MOL   C135 4965   0.209   0.309   5.896  0.1698  0.0709 -0.1986
   16MOL   C136 4966   0.114   0.361   5.806  0.9213  0.4659 -0.0075
   16MOL   C137 4967   0.150   0.436   5.696 -0.3036 -0.1232  0.1288
   16MOL   C138 4968   0.284   0.697   5.563  0.5738  0.0878 -0.0278
   16MOL   H139 4969   0.438   0.556   5.554 -0.2990 -0.7964 -0.2647
   16MOL   H140 4970   0.426   0.297   5.936  0.2561 -4.3362 -1.1869
   16MOL   H141 4971   0.185   0.251   5.983 -0.2230 -0.3042 -0.5560
   16MOL   H142 4972   0.014   0.342   5.843  1.7534  0.2152  2.1280
   16MOL   H143 4973   0.072   0.480   5.636  2.2683  1.0082 -2.5308
   16MOL   H144 4974   0.176   0.689   5.555  0.4813 -0.0116  1.2118
   16MOL   H145 4975   0.315   0.756   5.477  0.1687  1.1662  0.5573
   16MOL   C146 4976   0.326   0.770   5.697  0.3370  0.1753 -0.2017
   16MOL   C147 4977   0.237   0.892   5.702  0.1986  0.1701  0.0968
   16MOL   C148 4978   0.126   0.900   5.789  0.1277  0.6003 -0.7821
   16MOL  Cl149 4979   0.079   0.763   5.872  0.0701  0.0221  0.0949
   16MOL   C150 4980   0.051   1.020   5.793 -0.3500  0.4703 -0.2957
   16MOL   C151 4981   0.087   1.135   5.717 -0.1185 -0.3325 -0.4127
   16MOL   C152 4982   0.196   1.134   5.636 -0.1370  0.3458 -0.0959
   16MOL   C153 4983   0.268   1.016   5.632  0.4766  0.6939  0.2490
   16MOL   C154 4984   0.476   0.808   5.697 -0.0352 -0.2209  0.2485
   16MOL   H155 4985   0.309   0.702   5.781 -0.1107  2.8803  1.9511
   16MOL   H156 4986   8.390   1.017   5.863 -1.3450  2.5490 -1.3371
   16MOL   H157 4987   0.036   1.230   5.725 -1.0323 -0.7498 -1.1832
   16MOL   H158 4988   0.225   1.222   5.581  2.3721  0.0136  0.6431
   16MOL   H159 4989   0.350   1.013   5.562  0.2894 -0.5054  0.0748
   16MOL   H160 4990   0.499   0.895   5.635  2.1034 -1.6734 -1.0984
   16MOL   H161 4991   0.527   0.730   5.641  1.5118  0.4133  0.7419
   16MOL   C162 4992   0.552   0.823   5.836  0.3818  0.2200  1.1266
   16MOL   C163 4993   0.468   0.915   5.920  0.5258  0.1330  0.3428
   16MOL   C164 4994   0.386   0.863   6.027 -0.2269 -0.7333  0.1673
   16MOL  Cl165 4995   0.381   0.696   6.073 -0.1101 -0.4709 -0.4466
   16MOL   C166 4996   0.302   0.952   6.101  0.3018 -0.4500  0.2654
   16MOL   C167 4997   0.296   1.089   6.067  0.3173  0.2622  0.8517
   16MOL   C168 4998   0.381   1.140   5.967  0.3622  0.4275 -0.3209
   16MOL   C169 4999   0.467   1.051   5.896  0.4479  0.7377 -0.0648
   16MOL   C170 5000   0.702   0.867   5.824  0.1624 -0.1892 -0.3506
   16MOL   H171 5001   0.549   0.729   5.892 -2.6640 -0.4104  0.0017
   16MOL   H172 5002   0.243   0.905   6.178 -1.0223 -1.2793 -1.2317
   16MOL   H173 5003   0.233   1.158   6.121 -2.5111 -0.3097 -1.6128
   16MOL   H174 5004   0.383   1.245   5.939 -0.5542  0.3660 -0.6296
   16MOL   H175 5005   0.525   1.090   5.814  1.7601 -1.4092 -0.2106
   16MOL   H176 5006   0.713   0.955   5.760  1.4909  1.1816  1.6923
   16MOL   H177 5007   0.734   0.781   5.765 -3.1782 -0.5604 -1.7307
   16MOL   C178 5008   0.787   0.888   5.949 -0.1989  0.3161  0.1453
   16MOL   C179 5009   0.774   1.023   6.022 -0.3894 -0.6231  0.0296
   16MOL   C180 5010   0.730   1.030   6.156 -0.2654  0.4462 -0.4655
   16MOL  Cl181 5011   0.699   0.882   6.244  0.0163 -0.1292  0.1501
   16MOL   C182 5012   0.712   1.158   6.218  0.3127  0.2077 -0.3462
   16MOL   C183 5013   0.727   1.280   6.147 -0.5573 -0.0677 -0.0487
   16MOL   C184 5014   0.785   1.274   6.018 -0.6800  0.1723  0.9158
   16MOL   C185 5015   0.798   1.147   5.955 -0.2508  0.8385 -0.3292
   16MOL   C186 5016   0.944   0.861   5.918  0.3263 -0.0777 -0.0089
   16MOL   H187 5017   0.752   0.810   6.017 -1.1129  0.6330  0.0567
   16MOL   H188 5018   0.684   1.163   6.322  1.7755  1.0375  0.0221
   16MOL   H189 5019   0.691   1.372   6.189 -0.9993 -0.9200  1.4870
   16MOL   H190 5020   0.817   1.362   5.965  1.8501 -1.2326  0.0193
   16MOL   H191 5021   0.858   1.139   5.865 -0.1334 -3.8366  0.0336
   16MOL   H192 5022   0.993   0.916   5.999  0.6861 -0.1259 -0.1951
   16MOL   H193 5023   0.976   0.916   5.829  0.3716 -1.4095 -0.8307
   16MOL   C194 5024   0.986   0.714   5.911 -0.6959  0.0464  0.5872
   16MOL   C195 5025   0.912   0.613   6.000 -0.2484 -0.4545  0.2281
   16MOL   C196 5026   0.877   0.483   5.946 -0.7662 -0.1597  0.1630
   16MOL  Cl197 5027   0.915   0.454   5.784 -0.4718  0.5622 -0.0103
   16MOL   C198 5028   0.811   0.388   6.018  0.3329 -0.0609 -0.5605
   16MOL   C199 5029   0.788   0.414   6.155 -0.7078  0.2001  0.0635
   16MOL   C200 5030   0.827   0.532   6.215 -0.5504  0.3174  0.2967
   16MOL   C201 5031   0.884   0.634   6.134  1.5427  0.7573 -0.6700
   16MOL   C202 5032   1.136   0.701   5.936 -0.4745  0.0473  0.4022
   16MOL   H203 5033   0.965   0.688   5.807  1.2733  0.7119  0.0062
   16MOL   H204 5034   0.790   0.291   5.975  1.4062 -0.5263 -0.0483
   16MOL   H205 5035   0.739   0.340   6.216 -1.1952 -0.1674 -0.7710
   16MOL   H206 5036   0.792   0.551   6.315  2.7811  1.2464  1.3444
   16MOL   H207 5037   0.890   0.733   6.177 -1.5186  0.6639  0.0824
   16MOL   H208 5038   1.164   0.596   5.950 -1.3033 -0.1297  0.7720
   16MOL   H209 5039   1.156   0.763   6.023 -0.2336  1.5105 -0.6823
   16MOL   C210 5040   1.225   0.745   5.821 -0.4472  0.2656 -0.2281
   16MOL   C211 5041   1.206   0.672   5.686  0.0240  0.4747 -0.5435
   16MOL   C212 5042   1.137   0.726   5.573 -0.4207  0.1754  0.5495
   16MOL  Cl213 5043   1.045   0.874   5.579 -0.3009 -0.0160 -0.1114
   16MOL   C214 5044   1.117   0.641   5.458  0.3577 -0.2174  0.3499
   16MOL   C215 5045   1.166   0.515   5.453  0.8007 -0.1288  0.2183
   16MOL   C216 5046   1.232   0.463   5.566 -0.0427  0.7515 -0.1704
   16MOL   C217 5047   1.259   0.542   5.679 -0.2296  0.3159 -0.5539
   16MOL   C218 5048   1.371   0.743   5.871  0.6951 -0.0981 -0.2769
   16MOL   H219 5049   1.185   0.846   5.808  1.2107  0.9147 -0.5306
   16MOL   H220 5050   1.060   0.677   5.374  1.2117  0.8294  0.2066
   16MOL   H221 5051   1.144   0.453   5.367  1.6939  1.5543 -1.2393
   16MOL   H222 5052   1.259   0.359   5.579 -1.5095  0.6021  1.9195
   16MOL   H223 5053   1.308   0.500   5.766 -1.6957  0.6659  0.4654
   16MOL   H224 5054   1.387   0.641   5.903  0.8038  0.8739  2.9649
   16MOL   H225 5055   1.375   0.810   5.957 -0.3547 -2.3913  1.5981
   16MOL   C226 5056   1.466   0.787   5.759 -0.2146  0.2900 -0.3753
   16MOL   C227 5057   1.546   0.675   5.697 -0.3050  0.0394 -0.6511
   16MOL   C228 5058   1.557   0.657   5.555 -0.2125  0.0756  0.0603
   16MOL  Cl229 5059   1.491   0.765   5.449 -0.1250  0.1368  0.2888
   16MOL   C230 5060   1.624   0.545   5.498  0.1531 -0.4050  0.4906
   16MOL   C231 5061   1.688   0.451   5.581 -0.1791 -0.2727 -0.2840
   16MOL   C232 5062   1.681   0.469   5.720  0.7398 -0.4767 -0.4574
   16MOL   C233 5063   1.604   0.575   5.776  0.0642  0.2181 -0.2649
   16MOL   C234 5064   1.557   0.903   5.796  0.3066 -0.2043  0.4710
   16MOL   H235 5065   1.409   0.832   5.678 -1.9279  0.1939  0.7339
   16MOL   H236 5066   1.628   0.530   5.391 -0.4319  0.2844  0.3642
   16MOL   H237 5067   1.746   0.368   5.542  2.0157  1.5671 -0.9979
   16MOL   H238 5068   1.719   0.395   5.789  0.9548  1.6595  1.8106
   16MOL   H239 5069   1.602   0.566   5.883  0.2878 -0.8120 -0.3470
   16MOL   H240 5070   1.622   0.938   5.715  1.7197  0.2307  1.7578
   16MOL   H241 5071   1.631   0.876   5.871  1.5463 -0.5267 -0.8311
   16MOL   C242 5072   1.486   1.036   5.841  0.4840 -0.0015 -0.1409
   16MOL   C243 5073   1.375   1.089   5.747  0.3547  0.0699 -0.5079
   16MOL   C244 5074   1.251   1.142   5.796 -0.7376  0.5317  0.0852
   16MOL  Cl245 5075   1.208   1.150   5.964  0.1929  0.0110  0.2973
   16MOL   C246 5076   1.157   1.180   5.703 -0.1729  0.2826 -0.0962
   16MOL   C247 5077   1.179   1.177   5.568  0.0483 -0.0304 -0.0032
   16MOL   C248 5078   1.301   1.135   5.519  0.3053  0.3963  0.1236
   16MOL   C249 5079   1.402   1.093   5.607 -0.6626  0.2789 -0.1089
   16MOL   C250 5080   1.579   1.155   5.871 -0.4516  0.1557  0.1905
   16MOL   H251 5081   1.435   1.005   5.932  1.1193 -1.4914 -0.2827
   16MOL   H252 5082   1.055   1.199   5.733 -0.7240 -2.2035 -0.3141
   16MOL   H253 5083   1.104   1.199   5.494  0.8430  0.3396 -0.6992
   16MOL   H254 5084   1.316   1.140   5.412  0.4037  2.5456  0.2133
   16MOL   H255 5085   1.505   1.069   5.584 -0.2134 -1.4514  3.3479
   16MOL   H256 5086   1.518   1.245   5.878 -2.2812 -0.9532 -1.1010
   16MOL   H257 5087   1.642   1.184   5.788 -1.4231 -1.6006 -1.2075
   16MOL   C258 5088   1.682   1.141   5.991  0.3435  0.6871  0.2078
   16MOL   C259 5089   1.602   1.087   6.110 -0.5035  0.1079  0.5537
   16MOL   C260 5090   1.624   0.958   6.162  0.6134 -0.5533  0.0257
   16MOL  Cl261 5091   1.753   0.852   6.113  0.0864 -0.3277 -0.0167
   16MOL   C262 5092   1.552   0.921   6.277  0.8976 -0.1589 -0.3726
   16MOL   C263 5093   1.448   0.997   6.333 -0.2407 -0.4527  0.0286
   16MOL   C264 5094   1.425   1.127   6.275 -0.8505  1.2641 -0.7864
   16MOL   C265 5095   1.506   1.170   6.170  0.1922 -0.6359  0.0391
   16MOL   C266 5096   1.745   1.278   6.030 -0.3557 -0.5315  0.1414
   16MOL   H267 5097   1.766   1.077   5.964  1.0376  2.0484 -0.9676
   16MOL   H268 5098   1.578   0.827   6.325  1.7176  0.1494 -0.2077
   16MOL   H269 5099   1.383   0.962   6.412  0.9420 -1.5019  0.5599
   16MOL   H270 5100   1.336   1.180   6.304 -0.0843  2.5382 -0.7524
   16MOL   H271 5101   1.500   1.266   6.122  0.5228 -0.5322  0.2027
   16MOL   H272 5102   1.788   1.285   6.130  0.0194 -1.1858  0.0268
   16MOL   H273 5103   1.672   1.359   6.028  0.7148  0.4508  0.2846
   16MOL   C274 5104   1.858   1.313   5.932 -0.6692 -0.5837 -0.3807
   16MOL   C275 5105   1.968   1.213   5.928  0.3496 -0.0758 -0.4815
   16MOL   C276 5106   2.000   1.149   5.805  0.1639 -0.6082 -0.1553
   16MOL  Cl277 5107   1.919   1.167   5.657  0.3721 -0.2413  0.0930
   16MOL   C278 5108   2.106   1.066   5.808 -0.0614  0.1662  0.2312
   16MOL   C279 5109   2.187   1.042   5.920  0.0830  0.1982  0.7440
   16MOL   C280 5110   2.157   1.106   6.040  0.2092  0.2367  0.7977
   16MOL   C281 5111   2.052   1.199   6.041  0.0476  0.3163 -0.2518
   16MOL   C282 5112   1.924   1.451   5.964 -0.3409 -0.0732 -0.8632
   16MOL   H283 5113   1.816   1.328   5.833  0.2180  1.4402 -0.4694
   16MOL   H284 5114   2.134   1.001   5.726 -0.8240  0.1767 -0.0430
   16MOL   H285 5115   2.263   0.966   5.915  0.2225  0.0965  3.5465
   16MOL   H286 5116   2.200   1.096   6.139  0.1889  0.8571  0.8752
   16MOL   H287 5117   2.033   1.256   6.130 -2.2026 -0.4004 -0.2570
   16MOL   H288 5118   1.970   1.441   6.062 -0.2428  2.4738 -0.6243
   16MOL   H289 5119   1.847   1.523   5.991 -0.5468 -1.1947  1.7593
   16MOL   C290 5120   2.025   1.508   5.869  0.1289 -0.5025 -0.0549
   16MOL   C291 5121   2.115   1.617   5.934 -0.5516 -0.8773 -0.0409
   16MOL   C292 5122   2.252   1.597   5.953  0.0441 -0.4940  0.5479
   16MOL  Cl293 5123   2.348   1.458   5.918  0.0489  0.0049  0.0870
   16MOL   C294 5124   2.330   1.697   6.017  0.6099  0.2327  0.3672
   16MOL   C295 5125   2.271   1.817   6.058  0.8132 -0.1057  0.0767
   16MOL   C296 5126   2.138   1.842   6.025  0.1156  0.3079 -0.2398
   16MOL   C297 5127   2.060   1.737   5.976  0.0982 -0.1442  0.3434
   16MOL   C298 5128   1.964   1.541   5.728 -0.2844  0.0687  0.1900
   16MOL   H299 5129   2.091   1.422   5.854  0.8113 -0.0674  0.4784
   16MOL   H300 5130   2.435   1.676   6.028  1.2276  1.7917 -2.1351
   16MOL   H301 5131   2.331   1.898   6.097  2.4393 -1.3818  0.2951
   16MOL   H302 5132   2.091   1.936   6.048  1.0359  0.5513  0.6675
   16MOL   H303 5133   1.959   1.762   5.946 -0.2750 -1.0612  0.8132
   16MOL   H304 5134   1.898   1.627   5.735 -1.1627 -0.6106  0.2610
   16MOL   H305 5135   1.913   1.449   5.699 -0.1638 -0.4020  1.4300
   16MOL   C306 5136   2.062   1.592   5.618 -0.0446  0.6687  0.0831
   16MOL   C307 5137   1.988   1.647   5.500  0.6695  0.0871 -0.5488
   16MOL   C308 5138   2.013   1.782   5.457 -0.1749 -0.2290 -0.1163
   16MOL  Cl309 5139   2.128   1.892   5.541 -0.4269 -0.0194  0.2479
   16MOL   C310 5140   1.953   1.830   5.339  0.5458 -0.0802  0.5025
   16MOL   C311 5141   1.870   1.751   5.253 -0.0867  0.1877  1.0518
   16MOL   C312 5142   1.844   1.615   5.300 -0.6345 -0.1510  0.1960
   16MOL   C313 5143   1.901   1.565   5.421  0.0053 -0.4927  0.3381
   16MOL   C314 5144   2.162   1.486   5.578  0.2460 -0.0744 -0.0087
   16MOL   H315 5145   2.115   1.669   5.673 -0.2613  0.4173  0.6572
   16MOL   H316 5146   1.966   1.934   5.311 -2.3298  0.8194  2.3003
   16MOL   H317 5147   1.821   1.795   5.168  1.2788 -0.8620 -0.3065
   16MOL   H318 5148   1.775   1.553   5.246  1.1154 -2.2781  0.3222
   16MOL   H319 5149   1.883   1.463   5.450  0.5831 -0.0436  2.3454
   16MOL   H320 5150   2.228   1.465   5.662 -0.8595  0.3039  0.9506
   16MOL   H321 5151   2.232   1.517   5.500  1.2179 -2.3573 -0.0926
   16MOL   H322 5152   2.122   1.387   5.553  2.1623 -1.4158  2.0416
   17MOL     C1 5153   4.389   2.016   2.159  0.2589 -0.1529  0.2913
   17MOL     C2 5154   4.248   2.059   2.137 -1.4036 -0.0773 -0.4542
   17MOL     C3 5155   4.192   2.175   2.200  0.6270 -0.8369  0.7411
   17MOL    Cl4 5156   4.265   2.270   2.325  0.3880  0.0949  0.0169
   17MOL     C5 5157   4.060   2.208   2.176 -0.0140 -0.6036 -0.3383
   17MOL     C6 5158   3.983   2.141   2.084 -0.6169  0.2270  0.2424
   17MOL     C7 5159   4.035   2.042   2.005  0.5717  0.2076 -0.1052
   17MOL     C8 5160   4.168   1.998   2.030 -0.2579 -0.4209 -0.0583
   17MOL     C9 5161   4.413   1.859   2.154  0.8339 -0.1004  0.3679
   17MOL    H10 5162   4.438   2.065   2.075 -0.8338  0.5988  0.0867
   17MOL    H11 5163   4.017   2.297   2.219  0.9089 -0.2054 -0.2236
   17MOL    H12 5164   3.880   2.171   2.072 -1.3343 -2.5014 -0.8042
   17MOL    H13 5165   3.978   2.000   1.924  0.5398  1.1546 -0.5810
   17MOL    H14 5166   4.217   1.927   1.965  0.1179 -1.2164  1.0918
   17MOL    H15 5167   4.519   1.842   2.175  0.8714 -1.0249 -0.5053
   17MOL    H16 5168   4.409   1.807   2.058 -1.7681 -1.8692  1.3749
   17MOL    H17 5169   4.424   2.050   2.257  1.0063  0.3942 -0.1589
   17MOL    C18 5170   4.333   1.784   2.257  0.5738 -0.3824 -0.6319
   17MOL    C19 5171   4.330   1.856   2.393 -0.4904 -0.0348 -0.1904
   17MOL    C20 5172   4.220   1.925   2.449 -0.7475 -0.3984  0.0617
   17MOL   Cl21 5173   4.063   1.932   2.374 -0.2235 -0.2379  0.0922
   17MOL    C22 5174   4.234   1.982   2.578 -0.6052  0.0729 -0.1234
   17MOL    C23 5175   4.363   1.994   2.639  0.0680 -1.0347  0.1097
   17MOL    C24 5176   4.474   1.933   2.581  0.7195 -0.7541  0.7429
   17MOL    C25 5177   4.455   1.866   2.458  0.2657 -0.1481  0.4605
   17MOL    C26 5178   4.369   1.630   2.280  0.3842  0.6280 -0.8935
   17MOL    H27 5179   4.235   1.794   2.209 -0.4405  4.8413  2.1834
   17MOL    H28 5180   4.154   2.022   2.639 -2.2023 -1.7052 -1.0280
   17MOL    H29 5181   4.385   2.045   2.731 -1.1536 -2.1692  1.0502
   17MOL    H30 5182   4.570   1.932   2.631  0.7281  0.0962  0.7453
   17MOL    H31 5183   4.545   1.817   2.424  0.3233  0.6873 -0.5899
   17MOL    H32 5184   4.291   1.593   2.346 -1.6623 -0.1788 -3.6716
   17MOL    H33 5185   4.466   1.631   2.331 -0.0934 -2.5483  0.1580
   17MOL    C34 5186   4.351   1.534   2.158  0.7531  0.2839 -0.2875
   17MOL    C35 5187   4.208   1.518   2.105 -0.0543  0.5587 -0.3725
   17MOL    C36 5188   4.171   1.557   1.977 -0.3718  0.4524  0.5082
   17MOL   Cl37 5189   4.280   1.631   1.869 -0.0203 -0.0379  0.0476
   17MOL    C38 5190   4.037   1.537   1.932  1.0988  0.6078  0.1010
   17MOL    C39 5191   3.941   1.479   2.019  0.3045  0.7419  0.1062
   17MOL    C40 5192   3.979   1.447   2.154  0.4223 -0.4658  0.2933
   17MOL    C41 5193   4.112   1.463   2.195  0.1866 -0.8558 -0.0631
   17MOL    C42 5194   4.424   1.403   2.186  0.2326 -0.0813 -1.2257
   17MOL    H43 5195   4.419   1.566   2.079  2.1323  0.5692  0.9953
   17MOL    H44 5196   4.007   1.570   1.834  0.0446 -0.5348  0.0301
   17MOL    H45 5197   3.838   1.472   1.988  0.2708  2.3477 -0.2090
   17MOL    H46 5198   3.902   1.394   2.207 -1.0051  0.6483 -0.6430
   17MOL    H47 5199   4.140   1.433   2.294  1.0675 -0.4603 -0.1912
   17MOL    H48 5200   4.383   1.357   2.276  1.3042 -0.4942 -0.9384
   17MOL    H49 5201   4.527   1.430   2.208 -0.5513  2.1828 -0.2012
   17MOL    C50 5202   4.420   1.297   2.071  0.2269  0.2133  0.3775
   17MOL    C51 5203   4.299   1.194   2.085  1.1351  0.2698 -0.0881
   17MOL    C52 5204   4.287   1.101   2.193 -0.5324  0.1379 -0.2028
   17MOL   Cl53 5205   4.405   1.086   2.323 -0.3258  0.2795  0.0448
   17MOL    C54 5206   4.168   1.017   2.205 -0.2796 -0.5011 -0.1139
   17MOL    C55 5207   4.073   1.026   2.107 -0.4044  0.6212  0.0139
   17MOL    C56 5208   4.084   1.120   1.998 -0.9660  0.3045  0.3169
   17MOL    C57 5209   4.191   1.203   1.992 -0.5258 -0.4342 -0.2143
   17MOL    C58 5210   4.547   1.217   2.051  0.0018 -0.2769  0.1698
   17MOL    H59 5211   4.402   1.346   1.975  0.0945 -1.6482 -0.5714
   17MOL    H60 5212   4.170   0.947   2.287  1.8892  0.3437  0.6173
   17MOL    H61 5213   4.003   0.944   2.104  1.2207 -0.8245  0.9753
   17MOL    H62 5214   4.014   1.116   1.915  1.2567  3.4166 -1.7767
   17MOL    H63 5215   4.195   1.271   1.908 -0.1822 -1.1204 -0.7705
   17MOL    H64 5216   4.525   1.116   2.017 -0.9877  0.2180 -0.6950
   17MOL    H65 5217   4.591   1.201   2.150 -1.5092 -0.3107  0.8535
   17MOL    C66 5218   4.661   1.281   1.979  0.6015  0.2589  0.4979
   17MOL    C67 5219   4.618   1.326   1.837  0.4081  0.8322  0.7459
   17MOL    C68 5220   4.630   1.459   1.793 -0.1153  0.1214  0.0216
   17MOL   Cl69 5221   4.700   1.580   1.898 -0.1697  0.4069 -0.1554
   17MOL    C70 5222   4.577   1.500   1.666 -0.0608  0.4798  0.4643
   17MOL    C71 5223   4.517   1.408   1.583 -0.1470 -0.6074 -0.2324
   17MOL    C72 5224   4.504   1.277   1.628 -0.3242  0.2751 -0.0954
   17MOL    C73 5225   4.555   1.231   1.747  0.0229  0.3489  0.2642
   17MOL    C74 5226   4.793   1.203   1.965  0.1669 -0.1203  0.4639
   17MOL    H75 5227   4.672   1.368   2.043 -1.8720  0.9317  0.0585
   17MOL    H76 5228   4.581   1.604   1.639  2.1790  0.5318  0.8963
   17MOL    H77 5229   4.476   1.447   1.490 -0.6436  0.3936  0.4019
   17MOL    H78 5230   4.462   1.202   1.563 -0.9747 -0.0888  0.7352
   17MOL    H79 5231   4.540   1.127   1.776  2.5438  0.3474  1.7014
   17MOL    H80 5232   4.866   1.255   1.902 -0.4258 -1.7714 -1.6508
   17MOL    H81 5233   4.768   1.108   1.918  0.1981 -0.1988  0.6079
   17MOL    C82 5234   4.870   1.159   2.096  0.4643  0.6956 -0.0507
   17MOL    C83 5235   4.938   1.277   2.170 -0.0813  0.2274 -0.7473
   17MOL    C84 5236   4.953   1.257   2.315  0.0132  0.0131  0.7117
   17MOL   Cl85 5237   4.901   1.114   2.405 -0.1088 -0.3682  0.4155
   17MOL    C86 5238   5.014   1.365   2.385  0.1633  0.0586 -0.6195
   17MOL    C87 5239   5.072   1.478   2.326  0.0539 -0.3369 -0.1242
   17MOL    C88 5240   5.069   1.482   2.190 -0.1172 -0.2309 -0.0460
   17MOL    C89 5241   5.001   1.387   2.108 -0.4867  0.2177 -0.6293
   17MOL    C90 5242   4.972   1.044   2.061 -0.3730 -0.6444 -0.6563
   17MOL    H91 5243   4.800   1.108   2.163 -0.5332  2.3410  0.1662
   17MOL    H92 5244   5.028   1.355   2.491 -0.9712 -0.0450 -0.4795
   17MOL    H93 5245   5.136   1.548   2.378 -1.0003  0.4681  0.1085
   17MOL    H94 5246   5.118   1.566   2.143  0.5837 -1.3241 -1.3298
   17MOL    H95 5247   5.006   1.406   2.001 -1.6737  0.6023 -0.6240
   17MOL    H96 5248   5.010   1.043   2.163 -0.5200  2.9560 -0.4859
   17MOL    H97 5249   5.051   1.088   2.001 -0.3830  0.6259  0.2483
   17MOL    C98 5250   4.922   0.904   2.009 -0.3951  0.1530  0.0267
   17MOL    C99 5251   4.853   0.836   2.130 -0.3057  0.1641 -0.1480
   17MOL   C100 5252   4.716   0.816   2.141 -0.3621  0.3783  0.1447
   17MOL  Cl101 5253   4.623   0.835   1.995 -0.0323  0.0993 -0.0317
   17MOL   C102 5254   4.653   0.766   2.254  0.0572  0.1923  0.0130
   17MOL   C103 5255   4.734   0.723   2.359  0.6086  0.0428 -0.3395
   17MOL   C104 5256   4.870   0.728   2.343  0.4341 -0.3537 -0.7565
   17MOL   C105 5257   4.932   0.791   2.237 -0.7652 -0.6149 -0.2764
   17MOL   C106 5258   5.048   0.829   1.963  0.7685  0.2556  0.0447
   17MOL   H107 5259   4.852   0.920   1.926  1.8498  1.7391 -1.6082
   17MOL   H108 5260   4.545   0.760   2.257  0.1980 -2.1016  2.5589
   17MOL   H109 5261   4.695   0.695   2.455  0.5161  1.0317 -0.0832
   17MOL   H110 5262   4.928   0.703   2.430 -0.4738 -0.4876 -0.1862
   17MOL   H111 5263   5.039   0.801   2.233 -0.8318  0.0573 -0.4186
   17MOL   H112 5264   5.117   0.845   2.046 -0.0088 -0.3067  0.8097
   17MOL   H113 5265   5.069   0.887   1.873  0.7737  2.0895  1.2067
   17MOL   C114 5266   5.032   0.689   1.912  0.0636  0.1976 -0.6230
   17MOL   C115 5267   5.178   0.644   1.861 -0.0319 -0.1857  0.4509
   17MOL   C116 5268   5.276   0.598   1.950 -0.3350 -0.7184 -0.0618
   17MOL  Cl117 5269   5.244   0.579   2.120 -0.0356  0.0568 -0.1283
   17MOL   C118 5270   5.405   0.564   1.900  0.9338 -0.4164  0.6910
   17MOL   C119 5271   5.434   0.573   1.761 -0.2391 -0.1748 -0.0334
   17MOL   C120 5272   5.336   0.622   1.670 -0.6929  0.5032  0.2036
   17MOL   C121 5273   5.211   0.661   1.720  0.1324  0.6055  0.3397
   17MOL   C122 5274   4.913   0.653   1.824  0.3419 -0.4407 -0.0731
   17MOL   H123 5275   5.005   0.632   2.001 -0.7968  2.1903  0.4147
   17MOL   H124 5276   5.482   0.537   1.970  1.4003  0.2454  0.4436
   17MOL   H125 5277   5.530   0.549   1.717 -1.1248 -0.2696 -1.9584
   17MOL   H126 5278   5.361   0.637   1.566  1.0010 -3.4020 -0.0105
   17MOL   H127 5279   5.148   0.692   1.638 -1.4235 -1.3997  0.7334
   17MOL   H128 5280   4.934   0.673   1.719 -2.3718  2.0813 -0.1927
   17MOL   H129 5281   4.829   0.721   1.836 -0.2786 -1.4696  1.5361
   17MOL   C130 5282   4.841   0.526   1.848 -0.0271  0.2393 -0.4867
   17MOL   C131 5283   4.937   0.415   1.814  0.1679 -0.3069  0.0240
   17MOL   C132 5284   5.005   0.338   1.920 -0.0240  0.4981 -0.2436
   17MOL  Cl133 5285   4.970   0.375   2.093  0.4478 -0.1709 -0.1059
   17MOL   C134 5286   5.109   0.244   1.890 -0.1313 -0.4651 -0.0062
   17MOL   C135 5287   5.119   0.199   1.759 -0.2823 -0.1785  0.0075
   17MOL   C136 5288   5.059   0.274   1.656  0.3878  0.1897 -0.4374
   17MOL   C137 5289   4.980   0.387   1.678  0.2827  0.2956  0.0370
   17MOL   C138 5290   4.699   0.504   1.777 -0.1384 -0.4582 -0.1024
   17MOL   H139 5291   4.810   0.507   1.951 -0.2611  1.5566 -0.3043
   17MOL   H140 5292   5.172   0.204   1.967 -2.5729 -4.5575 -0.0194
   17MOL   H141 5293   5.179   0.113   1.733  0.6091  0.3620  0.2529
   17MOL   H142 5294   5.079   0.251   1.553 -0.0424  0.9241 -0.6877
   17MOL   H143 5295   4.948   0.457   1.602 -3.8361 -1.7312 -0.2797
   17MOL   H144 5296   4.720   0.485   1.671 -0.1147  0.5339 -0.2825
   17MOL   H145 5297   4.652   0.602   1.768  2.6406  0.7456 -2.5995
   17MOL   C146 5298   4.592   0.395   1.829 -0.1963  0.2198 -0.5417
   17MOL   C147 5299   4.662   0.262   1.860  0.7243  0.6284  0.4846
   17MOL   C148 5300   4.674   0.212   1.992 -0.3763 -0.3646  0.0319
   17MOL  Cl149 5301   4.629   0.301   2.126  0.7252 -0.5131 -0.5114
   17MOL   C150 5302   4.726   0.082   2.014 -0.4703 -0.0825  0.4606
   17MOL   C151 5303   4.752   8.412   1.898 -0.1589 -0.6066 -0.1350
   17MOL   C152 5304   4.750   0.044   1.770 -0.8232  0.9295 -0.3899
   17MOL   C153 5305   4.705   0.177   1.751 -0.6278 -0.4493 -0.1916
   17MOL   C154 5306   4.470   0.373   1.746  0.6284 -0.5399  0.4657
   17MOL   H155 5307   4.563   0.439   1.924  0.2319 -0.6166 -0.0150
   17MOL   H156 5308   4.741   0.048   2.115  2.1988  0.3965  0.2395
   17MOL   H157 5309   4.784   8.311   1.917 -0.6046 -0.8327 -0.5914
   17MOL   H158 5310   4.769   8.409   1.679 -1.5603 -2.4524  1.4532
   17MOL   H159 5311   4.682   0.205   1.649 -2.0822  3.2684  1.0460
   17MOL   H160 5312   4.408   0.296   1.793  1.5254 -1.4796  0.1283
   17MOL   H161 5313   4.510   0.336   1.652 -1.2668  1.0645 -1.0233
   17MOL   C162 5314   4.388   0.498   1.708 -0.2167 -0.4300  0.5481
   17MOL   C163 5315   4.332   0.581   1.826  0.4527  1.1216  0.2418
   17MOL   C164 5316   4.328   0.723   1.817  0.7128  0.0228  0.1302
   17MOL  Cl165 5317   4.379   0.804   1.675 -0.2641  0.1084  0.2249
   17MOL   C166 5318   4.280   0.795   1.931 -0.6675 -0.1844 -0.0038
   17MOL   C167 5319   4.232   0.725   2.053  0.4501  0.2020 -0.1050
   17MOL   C168 5320   4.240   0.585   2.054  0.2959 -0.0508  0.5718
   17MOL   C169 5321   4.292   0.520   1.942  0.0793  0.8158  0.2144
   17MOL   C170 5322   4.266   0.453   1.622 -1.1056 -0.5374 -0.0838
   17MOL   H171 5323   4.449   0.567   1.649  0.1744 -2.6231 -1.7024
   17MOL   H172 5324   4.259   0.901   1.920  0.3860  0.3214  2.5205
   17MOL   H173 5325   4.192   0.783   2.135 -0.3585 -0.3787 -0.0791
   17MOL   H174 5326   4.217   0.526   2.142 -1.2946 -2.4248 -1.3638
   17MOL   H175 5327   4.286   0.413   1.952  0.8474  0.5017 -2.3044
   17MOL   H176 5328   4.189   0.530   1.624 -0.9927 -0.4163 -0.3945
   17MOL   H177 5329   4.212   0.373   1.672  0.1332 -1.3177  0.0336
   17MOL   C178 5330   4.296   0.429   1.467  0.0204  0.1784  0.4958
   17MOL   C179 5331   4.325   0.560   1.386  0.4871 -0.1133 -0.6355
   17MOL   C180 5332   4.454   0.608   1.360 -0.2794  0.0047  0.3930
   17MOL  Cl181 5333   4.596   0.524   1.399  0.0045  0.1359 -0.0111
   17MOL   C182 5334   4.477   0.737   1.300 -0.0167  0.0777 -0.0505
   17MOL   C183 5335   4.363   0.814   1.257 -0.0558  0.2513 -0.2085
   17MOL   C184 5336   4.237   0.761   1.285 -0.0495  0.3303  0.2269
   17MOL   C185 5337   4.217   0.636   1.342  0.2140 -1.0340 -0.6296
   17MOL   C186 5338   4.194   0.332   1.405 -0.2377 -0.1057  0.5824
   17MOL   H187 5339   4.388   0.373   1.458 -0.5824 -0.6237 -0.6430
   17MOL   H188 5340   4.571   0.781   1.272 -0.3064 -0.8803 -2.6774
   17MOL   H189 5341   4.387   0.913   1.219 -1.7961  1.0502  0.7418
   17MOL   H190 5342   4.154   0.817   1.245  0.7317  1.1183 -0.3054
   17MOL   H191 5343   4.118   0.597   1.360 -0.7088  1.8310  0.7776
   17MOL   H192 5344   4.202   0.349   1.297 -0.4099  1.8120  0.8638
   17MOL   H193 5345   4.098   0.367   1.442 -0.1254  0.9581 -0.1092
   17MOL   C194 5346   4.212   0.183   1.438 -0.0661 -0.2128  0.0097
   17MOL   C195 5347   4.344   0.123   1.372  0.4987 -0.3737  0.3949
   17MOL   C196 5348   4.440   0.050   1.444 -0.5667  0.5449 -0.1931
   17MOL  Cl197 5349   4.433   0.044   1.616  0.1229 -0.0051  0.0024
   17MOL   C198 5350   4.543   8.405   1.381 -0.7477  0.0045  0.4439
   17MOL   C199 5351   4.556   8.409   1.239  0.0464  0.3296 -0.0519
   17MOL   C200 5352   4.457   0.058   1.158  0.1864 -0.7337  0.3631
   17MOL   C201 5353   4.356   0.122   1.230  0.3894 -0.4239 -0.2235
   17MOL   C202 5354   4.089   0.095   1.408 -0.8320 -0.0019 -0.5849
   17MOL   H203 5355   4.240   0.184   1.544  3.3504  0.6673 -0.8140
   17MOL   H204 5356   4.624   8.356   1.433  1.0334  0.7939 -1.5147
   17MOL   H205 5357   4.649   8.371   1.199 -1.0386 -0.4822 -1.8489
   17MOL   H206 5358   4.458   0.071   1.051 -0.0023  2.3757  0.6837
   17MOL   H207 5359   4.273   0.165   1.176  0.8800  1.5849  0.5652
   17MOL   H208 5360   4.118   0.007   1.350  0.4741  0.1826 -0.2289
   17MOL   H209 5361   4.021   0.152   1.345  0.0716  2.1753  0.3591
   17MOL   C210 5362   4.013   0.054   1.536 -0.2844  0.9742  0.1190
   17MOL   C211 5363   3.893   8.378   1.513 -0.2940  0.0481 -0.0564
   17MOL   C212 5364   3.884   8.248   1.568  0.3445  0.1344  0.1666
   17MOL  Cl213 5365   4.014   8.167   1.642 -0.1654 -0.0198 -0.1086
   17MOL   C214 5366   3.772   8.168   1.538  0.1731  0.6437  0.9159
   17MOL   C215 5367   3.661   8.212   1.468 -0.0222 -0.1627 -0.1388
   17MOL   C216 5368   3.663   8.341   1.412 -0.0291  0.0298  0.2180
   17MOL   C217 5369   3.782   0.000   1.432  0.8622  0.3350 -0.2069
   17MOL   C218 5370   3.971   0.172   1.632 -0.3116 -0.0249  0.9244
   17MOL   H219 5371   4.083   8.413   1.592 -2.1353  0.1339  1.5778
   17MOL   H220 5372   3.773   8.070   1.582 -1.5667 -0.5608 -1.5903
   17MOL   H221 5373   3.575   8.146   1.459  1.5991 -2.2435 -0.7847
   17MOL   H222 5374   3.584   8.393   1.360 -0.6209  0.8354  1.8653
   17MOL   H223 5375   3.787   0.095   1.380  2.4569  0.8928  0.9551
   17MOL   H224 5376   3.883   0.215   1.585  0.5568  0.2082 -0.5007
   17MOL   H225 5377   4.039   0.257   1.637 -2.3109  1.5506  1.8924
   17MOL   C226 5378   3.938   0.132   1.785  0.4409 -0.7750  1.4428
   17MOL   C227 5379   3.848   0.245   1.844 -0.2934  0.2089 -0.2600
   17MOL   C228 5380   3.712   0.226   1.889  0.0729  0.1600 -0.2461
   17MOL  Cl229 5381   3.642   0.065   1.889 -0.0864 -0.1912  0.1100
   17MOL   C230 5382   3.634   0.330   1.921 -0.3228 -0.7721  0.4684
   17MOL   C231 5383   3.693   0.458   1.946  0.3673  0.0033 -0.4748
   17MOL   C232 5384   3.826   0.479   1.922 -0.1379  0.0492  0.1616
   17MOL   C233 5385   3.901   0.370   1.878 -0.4434 -0.3596 -0.1026
   17MOL   C234 5386   4.063   0.106   1.863  1.1081  0.1265  0.6997
   17MOL   H235 5387   3.884   0.039   1.765 -1.1012  0.2837  0.5425
   17MOL   H236 5388   3.532   0.315   1.953 -1.2603  0.9704 -1.5132
   17MOL   H237 5389   3.639   0.538   1.995  0.8918 -0.0641  0.2196
   17MOL   H238 5390   3.873   0.576   1.935 -2.3300  1.2755 -0.6742
   17MOL   H239 5391   4.005   0.394   1.860 -0.0777  0.3869  2.7841
   17MOL   H240 5392   4.105   0.207   1.864  0.1247  0.5714 -0.9477
   17MOL   H241 5393   4.129   0.037   1.809 -0.9255 -1.0376 -0.3470
   17MOL   C242 5394   4.040   0.061   2.010  0.0635  0.0179 -0.0406
   17MOL   C243 5395   4.106   0.150   2.112  0.0684 -0.4222 -0.0094
   17MOL   C244 5396   4.246   0.148   2.137 -0.4106 -0.1031 -0.4777
   17MOL  Cl245 5397   4.359   0.066   2.034 -0.2577  0.3263  0.0495
   17MOL   C246 5398   4.295   0.205   2.250  0.3765 -0.4054 -0.0307
   17MOL   C247 5399   4.216   0.278   2.342  0.1654  0.5343 -0.7388
   17MOL   C248 5400   4.078   0.298   2.311  0.3549  0.1319 -0.1186
   17MOL   C249 5401   4.026   0.229   2.200  0.0479  0.0769  0.0966
   17MOL   C250 5402   4.066   8.329   2.033 -0.3112 -0.0149  0.0012
   17MOL   H251 5403   3.935   0.082   2.030  0.3271 -0.1215  1.5178
   17MOL   H252 5404   4.395   0.211   2.289 -0.4276  1.0006  1.8917
   17MOL   H253 5405   4.267   0.313   2.430 -0.6911  1.0403 -0.4323
   17MOL   H254 5406   4.013   0.354   2.377  0.5795 -0.4125  0.5737
   17MOL   H255 5407   3.922   0.252   2.185  0.1343 -1.1793 -2.7676
   17MOL   H256 5408   4.173   8.313   2.026 -0.5710 -1.3600 -1.0813
   17MOL   H257 5409   4.013   8.274   1.956  0.6808 -1.1875  0.1385
   17MOL   C258 5410   4.015   8.284   2.172 -0.4319 -0.3578 -0.1331
   17MOL   C259 5411   4.113   8.186   2.243  0.4882  0.4576  0.1311
   17MOL   C260 5412   4.157   8.205   2.378 -0.2666  1.2706  0.3016
   17MOL  Cl261 5413   4.108   8.327   2.486 -0.1933 -0.0583 -0.0824
   17MOL   C262 5414   4.255   8.112   2.426 -0.0641  0.1276  0.3914
   17MOL   C263 5415   4.317   8.019   2.344  0.2829  0.1173 -0.6211
   17MOL   C264 5416   4.283   8.011   2.208 -0.0853  0.3617 -0.2452
   17MOL   C265 5417   4.172   8.089   2.165  0.5998  0.3825  0.0320
   17MOL   C266 5418   3.864   8.243   2.162  0.8923 -0.0481 -0.4560
   17MOL   H267 5419   4.016   8.370   2.238  0.7978  0.6611 -1.4378
   17MOL   H268 5420   4.296   8.128   2.525  0.1161 -0.4345  0.4093
   17MOL   H269 5421   4.407   7.970   2.379  1.0579  1.2058 -1.0609
   17MOL   H270 5422   4.349   7.955   2.144  0.3326 -2.7161  2.7159
   17MOL   H271 5423   4.134   8.082   2.064  1.4516 -1.2287 -0.1987
   17MOL   H272 5424   3.866   8.135   2.147 -2.2454 -0.3176  0.6707
   17MOL   H273 5425   3.830   8.282   2.066 -0.2501 -0.3603 -0.1910
   17MOL   C274 5426   3.775   8.285   2.275  0.3156  0.3242 -0.0606
   17MOL   C275 5427   3.639   8.210   2.279  0.2232  0.2863 -0.6992
   17MOL   C276 5428   3.602   8.137   2.396 -0.2829 -0.5031 -0.3061
   17MOL  Cl277 5429   3.702   8.127   2.534  0.2466 -0.2248 -0.0387
   17MOL   C278 5430   3.484   8.070   2.400  0.4212  0.5660  0.0560
   17MOL   C279 5431   3.394   8.063   2.291 -0.3611 -0.4680  1.0440
   17MOL   C280 5432   3.424   8.135   2.176  0.7050 -0.9518  0.4966
   17MOL   C281 5433   3.544   8.207   2.168  0.8437 -0.1434  0.4717
   17MOL   C282 5434   3.753   0.018   2.277 -0.0324  0.0057 -0.0768
   17MOL   H283 5435   3.834   8.253   2.361 -0.7108 -1.5952 -0.0402
   17MOL   H284 5436   3.463   8.000   2.479  2.5722  0.2362  0.3610
   17MOL   H285 5437   3.309   7.998   2.301 -0.0773 -0.7138  1.9327
   17MOL   H286 5438   3.358   8.133   2.091  1.7868 -1.9566 -0.3347
   17MOL   H287 5439   3.576   8.257   2.078  1.1941  0.2792  0.8347
   17MOL   H288 5440   3.715   0.050   2.180  2.0680  1.3929 -0.4805
   17MOL   H289 5441   3.849   0.069   2.286  0.3411  0.0594 -3.6189
   17MOL   C290 5442   3.654   0.077   2.377 -0.3701  0.0296 -0.6220
   17MOL   C291 5443   3.607   0.211   2.329 -0.3581  0.3643  0.2054
   17MOL   C292 5444   3.490   0.223   2.252  0.2903  0.7932  0.7872
   17MOL  Cl293 5445   3.394   0.089   2.219 -0.3629 -0.2685 -0.0190
   17MOL   C294 5446   3.452   0.339   2.192  0.5515 -0.2711  0.4096
   17MOL   C295 5447   3.526   0.455   2.217  0.5613 -0.5580 -0.4718
   17MOL   C296 5448   3.641   0.449   2.299  0.0102  0.0374  0.6179
   17MOL   C297 5449   3.681   0.327   2.354  0.3950  0.1723 -0.1148
   17MOL   C298 5450   3.709   0.075   2.515 -0.3128 -0.2977  0.1366
   17MOL   H299 5451   3.567   0.011   2.387  1.4520 -2.5650 -1.4907
   17MOL   H300 5452   3.373   0.358   2.121  2.8344  0.8566 -1.9522
   17MOL   H301 5453   3.485   0.541   2.166 -0.5632 -2.4320 -2.8148
   17MOL   H302 5454   3.704   0.534   2.318 -0.9864  1.2794 -1.3812
   17MOL   H303 5455   3.774   0.311   2.406 -1.1300  0.3781  2.7522
   17MOL   H304 5456   3.813   0.107   2.514 -0.5453  0.5018  0.7039
   17MOL   H305 5457   3.723   8.389   2.535  3.4443 -0.1046 -1.2121
   17MOL   C306 5458   3.634   0.143   2.632  1.0522 -0.4615 -0.2431
   17MOL   C307 5459   3.691   0.103   2.768 -0.2704 -0.2823  0.2595
   17MOL   C308 5460   3.742   0.203   2.856  0.0098  0.0584  0.4182
   17MOL  Cl309 5461   3.728   0.370   2.821 -0.0256 -0.1425 -0.0952
   17MOL   C310 5462   3.795   0.157   2.976 -0.1458 -0.5069 -0.2116
   17MOL   C311 5463   3.814   0.022   2.996  0.2704 -0.0107 -0.2819
   17MOL   C312 5464   3.760   8.343   2.911 -0.5150  0.7779 -0.1098
   17MOL   C313 5465   3.697   8.383   2.792 -0.2250 -0.1465  0.3273
   17MOL   C314 5466   3.477   0.112   2.614 -0.2754 -0.0969 -0.0533
   17MOL   H315 5467   3.658   0.249   2.621  3.1793 -0.8811  0.1220
   17MOL   H316 5468   3.826   0.229   3.050  0.7126  0.0853 -1.1343
   17MOL   H317 5469   3.865   0.001   3.089  1.9184  0.8234 -0.9643
   17MOL   H318 5470   3.788   8.242   2.936 -0.4833  0.5890 -0.8990
   17MOL   H319 5471   3.659   8.310   2.722  0.5791 -1.1256  0.8939
   17MOL   H320 5472   3.455   0.006   2.610 -1.2102  0.0640  0.7561
   17MOL   H321 5473   3.432   0.157   2.525 -2.0972  0.3317  1.0803
   17MOL   H322 5474   3.429   0.140   2.707  1.3474  1.7259  0.2831
   18MOL     C1 5475   7.881   4.682   6.428 -0.2570  0.5817 -0.2599
   18MOL     C2 5476   7.816   4.544   6.466 -0.3609  0.4735  0.1879
   18MOL     C3 5477   7.836   4.483   6.591  0.1051 -0.0872 -0.4019
   18MOL    Cl4 5478   7.955   4.542   6.703 -0.0244  0.1609 -0.0682
   18MOL     C5 5479   7.769   4.359   6.618 -0.2767 -0.1150 -0.2040
   18MOL     C6 5480   7.694   4.290   6.521 -0.7993  0.8325 -0.3818
   18MOL     C7 5481   7.684   4.356   6.395 -0.3956  0.2823 -0.3701
   18MOL     C8 5482   7.736   4.484   6.370  0.6849  0.4010 -0.0949
   18MOL     C9 5483   7.974   4.681   6.309  0.2247  0.0232 -0.3788
   18MOL    H10 5484   7.800   4.752   6.407 -0.0710  1.8679  2.9602
   18MOL    H11 5485   7.776   4.310   6.714  0.6544  0.1666 -0.1241
   18MOL    H12 5486   7.636   4.202   6.545 -0.3367  0.3102 -1.1568
   18MOL    H13 5487   7.618   4.301   6.330  0.3735  0.1448 -1.0369
   18MOL    H14 5488   7.722   4.530   6.273  0.8654  1.3893  0.3430
   18MOL    H15 5489   8.027   4.776   6.306  0.3730  0.0869  2.8316
   18MOL    H16 5490   7.914   4.690   6.218  0.7019 -0.2298 -0.7220
   18MOL    H17 5491   7.931   4.719   6.517  0.2949 -0.1054 -0.2799
   18MOL    C18 5492   8.077   4.573   6.272 -0.3665  0.3469 -0.2004
   18MOL    C19 5493   8.188   4.581   6.376 -0.0233 -0.1068 -0.3990
   18MOL    C20 5494   8.212   4.470   6.467  0.6980 -0.2731  0.7195
   18MOL   Cl21 5495   8.138   4.314   6.455  0.3252  0.2486  0.1342
   18MOL    C22 5496   8.304   4.487   6.571  0.2231  0.3422 -0.3416
   18MOL    C23 5497   8.386   4.603   6.583  0.4881 -0.1317  0.2951
   18MOL    C24 5498   8.368   4.707   6.490 -0.2222  0.0520  0.1530
   18MOL    C25 5499   8.278   4.693   6.386  0.9375  0.8149 -0.5200
   18MOL    C26 5500   8.126   4.594   6.119 -0.0926  0.1106 -0.0744
   18MOL    H27 5501   8.026   4.477   6.269  1.2523 -0.5569  0.6940
   18MOL    H28 5502   8.323   4.403   6.637  1.1930  0.0088 -1.0345
   18MOL    H29 5503   0.039   4.609   6.662  0.2145 -0.4831  0.5823
   18MOL    H30 5504   0.008   4.795   6.508  0.3630 -0.2882 -0.1254
   18MOL    H31 5505   8.251   4.773   6.319 -1.2112  0.4620 -0.1241
   18MOL    H32 5506   8.137   4.701   6.101  0.1490  0.2189  0.7129
   18MOL    H33 5507   8.048   4.555   6.054  1.2854 -0.4609 -1.4301
   18MOL    C34 5508   8.257   4.521   6.093 -0.1624  0.5803  0.2011
   18MOL    C35 5509   8.308   4.564   5.960  0.2740 -0.0262  0.5065
   18MOL    C36 5510   8.385   4.684   5.947 -0.3202  0.1864 -0.3168
   18MOL   Cl37 5511   0.004   4.787   6.082 -0.3808 -0.4179 -0.1100
   18MOL    C38 5512   0.021   4.723   5.826  0.5613 -1.0874 -0.1331
   18MOL    C39 5513   8.420   4.651   5.705 -0.1655  0.8309 -0.7431
   18MOL    C40 5514   8.335   4.537   5.715 -0.8359 -0.2668  0.1320
   18MOL    C41 5515   8.282   4.495   5.835  0.9685 -0.1753 -0.3443
   18MOL    C42 5516   8.248   4.360   6.096 -0.1292  0.1556  0.4995
   18MOL    H43 5517   8.336   4.549   6.162  1.2967  0.7437 -1.4849
   18MOL    H44 5518   0.080   4.813   5.822 -1.6029  0.3322 -0.9070
   18MOL    H45 5519   0.042   4.677   5.610  0.5207 -1.2085 -1.0099
   18MOL    H46 5520   8.297   4.482   5.630  2.2479 -1.4731 -0.5647
   18MOL    H47 5521   8.212   4.413   5.836 -0.3174  0.8927  2.4001
   18MOL    H48 5522   8.175   4.325   6.023  1.7980 -0.5821 -1.1184
   18MOL    H49 5523   8.194   4.333   6.187  2.0772  0.5425  1.9660
   18MOL    C50 5524   8.383   4.290   6.081  0.1044 -0.3459 -0.5824
   18MOL    C51 5525   8.368   4.152   6.021  0.2649  0.1819  0.5317
   18MOL    C52 5526   0.021   4.120   5.901 -0.4850 -0.1193  0.1385
   18MOL   Cl53 5527   0.112   4.239   5.816 -0.0361  0.0057  0.0317
   18MOL    C54 5528   0.008   3.999   5.843 -0.3828  0.6569  0.3929
   18MOL    C55 5529   8.359   3.891   5.904  0.0649 -0.2151 -1.1092
   18MOL    C56 5530   8.289   3.916   6.025 -1.1262 -0.7354  0.0969
   18MOL    C57 5531   8.293   4.046   6.084  0.6372 -0.3205  0.0292
   18MOL    C58 5532   0.021   4.274   6.223 -0.0510  0.5191  0.4630
   18MOL    H59 5533   0.027   4.361   6.027 -0.7963  0.1183 -1.0566
   18MOL    H60 5534   0.056   3.981   5.748 -0.4257  0.2052  0.4557
   18MOL    H61 5535   8.360   3.793   5.860 -1.6710 -0.8588  0.2265
   18MOL    H62 5536   8.239   3.833   6.073 -2.7130  1.0628  1.6538
   18MOL    H63 5537   8.237   4.069   6.173 -2.0271 -1.4358 -1.2866
   18MOL    H64 5538   8.377   4.217   6.290  2.2056  0.1839  2.4156
   18MOL    H65 5539   0.018   4.377   6.258  0.5766  0.3891  0.9021
   18MOL    C66 5540   0.166   4.225   6.244 -0.2588 -0.1313 -1.1099
   18MOL    C67 5541   0.204   4.084   6.196  0.4874  0.2234  0.0762
   18MOL    C68 5542   0.303   4.061   6.099  0.8455 -0.5493 -0.5728
   18MOL   Cl69 5543   0.385   4.190   6.026 -0.3647  0.0956  0.3441
   18MOL    C70 5544   0.340   3.926   6.064  0.6780 -0.1333  0.0924
   18MOL    C71 5545   0.275   3.813   6.121 -0.1094 -0.0586  0.2727
   18MOL    C72 5546   0.173   3.831   6.214  0.5201  0.0624  0.0812
   18MOL    C73 5547   0.132   3.969   6.248 -0.8365 -0.3529 -0.9262
   18MOL    C74 5548   0.205   4.242   6.394  0.8251  0.1164 -0.4664
   18MOL    H75 5549   0.221   4.299   6.186 -1.1035 -0.7875 -2.8029
   18MOL    H76 5550   0.426   3.915   6.000  1.8723  0.6658  1.5222
   18MOL    H77 5551   0.306   3.715   6.088  2.4775  0.0786  2.1472
   18MOL    H78 5552   0.120   3.745   6.253  0.3653 -0.0430 -0.3655
   18MOL    H79 5553   0.061   4.005   6.321  0.0338  0.6379 -0.5549
   18MOL    H80 5554   0.157   4.170   6.461  1.5952  0.8187  0.8586
   18MOL    H81 5555   0.165   4.339   6.422  0.1715  0.3295 -2.0656
   18MOL    C82 5556   0.356   4.238   6.418  0.4926  0.8707 -0.2703
   18MOL    C83 5557   0.391   4.170   6.548 -0.3787  0.4058  1.2058
   18MOL    C84 5558   0.459   4.044   6.555  0.4354  0.0366 -0.1521
   18MOL   Cl85 5559   0.496   3.948   6.413 -0.3636  0.1710  0.0464
   18MOL    C86 5560   0.494   3.997   6.682 -0.0337  0.0045  0.3189
   18MOL    C87 5561   0.456   4.068   6.797  0.4917 -0.0158  0.0690
   18MOL    C88 5562   0.391   4.192   6.791 -0.2446 -0.2455 -0.0580
   18MOL    C89 5563   0.353   4.234   6.667 -0.1900 -0.0584  0.0037
   18MOL    C90 5564   0.415   4.375   6.399 -0.5978  0.1655 -0.1761
   18MOL    H91 5565   0.407   4.184   6.339  0.7958 -0.4596  0.8259
   18MOL    H92 5566   0.545   3.902   6.692 -0.2281  0.0837  2.3518
   18MOL    H93 5567   0.482   4.027   6.894  1.0144 -0.1739 -0.1353
   18MOL    H94 5568   0.374   4.251   6.880 -0.2238 -1.7679  0.9862
   18MOL    H95 5569   0.298   4.327   6.665 -0.3914 -0.1385  1.5317
   18MOL    H96 5570   0.417   4.427   6.494 -0.1795  1.4032 -0.8504
   18MOL    H97 5571   0.345   4.444   6.353  2.1777  2.2657 -1.3822
   18MOL    C98 5572   0.557   4.381   6.329 -0.3114 -0.3299  0.2007
   18MOL    C99 5573   0.668   4.287   6.397  0.4181 -0.3908 -0.2689
   18MOL   C100 5574   0.737   4.192   6.319  0.8151  0.2976  0.6604
   18MOL  Cl101 5575   0.725   4.179   6.150  0.0937 -0.1953  0.1661
   18MOL   C102 5576   0.832   4.103   6.375 -0.9512 -0.8652 -1.3487
   18MOL   C103 5577   0.858   4.113   6.514 -0.2790 -0.3806 -0.8786
   18MOL   C104 5578   0.789   4.205   6.595  0.7951  1.0900  0.9757
   18MOL   C105 5579   0.702   4.302   6.534 -0.0069  0.2206 -0.2787
   18MOL   C106 5580   0.609   4.533   6.321 -0.1707 -0.5213 -0.1294
   18MOL   H107 5581   0.553   4.341   6.228 -0.8865 -0.1571  0.1555
   18MOL   H108 5582   0.891   4.044   6.308  1.7143  0.9294 -0.6859
   18MOL   H109 5583   0.939   4.057   6.558  0.5133  0.8008 -0.7958
   18MOL   H110 5584   0.811   4.213   6.701  0.5050  0.2850  1.0962
   18MOL   H111 5585   0.639   4.365   6.596 -0.7814 -2.0087  1.2723
   18MOL   H112 5586   0.702   4.529   6.265 -0.7876  0.2344 -1.2222
   18MOL   H113 5587   0.638   4.562   6.421 -0.2344 -0.9191  0.0070
   18MOL   C114 5588   0.517   4.646   6.258 -0.0447 -0.6310  0.2281
   18MOL   C115 5589   0.507   4.629   6.108 -0.0779  0.5417  0.4513
   18MOL   C116 5590   0.380   4.590   6.054  0.8895  0.3407  0.5312
   18MOL  Cl117 5591   0.242   4.557   6.145  0.0211 -0.1802  0.0385
   18MOL   C118 5592   0.361   4.574   5.911  0.2021 -0.0967 -0.0966
   18MOL   C119 5593   0.476   4.595   5.831  0.4947 -0.1084  0.6461
   18MOL   C120 5594   0.603   4.623   5.883  0.3098  0.4213 -0.2405
   18MOL   C121 5595   0.615   4.641   6.021 -0.2968  0.2858 -0.7705
   18MOL   C122 5596   0.574   4.779   6.299  0.0180 -0.4303  0.3358
   18MOL   H123 5597   0.423   4.636   6.312 -0.0167  1.6503  0.7537
   18MOL   H124 5598   0.267   4.544   5.868  0.9428  0.7882 -2.3874
   18MOL   H125 5599   0.474   4.586   5.724  1.1693 -0.3109  0.6449
   18MOL   H126 5600   0.684   4.632   5.813  0.0259 -2.0721 -0.9452
   18MOL   H127 5601   0.708   4.670   6.068 -2.0073  1.6059  1.9329
   18MOL   H128 5602   0.517   4.855   6.246  0.1895 -0.0300  0.7318
   18MOL   H129 5603   0.673   4.797   6.257 -0.5207  2.4208  0.2404
   18MOL   C130 5604   0.567   4.824   6.448 -0.5084 -0.1797 -0.1496
   18MOL   C131 5605   0.432   4.870   6.489 -0.8835 -0.9259 -0.0908
   18MOL   C132 5606   0.360   4.800   6.585 -0.2888  0.0322 -0.5156
   18MOL  Cl133 5607   0.421   4.660   6.668 -0.0212  0.1377  0.3120
   18MOL   C134 5608   0.239   4.850   6.629  0.6751  0.7560  0.6147
   18MOL   C135 5609   0.179   4.961   6.568  0.6451  0.7587 -0.9492
   18MOL   C136 5610   0.251   5.034   6.471  0.2358 -0.0932 -0.1203
   18MOL   C137 5611   0.378   4.991   6.430 -0.2120 -0.0456  0.4375
   18MOL   C138 5612   0.673   4.932   6.482  0.5135  0.2954 -0.4155
   18MOL   H139 5613   0.601   4.740   6.509  0.1457  2.0079  2.5666
   18MOL   H140 5614   0.188   4.796   6.707  0.5945 -0.2267 -0.1161
   18MOL   H141 5615   0.078   4.988   6.598  0.2162 -1.8929  0.1611
   18MOL   H142 5616   0.206   5.119   6.421  1.0644 -0.0052 -0.7293
   18MOL   H143 5617   0.426   5.042   6.348 -0.7157  1.9244  1.3415
   18MOL   H144 5618   0.618   4.998   6.551 -2.0429 -0.3266 -1.7869
   18MOL   H145 5619   0.691   5.003   6.401 -0.0533  1.0086  0.0687
   18MOL   C146 5620   0.804   4.894   6.544 -0.6868  0.3037 -0.9240
   18MOL   C147 5621   0.788   4.814   6.672  0.3275  1.0650  0.1025
   18MOL   C148 5622   0.835   4.681   6.685 -0.2275 -0.3159  0.0811
   18MOL  Cl149 5623   0.927   4.596   6.563  0.0957  0.0968  0.2803
   18MOL   C150 5624   0.815   4.612   6.803 -0.3199  0.3111  0.4497
   18MOL   C151 5625   0.742   4.670   6.914 -0.2027  0.2942  0.3298
   18MOL   C152 5626   0.687   4.801   6.901 -0.4424 -0.8519 -0.1000
   18MOL   C153 5627   0.713   4.866   6.777 -0.7773  0.3804  0.2023
   18MOL   C154 5628   0.883   5.029   6.564  0.4332  0.4748  0.1936
   18MOL   H155 5629   0.859   4.837   6.470  0.6346 -1.2651  1.2209
   18MOL   H156 5630   0.864   4.517   6.812  1.0101  0.8168 -1.2018
   18MOL   H157 5631   0.716   4.623   7.007 -0.0799  1.0455  0.7517
   18MOL   H158 5632   0.628   4.852   6.975  0.0223  1.4150 -1.2408
   18MOL   H159 5633   0.678   4.967   6.766 -0.4102  0.4452 -0.3955
   18MOL   H160 5634   0.972   4.997   6.617 -0.0424  0.3425  0.9038
   18MOL   H161 5635   0.844   5.101   6.635 -0.3491  1.4461 -1.1828
   18MOL   C162 5636   0.936   5.109   6.435  0.8264 -0.8135  0.5406
   18MOL   C163 5637   0.946   5.026   6.307 -0.7168 -0.4353 -0.0642
   18MOL   C164 5638   0.864   5.044   6.188 -0.8485  0.2751  0.3514
   18MOL  Cl165 5639   0.751   5.173   6.188  0.3502  0.4903 -0.0640
   18MOL   C166 5640   0.886   4.961   6.076 -0.8416  0.7090  0.0739
   18MOL   C167 5641   0.979   4.857   6.076  0.1639  0.4677  0.0279
   18MOL   C168 5642   1.059   4.837   6.192 -0.2044  0.1057 -0.0900
   18MOL   C169 5643   1.043   4.923   6.302 -0.9368 -0.5400  0.4117
   18MOL   C170 5644   1.072   5.193   6.457  0.4078 -0.1277  0.0058
   18MOL   H171 5645   0.858   5.185   6.428  1.7798  0.1421 -0.0652
   18MOL   H172 5646   0.832   4.986   5.986 -1.2151 -1.2926 -0.2853
   18MOL   H173 5647   0.997   4.793   5.991 -0.6028 -0.2020  0.3591
   18MOL   H174 5648   1.126   4.753   6.207 -1.1918 -0.4962  1.1185
   18MOL   H175 5649   1.096   4.903   6.394 -2.8642 -0.9364  1.4622
   18MOL   H176 5650   1.094   5.252   6.368 -0.4309  0.9129  0.4808
   18MOL   H177 5651   1.155   5.123   6.466 -0.5950 -1.3797 -0.4793
   18MOL   C178 5652   1.075   5.294   6.577  0.4200  0.7068  0.0487
   18MOL   C179 5653   1.082   5.444   6.536  0.4013  0.2336  0.1785
   18MOL   C180 5654   0.964   5.522   6.510  0.2310 -0.3308 -0.3705
   18MOL  Cl181 5655   0.807   5.456   6.542  0.3128 -0.0926 -0.0157
   18MOL   C182 5656   0.984   5.658   6.479 -0.3474  0.1481  0.4895
   18MOL   C183 5657   1.114   5.716   6.472 -0.6515  0.1394  0.4662
   18MOL   C184 5658   1.231   5.642   6.496  0.0975 -0.0697 -0.3935
   18MOL   C185 5659   1.207   5.509   6.519  0.2491  0.5327  1.2332
   18MOL   C186 5660   1.181   5.245   6.679  0.4457  0.2605 -0.0642
   18MOL   H187 5661   0.985   5.274   6.635  0.4403  0.7744  0.1036
   18MOL   H188 5662   0.897   5.715   6.450  0.3504  0.7606 -0.4287
   18MOL   H189 5663   1.141   5.817   6.445 -0.5341 -0.2333 -0.8202
   18MOL   H190 5664   1.332   5.682   6.490  0.3070 -0.4410  0.5709
   18MOL   H191 5665   1.297   5.452   6.541  0.9025  0.0390 -2.3418
   18MOL   H192 5666   1.280   5.282   6.653  0.3260  1.3014  0.9149
   18MOL   H193 5667   1.196   5.138   6.672 -1.3674 -0.1523  1.8568
   18MOL   C194 5668   1.157   5.271   6.831  0.5095  0.1310 -0.5541
   18MOL   C195 5669   1.087   5.406   6.857 -0.8781 -0.5034 -0.2731
   18MOL   C196 5670   0.945   5.416   6.878  0.7167  0.1630 -0.2346
   18MOL  Cl197 5671   0.844   5.276   6.881  0.2769  0.0197 -0.1565
   18MOL   C198 5672   0.885   5.542   6.885 -0.3360  0.3281 -0.3030
   18MOL   C199 5673   0.965   5.659   6.876  0.1548  1.3143 -0.0044
   18MOL   C200 5674   1.101   5.654   6.851  1.4425 -0.1591 -1.1164
   18MOL   C201 5675   1.162   5.527   6.833 -0.0834  0.0662 -0.0446
   18MOL   C202 5676   1.285   5.258   6.911 -0.3714  0.2485  0.7059
   18MOL   H203 5677   1.084   5.199   6.869  0.7901  0.5568  0.8244
   18MOL   H204 5678   0.778   5.550   6.896 -0.2637  2.8301 -1.1123
   18MOL   H205 5679   0.920   5.755   6.897 -1.0853  0.5426  0.9127
   18MOL   H206 5680   1.152   5.746   6.826  1.4866  0.3036  0.6502
   18MOL   H207 5681   1.264   5.524   6.797  0.8066  0.9563  2.2822
   18MOL   H208 5682   1.260   5.262   7.017 -1.6061  0.5050  0.4207
   18MOL   H209 5683   1.353   5.341   6.890  0.8363 -0.8504  0.2001
   18MOL   C210 5684   1.373   5.134   6.874  0.3765  0.3545  0.7030
   18MOL   C211 5685   1.299   4.997   6.891 -0.2404  0.2608 -0.3647
   18MOL   C212 5686   1.280   4.906   6.781  0.4523  0.3494 -0.2761
   18MOL  Cl213 5687   1.346   4.936   6.625 -0.0417 -0.0309 -0.1608
   18MOL   C214 5688   1.207   4.790   6.796  0.5304 -0.1474  0.2851
   18MOL   C215 5689   1.153   4.759   6.924  0.0911  0.0423  0.2249
   18MOL   C216 5690   1.169   4.845   7.032 -0.1993  0.2176 -0.2795
   18MOL   C217 5691   1.247   4.960   7.017 -0.3294  0.0754  0.2424
   18MOL   C218 5692   1.509   5.129   6.942  0.6990  0.2466  0.3058
   18MOL   H219 5693   1.391   5.132   6.767  2.6264  1.4839  1.0212
   18MOL   H220 5694   1.205   4.711   6.722 -1.4822 -1.4249  1.6439
   18MOL   H221 5695   1.099   4.666   6.924 -0.6800  0.4841 -0.0822
   18MOL   H222 5696   1.129   4.821   7.130  1.9732  0.1683  0.6229
   18MOL   H223 5697   1.268   5.028   7.098  2.3549  1.2349 -1.3395
   18MOL   H224 5698   1.544   5.027   6.958  1.0773 -0.0179 -2.0678
   18MOL   H225 5699   1.484   5.162   7.043  1.0195 -0.6050  0.6748
   18MOL   C226 5700   1.616   5.213   6.877  0.7624 -0.0019 -0.1127
   18MOL   C227 5701   1.651   5.166   6.742 -0.2432  0.0881  0.0878
   18MOL   C228 5702   1.608   5.225   6.625 -0.0430  0.5337  0.4574
   18MOL  Cl229 5703   1.535   5.377   6.609 -0.4199  0.0185 -0.5550
   18MOL   C230 5704   1.649   5.162   6.505 -0.5057 -0.1535  0.4034
   18MOL   C231 5705   1.726   5.047   6.498  0.9502  0.4187  0.2165
   18MOL   C232 5706   1.772   4.996   6.617  1.1441  0.5904  0.3192
   18MOL   C233 5707   1.731   5.051   6.740  0.2681  0.3788 -0.2180
   18MOL   C234 5708   1.741   5.237   6.976  0.6983  0.0195 -0.0300
   18MOL   H235 5709   1.557   5.304   6.864  0.0181 -0.0585  2.6017
   18MOL   H236 5710   1.628   5.209   6.409  0.2602 -0.8127 -0.0968
   18MOL   H237 5711   1.772   5.013   6.407  1.5292 -0.3560  0.7889
   18MOL   H238 5712   1.843   4.916   6.608 -0.4746 -0.8488  0.1025
   18MOL   H239 5713   1.746   4.999   6.834 -1.5006 -0.2160 -0.2480
   18MOL   H240 5714   1.808   5.290   6.908 -0.5116 -0.4281 -1.6030
   18MOL   H241 5715   1.782   5.143   7.010  2.0212  0.9054  0.8479
   18MOL   C242 5716   1.694   5.316   7.098 -0.6247  0.0044 -1.0361
   18MOL   C243 5717   1.627   5.450   7.060 -0.1396  0.3107  0.5453
   18MOL   C244 5718   1.503   5.488   7.107  0.1661  0.0195  0.3637
   18MOL  Cl245 5719   1.419   5.393   7.225 -0.3076  0.5356 -0.0353
   18MOL   C246 5720   1.439   5.602   7.059 -0.3535  0.2172 -0.7839
   18MOL   C247 5721   1.483   5.675   6.951  0.5211  0.1117  0.4192
   18MOL   C248 5722   1.615   5.643   6.904 -0.2460 -0.1049  0.0683
   18MOL   C249 5723   1.691   5.533   6.963  0.1578 -0.6087  0.4818
   18MOL   C250 5724   1.816   5.345   7.193 -0.9443  0.4920  0.3612
   18MOL   H251 5725   1.627   5.249   7.152  1.3413 -1.6619 -0.6209
   18MOL   H252 5726   1.347   5.630   7.108  0.0002 -0.4729  0.3069
   18MOL   H253 5727   1.432   5.759   6.906 -1.1560 -0.0703  1.9024
   18MOL   H254 5728   1.661   5.703   6.827  0.2860 -0.0507  0.4245
   18MOL   H255 5729   1.786   5.502   6.921 -1.6558 -0.8101 -3.6309
   18MOL   H256 5730   1.788   5.424   7.263  1.4725  1.3372  0.4211
   18MOL   H257 5731   1.886   5.399   7.129  0.1447 -1.2736  0.0196
   18MOL   C258 5732   1.904   5.224   7.243  0.1871 -0.2474 -0.2297
   18MOL   C259 5733   1.824   5.140   7.341  0.5763 -0.4081  0.0531
   18MOL   C260 5734   1.844   4.998   7.340  0.0941  0.5656  0.7835
   18MOL  Cl261 5735   1.912   4.908   7.216  0.1495 -0.3225  0.2824
   18MOL   C262 5736   1.778   4.921   7.437 -0.3538 -0.4516 -0.4325
   18MOL   C263 5737   1.701   4.986   7.535  0.3927  0.7022 -0.3133
   18MOL   C264 5738   1.681   5.120   7.540  0.2233  0.2749  0.0189
   18MOL   C265 5739   1.757   5.196   7.454  0.0765  0.4639 -0.1205
   18MOL   C266 5740   2.022   5.282   7.320  0.0081  0.1147  0.3716
   18MOL   H267 5741   1.935   5.161   7.160  2.1424  0.4193 -0.0181
   18MOL   H268 5742   1.783   4.813   7.441  4.4450 -0.2693  2.1436
   18MOL   H269 5743   1.648   4.934   7.613 -0.4338  0.4658 -1.0173
   18MOL   H270 5744   1.616   5.163   7.614  3.1996  2.2495  1.6096
   18MOL   H271 5745   1.751   5.304   7.467 -0.5835  0.1727  2.2233
   18MOL   H272 5746   2.069   5.198   7.373 -1.5791  0.1573  1.9017
   18MOL   H273 5747   1.996   5.365   7.385  0.6241  0.2077  0.5017
   18MOL   C274 5748   2.143   5.330   7.236  0.0474 -0.1861  0.0957
   18MOL   C275 5749   2.200   5.219   7.147  0.3293 -0.8710  0.5302
   18MOL   C276 5750   2.173   5.205   7.012 -0.8858  0.0460  0.1212
   18MOL  Cl277 5751   2.072   5.322   6.935  0.2070 -0.0243 -0.1249
   18MOL   C278 5752   2.208   5.088   6.951 -0.7136 -0.6641  0.2489
   18MOL   C279 5753   2.275   4.985   7.016 -0.0240 -0.1787 -0.0804
   18MOL   C280 5754   2.309   5.000   7.149  0.3213 -0.3186  0.4129
   18MOL   C281 5755   2.269   5.117   7.213 -0.4977  0.7458 -0.5715
   18MOL   C282 5756   2.245   5.415   7.318  0.5663 -0.1867 -0.5892
   18MOL   H283 5757   2.105   5.412   7.175  1.1254  1.2259  1.3085
   18MOL   H284 5758   2.170   5.063   6.853 -0.8152  0.0044  0.1163
   18MOL   H285 5759   2.288   4.893   6.961  0.6160 -0.1887  0.0881
   18MOL   H286 5760   2.373   4.927   7.197 -0.0623 -2.5481 -2.3529
   18MOL   H287 5761   2.299   5.125   7.316 -0.8701  0.7759 -0.4633
   18MOL   H288 5762   2.349   5.413   7.285 -0.0318 -1.1504 -2.5045
   18MOL   H289 5763   2.256   5.357   7.409 -1.2187  1.1158  0.4769
   18MOL   C290 5764   2.199   5.557   7.347 -0.0030 -0.0842 -0.2543
   18MOL   C291 5765   2.223   5.643   7.220  0.4100 -0.2782  0.1098
   18MOL   C292 5766   2.114   5.694   7.143  0.1626  0.2964  0.2522
   18MOL  Cl293 5767   1.951   5.656   7.178 -0.0876  0.3942 -0.0044
   18MOL   C294 5768   2.131   5.767   7.025 -0.5208  0.5131  0.3611
   18MOL   C295 5769   2.261   5.804   6.986 -0.1881  0.1787 -0.0101
   18MOL   C296 5770   2.376   5.765   7.062 -0.6799  0.4564  0.3740
   18MOL   C297 5771   2.356   5.679   7.173  0.3777 -0.2063  0.6897
   18MOL   C298 5772   2.274   5.616   7.471  0.3810  0.3883  0.4449
   18MOL   H299 5773   2.093   5.549   7.372  0.4232  0.5982  1.8600
   18MOL   H300 5774   2.043   5.784   6.964 -2.1466 -1.0583  2.1950
   18MOL   H301 5775   2.278   5.870   6.902 -0.6080  1.7374  1.1320
   18MOL   H302 5776   2.474   5.793   7.028 -0.7176  2.8705  2.0976
   18MOL   H303 5777   2.445   5.645   7.225  0.9847  0.4117  0.0566
   18MOL   H304 5778   2.246   5.721   7.486  0.5478  0.2235  2.0288
   18MOL   H305 5779   2.381   5.625   7.451  0.5417 -0.4373  0.9306
   18MOL   C306 5780   2.267   5.548   7.600  0.0924 -0.5323  0.4104
   18MOL   C307 5781   2.125   5.515   7.640 -0.4249 -0.5914  0.7346
   18MOL   C308 5782   2.095   5.391   7.702 -0.1823 -1.2588  0.4634
   18MOL  Cl309 5783   2.226   5.284   7.728  0.4787 -0.0914 -0.0161
   18MOL   C310 5784   1.962   5.356   7.729 -0.3993  0.4269  0.3694
   18MOL   C311 5785   1.858   5.447   7.693 -0.2669 -0.8088  0.9635
   18MOL   C312 5786   1.893   5.575   7.643  0.2610 -0.0205  0.7434
   18MOL   C313 5787   2.026   5.610   7.625  0.0088 -0.6340 -0.3428
   18MOL   C314 5788   2.340   5.644   7.700  0.5815 -0.0202 -1.0557
   18MOL   H315 5789   2.334   5.462   7.588 -0.2524 -0.5240 -1.7305
   18MOL   H316 5790   1.938   5.258   7.767  0.6293 -0.2216 -0.6478
   18MOL   H317 5791   1.756   5.416   7.709 -0.2232 -1.8914 -0.6855
   18MOL   H318 5792   1.813   5.643   7.620 -1.5940 -1.4624  2.7384
   18MOL   H319 5793   2.040   5.709   7.583 -0.9594  0.1047  1.0512
   18MOL   H320 5794   2.313   5.748   7.682 -0.6034  0.0102  0.7635
   18MOL   H321 5795   2.448   5.642   7.686  0.6408 -0.4320 -0.5916
   18MOL   H322 5796   2.321   5.615   7.804  0.4982 -1.9849 -1.5933
   19MOL     C1 5797   4.136   4.457   1.155 -0.3000  0.4986  0.3776
   19MOL     C2 5798   4.078   4.531   1.271 -0.1141 -0.5440  0.1248
   19MOL     C3 5799   3.968   4.481   1.353  0.2171  0.0643 -0.4931
   19MOL    Cl4 5800   3.919   4.313   1.345 -0.2780 -0.0156 -0.4309
   19MOL     C5 5801   3.918   4.566   1.453 -0.5871  0.0052 -0.3557
   19MOL     C6 5802   3.956   4.701   1.456 -0.0809 -0.4451  0.4222
   19MOL     C7 5803   4.060   4.756   1.379 -0.0738  0.1203  0.5633
   19MOL     C8 5804   4.123   4.666   1.292 -0.1079  0.7379  0.2261
   19MOL     C9 5805   4.267   4.388   1.188  0.1683  0.5636  0.2811
   19MOL    H10 5806   4.072   4.382   1.109 -1.4949  1.0707  1.0812
   19MOL    H11 5807   3.842   4.524   1.518  2.6343 -3.5322  1.3343
   19MOL    H12 5808   3.897   4.765   1.519  4.9060  3.0407  1.8051
   19MOL    H13 5809   4.077   4.862   1.387 -0.6447  0.2456  0.1916
   19MOL    H14 5810   4.209   4.697   1.235  0.2441 -1.5221 -0.5441
   19MOL    H15 5811   4.243   4.306   1.255  0.3586  0.4811  0.2476
   19MOL    H16 5812   4.334   4.457   1.239  0.5451  1.0562 -0.8506
   19MOL    H17 5813   4.152   4.540   1.086  1.0730  0.7421  0.9561
   19MOL    C18 5814   4.351   4.328   1.071 -0.4957  0.0454  0.8674
   19MOL    C19 5815   4.286   4.195   1.026  0.0002 -0.4768  0.2024
   19MOL    C20 5816   4.228   4.179   0.893 -0.1808  0.6438  0.0158
   19MOL   Cl21 5817   4.234   4.307   0.774  0.0775  0.7508  0.4329
   19MOL    C22 5818   4.174   4.051   0.854  0.2600  0.4479  0.1253
   19MOL    C23 5819   4.169   3.943   0.950  0.4521 -0.3886  0.0550
   19MOL    C24 5820   4.205   3.965   1.081 -0.1714  0.2845 -0.2169
   19MOL    C25 5821   4.268   4.088   1.117  0.0049  0.6656 -0.0923
   19MOL    C26 5822   4.506   4.315   1.104 -0.1515  0.2001  0.1093
   19MOL    H27 5823   4.348   4.407   0.996 -0.3870 -0.4530  0.3336
   19MOL    H28 5824   4.148   4.038   0.750  0.4429  2.1149 -0.1447
   19MOL    H29 5825   4.126   3.851   0.915  2.8275 -2.4549  2.3802
   19MOL    H30 5826   4.198   3.885   1.153 -0.4619  2.2552  2.0132
   19MOL    H31 5827   4.313   4.092   1.215  2.2851 -0.7951 -1.0320
   19MOL    H32 5828   4.557   4.260   1.025 -1.2866  0.8356 -1.0995
   19MOL    H33 5829   4.515   4.261   1.198 -0.7253 -0.0766  0.0076
   19MOL    C34 5830   4.585   4.444   1.099  0.7200  0.3962  0.1939
   19MOL    C35 5831   4.585   4.511   0.956 -0.3400 -0.1229 -0.0797
   19MOL    C36 5832   4.620   4.650   0.936  0.4423 -0.2467  0.1237
   19MOL   Cl37 5833   4.686   4.740   1.065 -0.2977  0.1178 -0.0526
   19MOL    C38 5834   4.608   4.708   0.808  0.5656 -0.6131  0.1120
   19MOL    C39 5835   4.572   4.644   0.689  0.0673 -0.0068  0.2495
   19MOL    C40 5836   4.547   4.505   0.706 -0.3155  0.0726  0.6099
   19MOL    C41 5837   4.554   4.443   0.836  0.3921  0.6153  0.1368
   19MOL    C42 5838   4.740   4.424   1.133  0.0964  0.4846  0.1571
   19MOL    H43 5839   4.534   4.515   1.164 -0.1237  0.0798 -0.1163
   19MOL    H44 5840   4.616   4.816   0.819 -1.6302 -0.2913 -1.2538
   19MOL    H45 5841   4.556   4.686   0.591 -0.4580 -0.9014 -0.0577
   19MOL    H46 5842   4.510   4.441   0.627  0.2172  2.8129 -1.9288
   19MOL    H47 5843   4.530   4.338   0.843  0.6473  0.4342 -1.3616
   19MOL    H48 5844   4.801   4.513   1.117  0.0614  0.6165  0.7467
   19MOL    H49 5845   4.798   4.356   1.070  1.3335  1.9388 -0.2987
   19MOL    C50 5846   4.771   4.380   1.281  0.3931 -0.3622  0.6406
   19MOL    C51 5847   4.709   4.474   1.382  0.1024  0.0849 -0.4565
   19MOL    C52 5848   4.620   4.429   1.483  0.0472 -0.5062  0.1138
   19MOL   Cl53 5849   4.541   4.279   1.481 -0.0228 -0.3967 -0.1906
   19MOL    C54 5850   4.599   4.512   1.594 -0.2290  0.6111 -0.1478
   19MOL    C55 5851   4.647   4.646   1.606 -0.0544 -0.5856  0.2421
   19MOL    C56 5852   4.725   4.694   1.504  0.0357  0.3372  0.2840
   19MOL    C57 5853   4.756   4.608   1.391  0.1133  0.2725  0.0787
   19MOL    C58 5854   4.931   4.361   1.313  0.4000 -0.1628 -0.2916
   19MOL    H59 5855   4.737   4.277   1.296 -1.6945  0.1176 -0.6316
   19MOL    H60 5856   4.539   4.476   1.675 -3.1892  1.1392 -2.0455
   19MOL    H61 5857   4.618   4.699   1.696 -0.0444  0.3364 -0.2899
   19MOL    H62 5858   4.771   4.791   1.517  0.0437  0.5954 -1.5996
   19MOL    H63 5859   4.824   4.647   1.316  0.1535 -1.2437 -0.6737
   19MOL    H64 5860   4.950   4.354   1.420  1.4138  2.7279 -0.2309
   19MOL    H65 5861   4.965   4.462   1.289 -0.6978  0.4571  0.7255
   19MOL    C66 5862   5.012   4.238   1.253 -0.7836 -0.7554  0.9200
   19MOL    C67 5863   4.983   4.097   1.307 -0.4928 -0.0396 -0.2208
   19MOL    C68 5864   5.021   3.979   1.234  0.4668  0.2499  0.4221
   19MOL   Cl69 5865   5.058   3.997   1.068 -0.2342 -0.3037  0.1002
   19MOL    C70 5866   5.003   3.852   1.292 -0.9190  0.2737  0.1524
   19MOL    C71 5867   4.946   3.840   1.416  0.1120 -0.3198 -0.1227
   19MOL    C72 5868   4.913   3.955   1.493 -0.2375  0.2351  0.0917
   19MOL    C73 5869   4.931   4.078   1.441  0.3688 -0.5559  0.1934
   19MOL    C74 5870   5.166   4.272   1.277  0.1647 -0.1758  0.0938
   19MOL    H75 5871   4.995   4.228   1.146  1.8288 -2.9506  0.6479
   19MOL    H76 5872   5.034   3.762   1.241 -3.2172  0.4873 -1.7012
   19MOL    H77 5873   4.932   3.744   1.463  3.5060  0.1649  2.0489
   19MOL    H78 5874   4.872   3.931   1.589 -0.9842 -0.3649 -0.3720
   19MOL    H79 5875   4.906   4.164   1.502  0.4557  0.2045 -0.8294
   19MOL    H80 5876   5.213   4.174   1.268 -0.3176 -0.1735 -3.0283
   19MOL    H81 5877   5.177   4.300   1.382  0.3987  0.2837 -0.0542
   19MOL    C82 5878   5.232   4.388   1.192 -0.2803 -0.0244 -0.0226
   19MOL    C83 5879   5.243   4.347   1.041 -0.0230  0.5296  1.0829
   19MOL    C84 5880   5.157   4.411   0.945  0.2833 -0.4523  0.0923
   19MOL   Cl85 5881   5.052   4.540   0.984 -0.0195  0.0732 -0.0316
   19MOL    C86 5882   5.156   4.363   0.814  0.3976  0.7205 -0.9048
   19MOL    C87 5883   5.243   4.258   0.778 -0.6459  0.5349  0.3641
   19MOL    C88 5884   5.315   4.186   0.873  0.1662 -0.9383 -0.1956
   19MOL    C89 5885   5.319   4.236   1.008  0.2682  0.4420  0.6321
   19MOL    C90 5886   5.368   4.428   1.249  0.1954 -0.3149  0.2418
   19MOL    H91 5887   5.165   4.474   1.198 -0.0056  0.4973 -3.4628
   19MOL    H92 5888   5.092   4.407   0.740 -0.7261 -0.3186 -0.5597
   19MOL    H93 5889   5.241   4.228   0.674  0.4586  0.7963  0.2608
   19MOL    H94 5890   5.377   4.107   0.835  0.3186 -1.7609  1.7389
   19MOL    H95 5891   5.373   4.183   1.085 -0.6568  0.1233  1.0822
   19MOL    H96 5892   5.426   4.475   1.169  0.1631 -1.5069 -0.4894
   19MOL    H97 5893   5.429   4.342   1.274 -1.3972 -1.3189  0.7676
   19MOL    C98 5894   5.377   4.519   1.375 -0.1529  0.3673  0.2878
   19MOL    C99 5895   5.272   4.634   1.378  0.0202  0.1001  0.0418
   19MOL   C100 5896   5.165   4.640   1.474  0.0829 -1.6659 -0.0721
   19MOL  Cl101 5897   5.159   4.525   1.606  0.2116  0.0603  0.4984
   19MOL   C102 5898   5.065   4.735   1.464  0.8729 -0.6068 -0.4468
   19MOL   C103 5899   5.064   4.822   1.352 -0.5511 -0.0891  0.1413
   19MOL   C104 5900   5.160   4.812   1.250 -0.0562  0.2077  0.6720
   19MOL   C105 5901   5.265   4.721   1.266 -0.1672 -0.7426  0.1027
   19MOL   C106 5902   5.522   4.581   1.394  0.9118  0.0097  0.4214
   19MOL   H107 5903   5.359   4.449   1.457  1.5455 -1.8317 -1.1691
   19MOL   H108 5904   4.997   4.748   1.548  1.3605 -1.2280  0.0459
   19MOL   H109 5905   4.978   4.883   1.331 -0.1598  0.9192  1.3566
   19MOL   H110 5906   5.146   4.865   1.157 -1.9647 -1.6422 -0.1503
   19MOL   H111 5907   5.344   4.726   1.192  0.3333  0.2922  0.6981
   19MOL   H112 5908   5.545   4.647   1.310 -2.2133  0.1904 -0.3310
   19MOL   H113 5909   5.589   4.496   1.381  0.9863 -0.4503  3.4007
   19MOL   C114 5910   5.559   4.640   1.532 -0.1342  0.0078 -0.2006
   19MOL   C115 5911   5.499   4.771   1.573 -0.0120  0.1327 -0.2091
   19MOL   C116 5912   5.487   4.812   1.702 -0.2715 -0.2738 -0.3086
   19MOL  Cl117 5913   5.538   4.727   1.845  0.0005  0.0035  0.0228
   19MOL   C118 5914   5.445   4.943   1.724  0.2059 -0.1741 -0.2927
   19MOL   C119 5915   5.409   5.034   1.617  0.3973  0.0698 -0.2872
   19MOL   C120 5916   5.430   4.991   1.488  0.2987 -0.1106  0.4894
   19MOL   C121 5917   5.473   4.863   1.470  0.3032 -0.3910 -0.7020
   19MOL   C122 5918   5.705   4.650   1.562 -0.7105  0.0041 -0.1279
   19MOL   H123 5919   5.517   4.569   1.604  1.6769 -0.2910  0.5991
   19MOL   H124 5920   5.425   4.978   1.824 -2.4812 -1.0665 -0.4734
   19MOL   H125 5921   5.368   5.132   1.634 -0.9993 -0.5276 -0.1666
   19MOL   H126 5922   5.411   5.053   1.402 -1.0150  0.1803  0.9643
   19MOL   H127 5923   5.488   4.835   1.367  3.3389  1.8184 -0.9347
   19MOL   H128 5924   5.734   4.711   1.648  1.4647 -0.7096 -0.3222
   19MOL   H129 5925   5.739   4.708   1.476 -0.2898  0.3121  0.2411
   19MOL   C130 5926   5.790   4.519   1.570  0.7731  0.5782 -0.1060
   19MOL   C131 5927   5.771   4.460   1.712  0.2655 -0.1492 -0.1118
   19MOL   C132 5928   5.696   4.339   1.735  0.7735 -0.5305  0.6589
   19MOL  Cl133 5929   5.609   4.270   1.605  0.2174 -0.2134  0.0679
   19MOL   C134 5930   5.691   4.281   1.860  0.5337 -0.8438  0.3411
   19MOL   C135 5931   5.762   4.335   1.968 -0.3356  1.1537 -0.4472
   19MOL   C136 5932   5.836   4.454   1.946 -0.1154 -0.8607  0.3152
   19MOL   C137 5933   5.833   4.521   1.822 -0.4098  0.4853 -0.2376
   19MOL   C138 5934   5.938   4.539   1.538 -0.2221  0.2426  0.2135
   19MOL   H139 5935   5.755   4.448   1.495 -2.2458  0.8315  1.0034
   19MOL   H140 5936   5.641   4.186   1.864  0.6471 -0.9299 -0.2936
   19MOL   H141 5937   5.769   4.302   2.071 -0.8003 -0.0284 -0.7945
   19MOL   H142 5938   5.899   4.500   2.020  0.4075 -0.2494 -0.4926
   19MOL   H143 5939   5.887   4.613   1.806  0.5024  0.1918  1.0453
   19MOL   H144 5940   5.990   4.456   1.586 -0.5750  1.5035  2.8817
   19MOL   H145 5941   5.981   4.628   1.586 -0.9939  1.0380 -0.5512
   19MOL   C146 5942   5.978   4.531   1.384 -1.0898 -0.4919  0.7931
   19MOL   C147 5943   5.924   4.414   1.309  0.0754  0.9016 -0.2235
   19MOL   C148 5944   5.852   4.433   1.191  0.0974  0.1751 -0.4956
   19MOL  Cl149 5945   5.827   4.592   1.118  0.4055  0.0315  0.1926
   19MOL   C150 5946   5.809   4.320   1.120  0.3966 -0.3783 -0.0623
   19MOL   C151 5947   5.827   4.189   1.165  0.2998 -0.2260 -0.6978
   19MOL   C152 5948   5.899   4.170   1.287 -0.2950 -0.0773  0.6025
   19MOL   C153 5949   5.955   4.283   1.351  0.2321  0.3896 -0.0898
   19MOL   C154 5950   6.125   4.548   1.362  0.5828  0.4722  0.0062
   19MOL   H155 5951   5.935   4.626   1.353 -1.9919 -0.1153  3.1448
   19MOL   H156 5952   5.760   4.332   1.025 -1.0387 -1.1326  0.5722
   19MOL   H157 5953   5.792   4.113   1.097 -1.5703 -0.6474  0.6933
   19MOL   H158 5954   5.924   4.079   1.339 -1.4599  1.1237  3.3929
   19MOL   H159 5955   6.012   4.261   1.440 -2.3199 -3.3856  0.7934
   19MOL   H160 5956   6.149   4.540   1.256  1.0489  1.6467  0.0075
   19MOL   H161 5957   6.179   4.465   1.407  0.0353  1.0943  1.8567
   19MOL   C162 5958   6.186   4.687   1.407  0.0083 -0.1082  0.6665
   19MOL   C163 5959   6.123   4.803   1.336  0.1029 -0.3930 -0.0880
   19MOL   C164 5960   6.091   4.923   1.407  0.9718  0.0087 -0.2401
   19MOL  Cl165 5961   6.118   4.931   1.581 -0.3723  0.0561  0.0564
   19MOL   C166 5962   6.045   5.037   1.342  0.4377 -0.0912 -0.1646
   19MOL   C167 5963   6.030   5.035   1.202 -0.4144 -0.2070  0.6276
   19MOL   C168 5964   6.054   4.916   1.125  0.1981  0.6352  0.4797
   19MOL   C169 5965   6.096   4.804   1.197 -0.5586 -0.0009 -0.0481
   19MOL   C170 5966   6.339   4.688   1.380 -0.3222 -0.5190  0.5181
   19MOL   H171 5967   6.176   4.691   1.515  0.8378  0.8206  0.7155
   19MOL   H172 5968   6.015   5.125   1.397  0.0737  0.6031 -1.4625
   19MOL   H173 5969   5.983   5.119   1.154  2.6222  0.5016 -1.2601
   19MOL   H174 5970   6.027   4.897   1.023  1.0173  0.8906  0.2104
   19MOL   H175 5971   6.114   4.713   1.141 -1.1504 -0.0638 -0.1471
   19MOL   H176 5972   6.380   4.789   1.376  0.7765 -0.8974  1.8616
   19MOL   H177 5973   6.350   4.646   1.281 -0.8958  1.4342 -0.4009
   19MOL   C178 5974   6.428   4.616   1.480 -0.7767  0.6495  0.0641
   19MOL   C179 5975   6.432   4.679   1.616 -0.5923  0.0800 -0.5054
   19MOL   C180 5976   6.388   4.615   1.734  0.0227  0.0442 -0.3487
   19MOL  Cl181 5977   6.343   4.447   1.728  0.1298  0.0109  0.0699
   19MOL   C182 5978   6.391   4.684   1.857  0.1257 -0.3408 -0.1915
   19MOL   C183 5979   6.448   4.815   1.872 -0.0006 -0.2907 -0.7005
   19MOL   C184 5980   6.491   4.873   1.750 -0.2312  0.3129 -0.3103
   19MOL   C185 5981   6.477   4.810   1.628  0.9387 -0.6901  0.6082
   19MOL   C186 5982   6.570   4.585   1.435 -0.3550 -0.4584 -0.1573
   19MOL   H187 5983   6.368   4.525   1.495  0.6807 -0.4690 -0.7914
   19MOL   H188 5984   6.348   4.626   1.937  0.6880 -2.3209 -1.3120
   19MOL   H189 5985   6.457   4.877   1.960  1.5657  0.5154 -1.4054
   19MOL   H190 5986   6.508   4.979   1.744 -2.8012  0.7043 -1.1325
   19MOL   H191 5987   6.520   4.859   1.542  1.1875  1.5309  1.9592
   19MOL   H192 5988   6.625   4.547   1.521 -1.7089 -0.1012  0.8714
   19MOL   H193 5989   6.615   4.682   1.411  2.3264 -1.4489  0.7296
   19MOL   C194 5990   6.595   4.490   1.312  0.1982 -0.2462 -0.0364
   19MOL   C195 5991   6.495   4.376   1.310  0.1988 -0.1733  0.4178
   19MOL   C196 5992   6.408   4.350   1.196  0.0271  0.5054  0.3952
   19MOL  Cl197 5993   6.394   4.456   1.057 -0.0418  0.3513 -0.1636
   19MOL   C198 5994   6.331   4.237   1.196  0.4206 -0.1365 -0.1245
   19MOL   C199 5995   6.325   4.150   1.301  0.2567 -0.1340 -0.3967
   19MOL   C200 5996   6.403   4.174   1.417 -0.1259 -0.9165 -0.7507
   19MOL   C201 5997   6.487   4.290   1.421 -0.3765 -0.4766  0.0619
   19MOL   C202 5998   6.735   4.441   1.302  0.3339  0.5229  0.0104
   19MOL   H203 5999   6.576   4.559   1.230 -4.2129  1.2789  2.0477
   19MOL   H204 6000   6.274   4.209   1.108 -2.6486 -0.2908  1.8413
   19MOL   H205 6001   6.267   4.059   1.292 -2.2443  1.3589 -0.0198
   19MOL   H206 6002   6.408   4.113   1.506  0.0989  0.4875  0.2100
   19MOL   H207 6003   6.551   4.308   1.507  1.2382  0.4927 -1.3120
   19MOL   H208 6004   6.744   4.365   1.223  0.4569  0.2093  0.3257
   19MOL   H209 6005   6.754   4.378   1.389 -2.5229 -0.8939 -0.3314
   19MOL   C210 6006   6.834   4.552   1.266  0.1321 -0.1584  0.3044
   19MOL   C211 6007   6.831   4.603   1.119  0.1840  0.6803 -0.0350
   19MOL   C212 6008   6.894   4.727   1.080 -0.0961 -0.3902 -0.4552
   19MOL  Cl213 6009   6.964   4.829   1.199 -0.1195 -0.0617 -0.1776
   19MOL   C214 6010   6.894   4.769   0.946 -0.2738  0.3932 -0.3619
   19MOL   C215 6011   6.829   4.691   0.851 -0.1292  0.1104 -0.0247
   19MOL   C216 6012   6.755   4.576   0.884 -0.0848  0.1115  0.0695
   19MOL   C217 6013   6.748   4.537   1.019 -0.7163 -0.1119  0.4238
   19MOL   C218 6014   6.980   4.515   1.309  0.4582 -0.2628 -0.5934
   19MOL   H219 6015   6.808   4.645   1.316 -0.6479  0.7695 -1.7359
   19MOL   H220 6016   6.937   4.864   0.920 -0.1286  0.7646  1.1501
   19MOL   H221 6017   6.820   4.729   0.750  0.1726  1.2207  0.3569
   19MOL   H222 6018   6.704   4.518   0.809  1.1985 -0.0648 -0.6761
   19MOL   H223 6019   6.695   4.444   1.035 -0.6889 -0.2741 -0.4075
   19MOL   H224 6020   7.052   4.582   1.262  0.6392 -0.6739 -0.9089
   19MOL   H225 6021   7.009   4.418   1.267  4.5602  0.3133  0.6034
   19MOL   C226 6022   6.991   4.531   1.467  0.5060  0.5818  0.9580
   19MOL   C227 6023   7.009   4.677   1.519 -0.0556  0.0371 -1.0384
   19MOL   C228 6024   6.921   4.734   1.616 -0.1388  0.8015 -0.4303
   19MOL  Cl229 6025   6.806   4.637   1.708  0.1279 -0.2662  0.3471
   19MOL   C230 6026   6.938   4.870   1.655  0.3928 -0.0352 -0.1567
   19MOL   C231 6027   7.034   4.950   1.593 -0.1257  0.1522  0.3318
   19MOL   C232 6028   7.115   4.896   1.497  0.0215 -0.0479 -0.0762
   19MOL   C233 6029   7.108   4.762   1.460  0.0254 -0.0675 -0.0015
   19MOL   C234 6030   7.111   4.434   1.512 -0.3874  0.1152  0.5073
   19MOL   H235 6031   6.899   4.499   1.515 -0.5822  2.7983  0.3895
   19MOL   H236 6032   6.878   4.910   1.735  0.4107 -0.8912  0.2857
   19MOL   H237 6033   7.036   5.053   1.626 -0.9491 -0.4134  2.1663
   19MOL   H238 6034   7.187   4.963   1.451 -0.8615  0.8187 -0.2252
   19MOL   H239 6035   7.175   4.723   1.385  0.3299 -2.5181  1.4949
   19MOL   H240 6036   7.153   4.464   1.608  2.2319 -1.3031 -0.1581
   19MOL   H241 6037   7.198   4.441   1.447 -2.0036  1.3327 -1.5986
   19MOL   C242 6038   7.076   4.287   1.526 -0.0227 -0.3406 -0.3123
   19MOL   C243 6039   6.944   4.272   1.607 -0.8656 -0.4557  0.6092
   19MOL   C244 6040   6.842   4.185   1.560 -0.3542 -0.5649  0.4969
   19MOL  Cl245 6041   6.842   4.114   1.401 -0.1026  0.0680 -0.4302
   19MOL   C246 6042   6.728   4.161   1.636 -0.3520 -0.3377 -0.7397
   19MOL   C247 6043   6.724   4.211   1.770  0.3174  0.5593 -0.3775
   19MOL   C248 6044   6.826   4.295   1.820  0.3371 -0.8671 -0.3324
   19MOL   C249 6045   6.937   4.331   1.734  0.3068  0.1401 -1.0189
   19MOL   C250 6046   7.177   4.198   1.589  0.6391  0.1368 -0.4847
   19MOL   H251 6047   7.055   4.246   1.427  1.2914  3.1252 -2.0818
   19MOL   H252 6048   6.649   4.105   1.588  0.7080 -2.0236 -0.5664
   19MOL   H253 6049   6.630   4.207   1.822 -1.1523  0.3076 -2.9773
   19MOL   H254 6050   6.819   4.342   1.917  1.7274  2.2008 -1.6635
   19MOL   H255 6051   7.009   4.406   1.761  1.3890 -1.0930 -0.4303
   19MOL   H256 6052   7.143   4.094   1.585  1.2266 -0.2338  2.5138
   19MOL   H257 6053   7.179   4.220   1.696 -1.4266  0.4018 -0.4847
   19MOL   C258 6054   7.331   4.216   1.543  0.3747  0.2540  0.1567
   19MOL   C259 6055   7.349   4.208   1.397  0.1845 -0.5446  0.2957
   19MOL   C260 6056   7.420   4.302   1.326  0.0884  0.0914  0.3510
   19MOL  Cl261 6057   7.495   4.439   1.404  0.2017 -0.2148  0.2167
   19MOL   C262 6058   7.419   4.295   1.190 -0.3591  0.3886 -0.7343
   19MOL   C263 6059   7.359   4.188   1.117 -0.3427 -0.6314  0.1555
   19MOL   C264 6060   7.301   4.081   1.187 -0.1974 -0.5409  0.4512
   19MOL   C265 6061   7.292   4.095   1.326  0.5749 -0.0418  0.2313
   19MOL   C266 6062   7.428   4.108   1.601  0.5200 -0.3930 -0.6923
   19MOL   H267 6063   7.354   4.317   1.575  2.1060  0.0014 -0.2956
   19MOL   H268 6064   7.460   4.382   1.142  0.3157 -0.5597 -1.8827
   19MOL   H269 6065   7.380   4.176   1.012 -1.3693  1.0568 -0.2541
   19MOL   H270 6066   7.280   3.987   1.139  0.9768 -1.6506  2.0375
   19MOL   H271 6067   7.252   4.014   1.384  0.0333 -0.1153 -0.2480
   19MOL   H272 6068   7.524   4.126   1.552  0.8752  0.2642  0.2143
   19MOL   H273 6069   7.394   4.007   1.579 -0.2504 -0.5064  0.9321
   19MOL   C274 6070   7.437   4.109   1.763 -0.2617  0.0057  0.0947
   19MOL   C275 6071   7.474   4.250   1.810 -0.4487  0.2410 -0.1108
   19MOL   C276 6072   7.410   4.301   1.928 -0.1057 -0.2456  0.2956
   19MOL  Cl277 6073   7.313   4.202   2.024 -0.5546  0.2047 -0.0037
   19MOL   C278 6074   7.442   4.436   1.972  0.1651 -0.0135  0.1706
   19MOL   C279 6075   7.520   4.521   1.893  0.4206 -0.1069 -0.7058
   19MOL   C280 6076   7.579   4.468   1.773  0.1612 -0.0761 -0.1730
   19MOL   C281 6077   7.570   4.334   1.737 -0.3521  0.0742 -0.5902
   19MOL   C282 6078   7.507   3.983   1.821 -0.3378  0.3106 -0.2111
   19MOL   H283 6079   7.337   4.088   1.799  0.5225 -0.8043  1.8986
   19MOL   H284 6080   7.377   4.476   2.048  1.1957  0.9248  0.5547
   19MOL   H285 6081   7.524   4.623   1.928  1.3396 -1.2081  2.6051
   19MOL   H286 6082   7.634   4.529   1.703 -0.3465  0.3501 -0.2141
   19MOL   H287 6083   7.611   4.302   1.643 -2.3319 -2.2846 -0.6840
   19MOL   H288 6084   7.511   4.001   1.929  0.1183 -0.8777 -0.0189
   19MOL   H289 6085   7.609   3.995   1.784 -0.2054 -1.2631 -0.3673
   19MOL   C290 6086   7.452   3.840   1.786 -0.4028 -0.4284  0.2266
   19MOL   C291 6087   7.297   3.844   1.781  0.7492 -0.3586 -0.1643
   19MOL   C292 6088   7.235   3.814   1.662 -0.1927 -0.2417  0.3380
   19MOL  Cl293 6089   7.324   3.765   1.521  0.1708 -0.0264  0.2590
   19MOL   C294 6090   7.096   3.818   1.650  0.0361 -0.6385  0.5025
   19MOL   C295 6091   7.016   3.873   1.755 -0.3786  0.0165  0.1637
   19MOL   C296 6092   7.077   3.895   1.882 -0.2134  0.0070 -0.4256
   19MOL   C297 6093   7.217   3.880   1.892  0.4808 -0.2443  0.1716
   19MOL   C298 6094   7.493   3.727   1.883  0.2602 -0.1532  0.1669
   19MOL   H299 6095   7.493   3.824   1.687 -0.6995 -0.2746  0.0777
   19MOL   H300 6096   7.061   3.792   1.551  0.8041 -0.8515  0.2863
   19MOL   H301 6097   6.909   3.883   1.742 -0.5531 -0.8808  0.8760
   19MOL   H302 6098   7.009   3.931   1.957 -0.2291 -1.2007  0.1534
   19MOL   H303 6099   7.271   3.901   1.983 -2.4739 -2.7272  2.5686
   19MOL   H304 6100   7.459   3.630   1.847  0.2103  0.1835 -0.6894
   19MOL   H305 6101   7.435   3.761   1.969 -0.6623  1.8564 -1.2055
   19MOL   C306 6102   7.638   3.720   1.937  0.0957  0.4302  0.1442
   19MOL   C307 6103   7.734   3.717   1.822 -0.2735  0.1451  0.6884
   19MOL   C308 6104   7.850   3.794   1.816 -0.1301 -0.9057 -0.1783
   19MOL  Cl309 6105   7.885   3.922   1.925 -0.0777  0.0544 -0.0943
   19MOL   C310 6106   7.943   3.777   1.713 -0.2922 -0.4588  0.6036
   19MOL   C311 6107   7.933   3.668   1.623 -0.4969 -0.5779 -0.9793
   19MOL   C312 6108   7.814   3.592   1.623  0.1154 -0.1286  0.2821
   19MOL   C313 6109   7.716   3.611   1.727  0.5770 -0.3189 -0.0450
   19MOL   C314 6110   7.651   3.604   2.028 -0.3334  0.4765  0.3898
   19MOL   H315 6111   7.647   3.817   1.986  0.6900  0.6641 -0.4188
   19MOL   H316 6112   8.035   3.833   1.726 -0.5283  0.2755 -0.7017
   19MOL   H317 6113   8.012   3.666   1.550  1.3541  2.3496  0.8753
   19MOL   H318 6114   7.792   3.523   1.543 -1.6573  0.3353  0.3601
   19MOL   H319 6115   7.622   3.558   1.721 -0.7487  1.9819 -0.4989
   19MOL   H320 6116   7.592   3.611   2.119  0.3660 -1.2052  0.9990
   19MOL   H321 6117   7.757   3.582   2.041  0.1956  0.9034 -2.9008
   19MOL   H322 6118   7.620   3.519   1.967 -1.6177  1.6955 -0.6669
   20MOL     C1 6119   6.951   6.136   6.211 -1.0912 -0.0210  0.2751
   20MOL     C2 6120   7.048   6.188   6.318 -0.0753  0.1758 -0.4179
   20MOL     C3 6121   7.003   6.197   6.451 -0.3451 -0.4033  0.5947
   20MOL    Cl4 6122   6.844   6.163   6.508  0.0431 -0.4106 -0.0814
   20MOL     C5 6123   7.094   6.230   6.557 -0.2146  0.3799  0.1102
   20MOL     C6 6124   7.230   6.250   6.520 -0.0095 -0.7734  0.5231
   20MOL     C7 6125   7.275   6.244   6.386 -0.4069 -0.1153  0.1119
   20MOL     C8 6126   7.185   6.225   6.286 -0.3077  0.8198  0.0883
   20MOL     C9 6127   6.971   5.986   6.179  0.9447 -1.2453 -0.0400
   20MOL    H10 6128   6.852   6.160   6.249 -2.0550  0.5307 -2.5148
   20MOL    H11 6129   7.045   6.244   6.653  2.1988 -0.6736  1.5416
   20MOL    H12 6130   7.293   6.294   6.596  0.0285  0.8256 -0.3945
   20MOL    H13 6131   7.374   6.273   6.356 -0.7400  0.8144 -0.1163
   20MOL    H14 6132   7.213   6.228   6.182 -1.4043  0.8866 -0.2186
   20MOL    H15 6133   6.978   5.931   6.272 -1.2116  1.2547  1.6922
   20MOL    H16 6134   7.063   5.967   6.125  0.1638  1.2071 -2.4087
   20MOL    H17 6135   6.963   6.200   6.124 -0.1381 -0.8962 -0.2552
   20MOL    C18 6136   6.858   5.916   6.100  0.1432  0.5356  0.7458
   20MOL    C19 6137   6.741   5.886   6.198  0.1470 -0.5149 -0.2292
   20MOL    C20 6138   6.617   5.953   6.180 -0.1784  0.4669 -0.0234
   20MOL   Cl21 6139   6.596   6.075   6.059  0.0611  0.2604 -0.3508
   20MOL    C22 6140   6.515   5.926   6.280 -0.4158  0.1680  0.2709
   20MOL    C23 6141   6.518   5.826   6.371 -0.6956  0.5825 -0.0963
   20MOL    C24 6142   6.645   5.759   6.386 -0.0274  0.8122  0.2180
   20MOL    C25 6143   6.753   5.790   6.297 -0.5236  0.3036  0.1292
   20MOL    C26 6144   6.915   5.790   6.026  0.1234  0.4669 -0.1536
   20MOL    H27 6145   6.834   5.973   6.010  2.2418  0.6109  0.1935
   20MOL    H28 6146   6.419   5.975   6.270 -0.6548 -0.3198  0.1730
   20MOL    H29 6147   6.434   5.795   6.431 -0.2716 -0.7135 -0.1402
   20MOL    H30 6148   6.654   5.671   6.447  2.1050  1.2092  0.5144
   20MOL    H31 6149   6.843   5.730   6.301 -0.3279  0.6596  1.9398
   20MOL    H32 6150   6.945   5.715   6.099  0.2639 -1.0396 -1.7481
   20MOL    H33 6151   7.002   5.817   5.965 -0.7917  0.2251 -1.5859
   20MOL    C34 6152   6.815   5.722   5.924  0.2030  1.2137 -0.9688
   20MOL    C35 6153   6.866   5.591   5.866  0.2145 -0.3071 -0.0116
   20MOL    C36 6154   6.781   5.478   5.851 -0.2837 -0.8853  0.4739
   20MOL   Cl37 6155   6.612   5.478   5.890 -0.2052  0.1951  0.3074
   20MOL    C38 6156   6.841   5.355   5.810 -0.5177  0.6354 -0.3755
   20MOL    C39 6157   6.973   5.343   5.768  0.0468  0.6004  0.6869
   20MOL    C40 6158   7.056   5.455   5.781  0.1197  0.2711  0.1871
   20MOL    C41 6159   7.007   5.578   5.832 -0.9045  0.1772 -0.7779
   20MOL    C42 6160   6.780   5.813   5.799  0.7015 -0.3949  0.1451
   20MOL    H43 6161   6.726   5.715   5.987  2.5159 -0.5561  2.2759
   20MOL    H44 6162   6.783   5.266   5.794 -0.2664 -0.0121  2.0738
   20MOL    H45 6163   7.012   5.245   5.744 -0.0601  1.0527 -1.4777
   20MOL    H46 6164   7.163   5.452   5.768  0.2062  1.2600  0.6005
   20MOL    H47 6165   7.071   5.665   5.844 -2.7801  1.4131  0.5810
   20MOL    H48 6166   6.879   5.835   5.761  0.6973  0.2842  0.5303
   20MOL    H49 6167   6.721   5.902   5.821  1.1276 -0.0005 -0.3156
   20MOL    C50 6168   6.710   5.750   5.673  0.1156 -0.1978 -0.3788
   20MOL    C51 6169   6.791   5.794   5.545 -0.3439 -0.3343  0.2021
   20MOL    C52 6170   6.848   5.706   5.444  0.4022 -0.1080 -0.2729
   20MOL   Cl53 6171   6.821   5.533   5.456  0.1302  0.5035  0.1413
   20MOL    C54 6172   6.919   5.756   5.333  0.8834 -0.6417 -0.2752
   20MOL    C55 6173   6.942   5.893   5.320 -0.4871 -0.2162  0.2816
   20MOL    C56 6174   6.881   5.983   5.410 -0.2748  0.0545 -0.4880
   20MOL    C57 6175   6.808   5.935   5.517 -0.0102 -0.6683 -0.0426
   20MOL    C58 6176   6.553   5.769   5.653  0.1283  0.5259  0.1263
   20MOL    H59 6177   6.718   5.641   5.680  0.2209 -0.0060  3.6302
   20MOL    H60 6178   6.954   5.693   5.252 -1.0978  0.2721 -1.8618
   20MOL    H61 6179   6.994   5.937   5.236 -1.9140  0.4283 -0.2820
   20MOL    H62 6180   6.905   6.087   5.399 -0.5508  0.1264 -0.4093
   20MOL    H63 6181   6.760   6.009   5.578 -0.2098  0.0050 -1.0065
   20MOL    H64 6182   6.538   5.874   5.631 -1.3187 -0.1665 -2.3893
   20MOL    H65 6183   6.505   5.740   5.746  0.6407 -0.7713 -0.0016
   20MOL    C66 6184   6.498   5.696   5.527 -0.6325 -0.0969 -0.4842
   20MOL    C67 6185   6.379   5.787   5.464  0.1682  0.0817 -0.3016
   20MOL    C68 6186   6.404   5.855   5.342 -0.0176  0.7572 -0.3662
   20MOL   Cl69 6187   6.563   5.867   5.275  0.2734 -0.2340  0.2649
   20MOL    C70 6188   6.298   5.929   5.287  0.5837  0.0431 -0.4374
   20MOL    C71 6189   6.169   5.916   5.341  0.5936 -0.7963 -0.6920
   20MOL    C72 6190   6.139   5.843   5.457 -0.3660  0.3493  0.2983
   20MOL    C73 6191   6.248   5.783   5.523  0.0233 -0.3792 -0.4617
   20MOL    C74 6192   6.467   5.550   5.564 -0.3517  0.0812  0.5199
   20MOL    H75 6193   6.575   5.691   5.451 -0.3309 -4.0184 -0.0463
   20MOL    H76 6194   6.307   5.975   5.189  0.9661 -3.5102 -2.1672
   20MOL    H77 6195   6.080   5.953   5.291 -0.2760 -1.4108  0.3840
   20MOL    H78 6196   6.040   5.836   5.498 -0.2594 -2.4166  0.1251
   20MOL    H79 6197   6.230   5.728   5.614 -1.0983  1.9100  0.7366
   20MOL    H80 6198   6.412   5.544   5.658  2.3903  0.1876  2.1794
   20MOL    H81 6199   6.564   5.505   5.587 -0.6575 -1.4626 -1.1144
   20MOL    C82 6200   6.383   5.473   5.457  0.5325 -0.5663 -0.9670
   20MOL    C83 6201   6.332   5.343   5.520 -0.1244  0.4363  0.4372
   20MOL    C84 6202   6.189   5.315   5.526  0.3934  0.2921 -0.3704
   20MOL   Cl85 6203   6.082   5.436   5.468 -0.2785 -0.0470 -0.2197
   20MOL    C86 6204   6.149   5.195   5.584  0.1895 -0.6977 -0.5598
   20MOL    C87 6205   6.246   5.107   5.641  1.0209  0.1824  0.6539
   20MOL    C88 6206   6.383   5.134   5.633  0.2510  0.3999  0.5383
   20MOL    C89 6207   6.427   5.255   5.576 -0.0615  0.0511 -0.4763
   20MOL    C90 6208   6.460   5.433   5.327 -0.2844  0.3679 -0.4811
   20MOL    H91 6209   6.301   5.539   5.431  2.6802  2.6078  0.0731
   20MOL    H92 6210   6.044   5.171   5.589  0.5418 -2.0362  0.6605
   20MOL    H93 6211   6.202   5.017   5.681 -3.0541  3.0475  2.9265
   20MOL    H94 6212   6.449   5.050   5.651 -0.5596  0.0132  1.7847
   20MOL    H95 6213   6.531   5.265   5.548 -0.5226  1.1842 -1.8712
   20MOL    H96 6214   6.539   5.364   5.357 -0.7793 -1.0900 -2.4228
   20MOL    H97 6215   6.507   5.525   5.294  2.6330 -1.4052 -1.4629
   20MOL    C98 6216   6.381   5.351   5.222  0.4320 -0.6873 -0.5411
   20MOL    C99 6217   6.476   5.260   5.141  0.1896 -0.1272  0.1285
   20MOL   C100 6218   6.450   5.118   5.129 -0.1905  0.1536 -0.3228
   20MOL  Cl101 6219   6.317   5.034   5.202  0.1537 -0.2520 -0.0020
   20MOL   C102 6220   6.536   5.038   5.050  0.1410 -0.5068 -0.3770
   20MOL   C103 6221   6.654   5.093   4.991 -0.1972  0.4223  0.4139
   20MOL   C104 6222   6.677   5.232   5.005  0.2563  0.0805 -0.1633
   20MOL   C105 6223   6.585   5.316   5.070  0.8127  0.1919  0.3133
   20MOL   C106 6224   6.297   5.454   5.134  0.0345 -0.8443 -0.6302
   20MOL   H107 6225   6.310   5.284   5.270  0.0141  0.2326  0.1512
   20MOL   H108 6226   6.508   4.935   5.035 -0.9107  0.0350 -2.3240
   20MOL   H109 6227   6.730   5.028   4.949  0.0531 -0.3671  2.0323
   20MOL   H110 6228   6.772   5.271   4.972 -0.6919  1.8873 -0.8466
   20MOL   H111 6229   6.603   5.423   5.062 -0.9339  0.7001  2.7651
   20MOL   H112 6230   6.352   5.547   5.116 -0.0089 -0.3859  1.5357
   20MOL   H113 6231   6.208   5.474   5.192 -1.4116  0.3597 -3.1492
   20MOL   C114 6232   6.258   5.417   4.980  0.0103 -0.5242 -0.5233
   20MOL   C115 6233   6.227   5.545   4.901  0.2685  0.4806 -0.0030
   20MOL   C116 6234   6.324   5.590   4.807  0.2807 -0.1031 -0.0255
   20MOL  Cl117 6235   6.467   5.503   4.767  0.4744  0.2160  0.2101
   20MOL   C118 6236   6.311   5.713   4.742  0.3561 -0.5064 -0.1179
   20MOL   C119 6237   6.198   5.790   4.767  0.3750 -0.7768 -0.0890
   20MOL   C120 6238   6.107   5.750   4.865  0.1367 -0.4635 -0.8483
   20MOL   C121 6239   6.116   5.626   4.931  0.0585  0.1847  0.1930
   20MOL   C122 6240   6.148   5.311   4.961 -0.1547  0.1701  1.0483
   20MOL   H123 6241   6.344   5.370   4.934  1.0656 -1.1147  1.9592
   20MOL   H124 6242   6.376   5.741   4.661 -1.0572  0.5290 -0.9115
   20MOL   H125 6243   6.199   5.890   4.725  1.1833 -0.1969  1.2505
   20MOL   H126 6244   6.022   5.816   4.871 -0.0756 -0.9192  1.3942
   20MOL   H127 6245   6.039   5.591   4.999 -1.4114  0.0924 -1.4801
   20MOL   H128 6246   6.051   5.354   4.988 -1.2963 -0.9326 -1.2136
   20MOL   H129 6247   6.162   5.240   5.043  1.2550  0.4541  1.0561
   20MOL   C130 6248   6.134   5.226   4.829 -0.2576  0.8731 -0.5772
   20MOL   C131 6249   6.093   5.317   4.714  0.2201 -0.0932 -0.3975
   20MOL   C132 6250   6.174   5.334   4.601  1.3282 -0.6285  0.3261
   20MOL  Cl133 6251   6.320   5.250   4.562  0.4040 -0.2938 -0.1376
   20MOL   C134 6252   6.120   5.405   4.487 -0.3293  0.0045  0.5120
   20MOL   C135 6253   6.004   5.478   4.500  0.4760 -0.1390 -0.7044
   20MOL   C136 6254   5.934   5.481   4.620  0.6815 -0.2015  0.8596
   20MOL   C137 6255   5.974   5.397   4.726  0.0462  0.2737  0.2301
   20MOL   C138 6256   6.044   5.102   4.843 -0.4267 -0.1283 -0.1055
   20MOL   H139 6257   6.232   5.181   4.813 -1.0509 -0.5972 -1.4333
   20MOL   H140 6258   6.172   5.404   4.393 -1.6771 -3.2069 -0.2884
   20MOL   H141 6259   5.969   5.538   4.418 -0.6127  0.3882  0.1264
   20MOL   H142 6260   5.848   5.546   4.631 -0.5032 -1.8679  1.6197
   20MOL   H143 6261   5.925   5.394   4.823  0.5501 -0.6399  0.4603
   20MOL   H144 6262   5.943   5.140   4.854 -0.7436  0.0108 -3.0503
   20MOL   H145 6263   6.055   5.051   4.938 -1.4858 -0.1296  0.0190
   20MOL   C146 6264   6.043   5.008   4.716 -0.5385  0.3429 -0.7338
   20MOL   C147 6265   5.928   4.904   4.739 -0.4145 -0.4908 -0.0056
   20MOL   C148 6266   5.822   4.895   4.648  0.3484 -0.2150  0.4789
   20MOL  Cl149 6267   5.811   4.986   4.503 -0.0924  0.2363 -0.1892
   20MOL   C150 6268   5.708   4.816   4.684 -0.4905 -0.1062 -0.7485
   20MOL   C151 6269   5.707   4.743   4.807 -0.3591 -0.2784 -0.0724
   20MOL   C152 6270   5.814   4.752   4.896  0.6409  0.4113 -0.6491
   20MOL   C153 6271   5.925   4.828   4.858  0.5766  0.2212 -0.9577
   20MOL   C154 6272   6.176   4.933   4.691  0.1124  1.5695 -0.4391
   20MOL   H155 6273   6.017   5.067   4.628 -1.0449  1.4140  0.1367
   20MOL   H156 6274   5.619   4.816   4.622 -1.1974 -0.7794  0.2350
   20MOL   H157 6275   5.617   4.690   4.834 -0.9957  1.2400  0.8130
   20MOL   H158 6276   5.803   4.721   4.998  1.1199 -0.4795 -0.8642
   20MOL   H159 6277   6.001   4.848   4.933 -1.2648  0.8446  0.7902
   20MOL   H160 6278   6.233   4.929   4.784 -1.4822  2.4307  0.5919
   20MOL   H161 6279   6.231   4.991   4.617  0.5750  0.2501 -1.1511
   20MOL   C162 6280   6.179   4.780   4.657 -0.0818  0.6443 -0.1944
   20MOL   C163 6281   6.325   4.729   4.672  0.7510 -0.5983 -0.4832
   20MOL   C164 6282   6.368   4.681   4.798  0.8954  0.3047 -0.6270
   20MOL  Cl165 6283   6.257   4.673   4.935 -0.2299  0.3478 -0.2172
   20MOL   C166 6284   6.503   4.646   4.815 -0.7727  0.2245  0.0920
   20MOL   C167 6285   6.595   4.650   4.705 -0.4917  0.2125 -0.1388
   20MOL   C168 6286   6.550   4.690   4.579  0.1735  0.5656  0.4364
   20MOL   C169 6287   6.413   4.725   4.564  0.0958 -0.0017  0.0155
   20MOL   C170 6288   6.111   4.749   4.522  0.2318  0.6011  0.3937
   20MOL   H171 6289   6.121   4.728   4.733  0.2950 -0.4118 -0.6204
   20MOL   H172 6290   6.536   4.611   4.912  1.1219  0.3456 -0.4880
   20MOL   H173 6291   6.699   4.633   4.728 -0.4167  1.9495  0.9420
   20MOL   H174 6292   6.608   4.703   4.489 -2.9065  0.4717 -1.6419
   20MOL   H175 6293   6.365   4.755   4.472  0.2990 -0.9114 -0.3830
   20MOL   H176 6294   6.167   4.800   4.443 -0.4036 -1.4542 -1.4441
   20MOL   H177 6295   6.007   4.782   4.518  0.5683  2.1697  3.1683
   20MOL   C178 6296   6.105   4.600   4.479  0.4596  0.1350  0.1884
   20MOL   C179 6297   6.073   4.572   4.328  0.2483  0.7862 -1.0852
   20MOL   C180 6298   6.171   4.535   4.234  0.2615 -0.0935 -0.0020
   20MOL  Cl181 6299   6.337   4.516   4.275  0.1565 -0.2650 -0.4996
   20MOL   C182 6300   6.143   4.522   4.100 -0.0707 -0.4485 -0.1793
   20MOL   C183 6301   6.011   4.542   4.057 -0.2489  0.4532  0.0147
   20MOL   C184 6302   5.913   4.576   4.151  0.8555  0.5402  0.2349
   20MOL   C185 6303   5.939   4.578   4.288  0.1284 -1.1159 -0.3360
   20MOL   C186 6304   6.009   4.524   4.577 -0.4120 -0.2913 -0.4188
   20MOL   H187 6305   6.203   4.563   4.508  0.4122 -0.6603 -0.6586
   20MOL   H188 6306   6.224   4.486   4.039  1.7843  2.1349  0.6522
   20MOL   H189 6307   5.987   4.530   3.953  2.2047  0.2336 -0.5626
   20MOL   H190 6308   5.815   4.604   4.115  1.1973  1.7273  0.1773
   20MOL   H191 6309   5.856   4.621   4.342  1.1445 -0.4670  0.7331
   20MOL   H192 6310   5.904   4.528   4.548 -0.4782  0.6283 -0.0782
   20MOL   H193 6311   5.999   4.576   4.673  1.2042  1.4914 -1.1741
   20MOL   C194 6312   6.043   4.381   4.609  0.2132 -0.0079 -0.2617
   20MOL   C195 6313   5.920   4.304   4.647 -0.2862  0.3615  0.2172
   20MOL   C196 6314   5.895   4.173   4.591 -0.6107  0.7393  0.5680
   20MOL  Cl197 6315   5.997   4.103   4.465 -0.1991 -0.3830 -0.1171
   20MOL   C198 6316   5.776   4.100   4.623  0.0361 -0.3556 -0.2390
   20MOL   C199 6317   5.691   4.159   4.724 -0.4329 -0.4309 -0.4281
   20MOL   C200 6318   5.718   4.286   4.777 -0.3584 -0.7610  0.3596
   20MOL   C201 6319   5.830   4.364   4.741  0.0913 -0.5418 -0.0477
   20MOL   C202 6320   6.159   4.361   4.708 -0.5134 -0.3129 -0.2026
   20MOL   H203 6321   6.079   4.338   4.515 -1.0868 -2.9107  0.5150
   20MOL   H204 6322   5.748   4.000   4.593  2.7640 -1.7899  1.7169
   20MOL   H205 6323   5.599   4.114   4.759  0.7328 -1.7414  1.0591
   20MOL   H206 6324   5.648   4.323   4.850 -0.1112  2.4148 -0.9178
   20MOL   H207 6325   5.843   4.462   4.786 -1.0527 -1.1915  1.7093
   20MOL   H208 6326   6.106   4.380   4.801 -1.4577 -0.1685 -0.7638
   20MOL   H209 6327   6.241   4.434   4.704 -2.0239  1.7175  3.4177
   20MOL   C210 6328   6.229   4.229   4.709  0.4466 -0.1764  0.5075
   20MOL   C211 6329   6.293   4.205   4.848 -0.4002 -0.1728  0.3356
   20MOL   C212 6330   6.264   4.086   4.926  0.4766 -0.2077  0.4311
   20MOL  Cl213 6331   6.138   3.973   4.886 -0.1397 -0.4398 -0.4297
   20MOL   C214 6332   6.339   4.053   5.042 -0.4498 -0.1164 -0.1091
   20MOL   C215 6333   6.435   4.141   5.093  0.3801 -0.2371  0.1781
   20MOL   C216 6334   6.461   4.258   5.018 -0.3521 -0.7537  0.2288
   20MOL   C217 6335   6.393   4.290   4.898  0.2600 -0.5248 -0.4174
   20MOL   C218 6336   6.330   4.214   4.593 -0.7216  0.5539  0.2071
   20MOL   H219 6337   6.157   4.149   4.691  2.2701 -1.7324 -0.1128
   20MOL   H220 6338   6.318   3.965   5.101  0.7548 -0.2679  0.0997
   20MOL   H221 6339   6.498   4.108   5.174  1.5711  1.0381 -0.2052
   20MOL   H222 6340   6.544   4.317   5.054 -1.2326  0.8528 -0.3134
   20MOL   H223 6341   6.424   4.382   4.850 -0.5467 -1.4960 -2.8271
   20MOL   H224 6342   6.379   4.311   4.591  0.3765 -0.0022 -1.9239
   20MOL   H225 6343   6.269   4.206   4.503  0.3127  0.5607 -0.5135
   20MOL   C226 6344   6.434   4.103   4.603  0.3130 -0.2132 -0.0401
   20MOL   C227 6345   6.564   4.126   4.527  0.6740  0.2343  0.4246
   20MOL   C228 6346   6.684   4.176   4.591  0.0922 -0.3453 -1.0789
   20MOL  Cl229 6347   6.680   4.225   4.757 -0.1241  0.3986 -0.0705
   20MOL   C230 6348   6.802   4.193   4.520  0.0146 -0.1734  0.3428
   20MOL   C231 6349   6.803   4.169   4.380  0.0427  0.0964  0.5642
   20MOL   C232 6350   6.691   4.114   4.315  0.4445 -0.1597 -0.6237
   20MOL   C233 6351   6.573   4.094   4.390 -0.1358  0.2110 -0.6225
   20MOL   C234 6352   6.369   3.957   4.595  0.4862  0.2717  0.5173
   20MOL   H235 6353   6.469   4.094   4.706  1.4584  1.5766 -0.2574
   20MOL   H236 6354   6.884   4.235   4.576  0.6031  0.7418 -1.1580
   20MOL   H237 6355   6.892   4.191   4.324 -0.6770 -0.9649 -1.0200
   20MOL   H238 6356   6.683   4.089   4.210 -1.6138 -3.5140  0.2608
   20MOL   H239 6357   6.487   4.053   4.338 -1.1313 -0.2741  1.3716
   20MOL   H240 6358   6.313   3.951   4.502  0.6651  1.0687  0.3550
   20MOL   H241 6359   6.279   3.941   4.655 -0.6490  2.6521 -0.4839
   20MOL   C242 6360   6.468   3.837   4.619  0.1717 -0.0967  0.7774
   20MOL   C243 6361   6.408   3.705   4.572 -0.1538 -0.1030  0.0234
   20MOL   C244 6362   6.468   3.616   4.474  1.0693  0.0230 -0.3887
   20MOL  Cl245 6363   6.620   3.637   4.400  0.0187  0.2607  0.3047
   20MOL   C246 6364   6.408   3.499   4.440  0.4609 -0.3395  0.1149
   20MOL   C247 6365   6.285   3.458   4.504 -0.2285  0.2985  0.4075
   20MOL   C248 6366   6.229   3.543   4.600  0.1397  0.5127  0.1203
   20MOL   C249 6367   6.290   3.663   4.632 -0.4948  0.6410 -0.7561
   20MOL   C250 6368   6.503   3.842   4.779  0.2858 -0.5301  0.9340
   20MOL   H251 6369   6.559   3.850   4.562  0.2691  0.2526  1.0103
   20MOL   H252 6370   6.453   3.432   4.369  0.6100 -0.8040  0.6461
   20MOL   H253 6371   6.237   3.368   4.469  0.6139 -1.0351  2.5695
   20MOL   H254 6372   6.129   3.522   4.634  0.0310  2.2554  0.9209
   20MOL   H255 6373   6.240   3.730   4.701  0.7495 -0.1178  0.9145
   20MOL   H256 6374   6.402   3.841   4.820 -0.9019  0.7931 -1.8099
   20MOL   H257 6375   6.554   3.934   4.808 -1.7025  1.0369 -0.3628
   20MOL   C258 6376   6.567   3.718   4.832  0.6119  0.0308 -0.3574
   20MOL   C259 6377   6.567   3.718   4.987 -0.7247 -0.3236 -0.2041
   20MOL   C260 6378   6.524   3.606   5.064  0.6923 -0.1392 -0.0608
   20MOL  Cl261 6379   6.465   3.467   4.992  0.4357  0.3808 -0.3590
   20MOL   C262 6380   6.519   3.615   5.208  0.2516  0.4473 -0.8841
   20MOL   C263 6381   6.575   3.732   5.266  0.0720 -0.0061 -0.1011
   20MOL   C264 6382   6.620   3.840   5.191 -0.4421 -0.4781 -0.4498
   20MOL   C265 6383   6.615   3.834   5.047 -0.4023 -0.4847  0.6954
   20MOL   C266 6384   6.706   3.695   4.775  0.1302  0.3479 -0.3023
   20MOL   H267 6385   6.497   3.639   4.806  0.8803 -0.7662  1.2825
   20MOL   H268 6386   6.483   3.532   5.268 -1.1010 -0.4366 -2.8716
   20MOL   H269 6387   6.570   3.730   5.374  1.6493 -2.1315 -0.0467
   20MOL   H270 6388   6.659   3.929   5.237  1.4529 -1.6110  0.1923
   20MOL   H271 6389   6.657   3.916   4.991  1.8538 -2.0609  0.0138
   20MOL   H272 6390   6.770   3.764   4.830  0.2632  0.7325 -0.9295
   20MOL   H273 6391   6.718   3.727   4.671 -0.7750 -0.6550 -0.7269
   20MOL   C274 6392   6.760   3.549   4.803 -0.4930  0.1695 -0.2870
   20MOL   C275 6393   6.908   3.540   4.806  0.3161  0.1569 -0.2436
   20MOL   C276 6394   6.973   3.491   4.926 -0.0636 -0.2866 -0.6860
   20MOL  Cl277 6395   6.894   3.475   5.077 -0.3680  0.4300 -0.1769
   20MOL   C278 6396   7.111   3.477   4.917  0.3189  0.0143  0.2295
   20MOL   C279 6397   7.188   3.508   4.801  0.1196  0.3777  0.2627
   20MOL   C280 6398   7.127   3.564   4.689  0.2528  0.8437 -1.1120
   20MOL   C281 6399   6.984   3.571   4.689 -0.2842 -0.1270  0.4570
   20MOL   C282 6400   6.695   3.453   4.700  0.2845  0.8193 -0.0433
   20MOL   H283 6401   6.718   3.528   4.901  0.3541 -0.4086 -0.0466
   20MOL   H284 6402   7.166   3.444   5.004  0.1119 -1.4887 -0.2051
   20MOL   H285 6403   7.296   3.509   4.810  0.1109 -1.0797  0.8065
   20MOL   H286 6404   7.190   3.575   4.602  0.8556 -2.5005 -1.1904
   20MOL   H287 6405   6.928   3.603   4.602 -0.5922 -0.4835  0.5254
   20MOL   H288 6406   6.742   3.467   4.602  0.5344  2.2173  0.2682
   20MOL   H289 6407   6.592   3.483   4.678 -0.4269 -1.8513 -0.4918
   20MOL   C290 6408   6.664   3.304   4.733 -1.1682  0.4439 -0.4704
   20MOL   C291 6409   6.790   3.229   4.786  0.5825 -0.2914  0.6432
   20MOL   C292 6410   6.802   3.187   4.924  0.7966 -0.2150  0.2960
   20MOL  Cl293 6411   6.680   3.201   5.042  0.0533 -0.2472 -0.0347
   20MOL   C294 6412   6.921   3.128   4.967  0.2320  0.5116  0.2107
   20MOL   C295 6413   7.026   3.111   4.878  0.5427  0.1148  0.7183
   20MOL   C296 6414   7.015   3.144   4.744  0.2557  0.3375 -0.1988
   20MOL   C297 6415   6.898   3.209   4.705 -0.5353 -0.2644  0.1756
   20MOL   C298 6416   6.590   3.228   4.616 -0.3153  0.2849  0.2938
   20MOL   H299 6417   6.594   3.309   4.817  0.2432  1.9371  0.6612
   20MOL   H300 6418   6.931   3.098   5.071  1.3391  0.3043  0.0486
   20MOL   H301 6419   7.119   3.066   4.907  0.4488 -2.0391 -2.0974
   20MOL   H302 6420   7.101   3.126   4.682  0.0184 -1.3652 -0.0799
   20MOL   H303 6421   6.893   3.247   4.604  0.1635 -0.6570 -0.0109
   20MOL   H304 6422   6.658   3.219   4.531  2.0551  0.1577  2.1417
   20MOL   H305 6423   6.512   3.301   4.595  0.6192  1.9350  2.3823
   20MOL   C306 6424   6.516   3.099   4.667  0.0193  0.1056 -0.2359
   20MOL   C307 6425   6.618   2.986   4.702 -0.2930  0.1698 -0.2346
   20MOL   C308 6426   6.711   2.925   4.613 -0.3600 -0.7916  0.2035
   20MOL  Cl309 6427   6.733   2.973   4.451 -0.5107 -0.3461  0.1823
   20MOL   C310 6428   6.808   2.835   4.656 -0.1586  0.4131 -0.6346
   20MOL   C311 6429   6.805   2.799   4.795  0.4959 -0.4073  0.1983
   20MOL   C312 6430   6.705   2.848   4.881 -0.1998  0.0096  0.2839
   20MOL   C313 6431   6.615   2.943   4.834 -0.1498 -0.2861  0.2044
   20MOL   C314 6432   6.407   3.055   4.576 -0.0855 -0.5048 -0.3475
   20MOL   H315 6433   6.476   3.129   4.764  1.2803 -0.9807  0.6571
   20MOL   H316 6434   6.875   2.776   4.596  0.8623 -1.5340  2.3343
   20MOL   H317 6435   6.879   2.727   4.826  0.0941 -0.1334  1.8356
   20MOL   H318 6436   6.701   2.804   4.980  1.2216  0.0636  0.3743
   20MOL   H319 6437   6.546   2.984   4.907  0.9329 -0.8282  1.5569
   20MOL   H320 6438   6.448   3.028   4.479 -0.2796 -0.3373 -0.4766
   20MOL   H321 6439   6.337   3.137   4.556 -1.7405 -1.8680 -0.2625
   20MOL   H322 6440   6.351   2.975   4.625  0.2978  0.8508  2.4298
   21MOL     C1 6441   2.874   0.897   7.216  0.0608  0.2041  0.2064
   21MOL     C2 6442   2.767   0.802   7.273 -0.3789  0.4937 -0.5765
   21MOL     C3 6443   2.641   0.795   7.211  0.0255  0.3767  0.3869
   21MOL    Cl4 6444   2.591   0.900   7.082  0.2412  0.1561  0.2500
   21MOL     C5 6445   2.555   0.691   7.251 -0.6636 -0.4633  0.0994
   21MOL     C6 6446   2.590   0.609   7.366 -0.3359 -0.4721  0.3890
   21MOL     C7 6447   2.708   0.619   7.433 -0.1044 -0.3038  0.2137
   21MOL     C8 6448   2.802   0.724   7.389  0.4058  0.5718  0.1060
   21MOL     C9 6449   2.977   0.818   7.133 -0.4176 -0.5503 -0.3298
   21MOL    H10 6450   2.829   0.968   7.146  1.4514 -0.1639 -1.1125
   21MOL    H11 6451   2.455   0.688   7.209 -0.9029 -0.8966  0.6921
   21MOL    H12 6452   2.523   0.528   7.393 -3.1383  1.7497  0.3948
   21MOL    H13 6453   2.711   0.561   7.525  0.9942 -1.4903 -0.5464
   21MOL    H14 6454   2.893   0.737   7.445  0.9133  0.3920 -0.6669
   21MOL    H15 6455   2.930   0.737   7.077  1.2707 -0.2139 -2.2870
   21MOL    H16 6456   3.037   0.767   7.209  1.3097 -0.3767 -1.5435
   21MOL    H17 6457   2.918   0.956   7.297  2.5146 -1.7160  0.3268
   21MOL    C18 6458   3.072   0.911   7.048 -1.1517 -0.1146 -1.0969
   21MOL    C19 6459   2.990   0.975   6.935  0.0188 -0.8371 -0.1772
   21MOL    C20 6460   2.969   1.120   6.936 -0.5263 -0.1608  0.0239
   21MOL   Cl21 6461   3.052   1.230   7.041  0.2519 -0.0744  0.0920
   21MOL    C22 6462   2.882   1.169   6.837  0.0359 -0.6917  0.0429
   21MOL    C23 6463   2.835   1.088   6.732  0.0534  0.3208 -0.6739
   21MOL    C24 6464   2.857   0.948   6.737 -0.1637  0.1689  0.5285
   21MOL    C25 6465   2.930   0.888   6.840 -0.6927 -0.5618  0.2281
   21MOL    C26 6466   3.206   0.841   6.997 -0.6959  1.1788 -0.9435
   21MOL    H27 6467   3.104   0.994   7.112 -0.7345 -0.4399 -0.8858
   21MOL    H28 6468   2.876   1.277   6.839  1.2710 -0.6425  2.9429
   21MOL    H29 6469   2.776   1.126   6.650 -0.9518 -0.7442 -0.4587
   21MOL    H30 6470   2.824   0.873   6.666 -0.7841  0.4487  0.5183
   21MOL    H31 6471   2.927   0.780   6.845 -0.1216 -0.5386  1.3386
   21MOL    H32 6472   3.236   0.880   6.900  3.9915 -0.5279 -0.3072
   21MOL    H33 6473   3.179   0.738   6.975  1.6726  0.2832  0.1721
   21MOL    C34 6474   3.323   0.821   7.105 -0.0080 -0.7692 -0.1830
   21MOL    C35 6475   3.395   0.953   7.137  0.2226 -0.6328 -0.2039
   21MOL    C36 6476   3.472   0.965   7.254  0.2164  0.0018 -0.4767
   21MOL   Cl37 6477   3.481   0.833   7.365  0.2763 -0.0341 -0.0531
   21MOL    C38 6478   3.549   1.084   7.279 -0.0271  0.0141  0.2911
   21MOL    C39 6479   3.537   1.188   7.193 -0.2892 -0.3381  0.7086
   21MOL    C40 6480   3.446   1.192   7.087  0.3960 -0.6167 -0.3919
   21MOL    C41 6481   3.377   1.070   7.051  0.1668 -0.3702  0.5279
   21MOL    C42 6482   3.430   0.722   7.055  0.3058 -0.2836  0.1027
   21MOL    H43 6483   3.273   0.787   7.196 -0.4344 -0.4176 -0.2869
   21MOL    H44 6484   3.609   1.085   7.368  0.6597  0.8203 -0.1822
   21MOL    H45 6485   3.591   1.279   7.218  1.4500 -0.7410 -1.4788
   21MOL    H46 6486   3.426   1.280   7.026  0.7003  0.9735  1.7540
   21MOL    H47 6487   3.313   1.070   6.965 -1.0873  3.1068  1.3909
   21MOL    H48 6488   3.513   0.728   7.124 -0.6776 -1.1239  1.3805
   21MOL    H49 6489   3.474   0.747   6.958 -2.7968  0.1427 -1.2612
   21MOL    C50 6490   3.385   0.574   7.056 -0.1842  1.2390 -0.1838
   21MOL    C51 6491   3.304   0.532   7.176  0.2673 -0.5177 -0.0767
   21MOL    C52 6492   3.169   0.498   7.170  0.1158  0.0419  0.2363
   21MOL   Cl53 6493   3.087   0.499   7.022  0.0474  0.1537 -0.3518
   21MOL    C54 6494   3.113   0.444   7.289 -0.3694  0.2657  0.1268
   21MOL    C55 6495   3.182   0.431   7.408  0.5359 -0.5276  0.1052
   21MOL    C56 6496   3.314   0.478   7.414  0.1849 -0.4089  0.4291
   21MOL    C57 6497   3.376   0.526   7.295 -0.2918  0.5668 -0.0485
   21MOL    C58 6498   3.505   0.472   7.021 -0.1663 -0.4112  0.5523
   21MOL    H59 6499   3.324   0.566   6.966  1.4024  2.3038 -1.3850
   21MOL    H60 6500   3.010   0.411   7.289 -0.2593 -0.1282 -1.1186
   21MOL    H61 6501   3.134   0.383   7.493  3.1913  1.9094  3.1225
   21MOL    H62 6502   3.367   0.474   7.508  0.6921  1.0006  0.2127
   21MOL    H63 6503   3.479   0.557   7.299 -0.0681  0.0589 -1.7127
   21MOL    H64 6504   3.586   0.507   7.086 -0.0755  0.2347  0.0980
   21MOL    H65 6505   3.544   0.495   6.922  1.6492 -0.2581  1.2900
   21MOL    C66 6506   3.480   0.323   7.043 -0.3778  0.5422  0.7482
   21MOL    C67 6507   3.611   0.240   7.038 -0.6697 -0.0113 -0.6643
   21MOL    C68 6508   3.693   0.233   7.154 -0.1929  0.9473  0.7910
   21MOL   Cl69 6509   3.669   0.350   7.281  0.0360 -0.0407  0.0574
   21MOL    C70 6510   3.807   0.147   7.147 -0.2216  0.1852  0.5153
   21MOL    C71 6511   3.832   0.074   7.029 -0.1844  0.4169  0.1008
   21MOL    C72 6512   3.751   0.088   6.916  0.7646  0.6999 -0.2326
   21MOL    C73 6513   3.638   0.172   6.921 -0.6577  0.4529 -0.1204
   21MOL    C74 6514   3.364   0.272   6.956 -0.7067 -0.3468  0.0061
   21MOL    H75 6515   3.448   0.316   7.147 -0.3350  0.3613  0.7499
   21MOL    H76 6516   3.868   0.140   7.236  2.3309  2.1461 -0.9913
   21MOL    H77 6517   3.919   0.010   7.021  0.3844  1.2658 -0.5716
   21MOL    H78 6518   3.771   0.033   6.825 -4.0066  0.8660 -1.5254
   21MOL    H79 6519   3.578   0.192   6.834 -1.4683  0.3095  0.4037
   21MOL    H80 6520   3.399   0.280   6.853  1.1824 -2.0398  0.4793
   21MOL    H81 6521   3.282   0.344   6.949 -1.0415 -0.8001 -0.8341
   21MOL    C82 6522   3.318   0.134   6.996 -0.0267  0.8803  0.3015
   21MOL    C83 6523   3.191   0.109   6.914  0.1367  0.7741  0.0635
   21MOL    C84 6524   3.194   0.033   6.794  0.3481 -0.2432 -0.4141
   21MOL   Cl85 6525   3.338   8.375   6.743 -0.1913  0.0295  0.1048
   21MOL    C86 6526   3.075   0.025   6.718 -0.2737 -0.1548 -0.2556
   21MOL    C87 6527   2.958   0.088   6.758 -0.7015  0.0298 -0.0968
   21MOL    C88 6528   2.955   0.163   6.878  0.1140 -0.3469 -0.1036
   21MOL    C89 6529   3.071   0.173   6.957  0.7222 -0.1254  1.0300
   21MOL    C90 6530   3.295   0.118   7.148 -0.2960 -0.3252  0.0125
   21MOL    H91 6531   3.397   0.065   6.965 -0.1954  0.9789 -0.3662
   21MOL    H92 6532   3.080   8.381   6.631 -4.0977  1.3609 -1.7278
   21MOL    H93 6533   2.865   0.083   6.702  0.2017  3.0899 -1.9787
   21MOL    H94 6534   2.864   0.216   6.902 -0.4461 -0.8066 -1.1519
   21MOL    H95 6535   3.064   0.240   7.041 -0.1695 -0.0691  0.9120
   21MOL    H96 6536   3.246   0.198   7.204 -1.6177 -1.1969  0.1335
   21MOL    H97 6537   3.395   0.117   7.190 -0.1737  2.6400 -0.1587
   21MOL    C98 6538   3.238   8.403   7.197  0.3700  0.1214 -0.6162
   21MOL    C99 6539   3.213   8.402   7.351  0.6251 -0.7660 -0.1929
   21MOL   C100 6540   3.101   0.049   7.408  0.7393  0.4591 -0.3392
   21MOL  Cl101 6541   2.984   0.123   7.306 -0.0536 -0.0803 -0.0823
   21MOL   C102 6542   3.077   0.046   7.547 -0.0015 -0.7238 -0.4692
   21MOL   C103 6543   3.158   8.389   7.634 -0.1433 -0.6221  0.3092
   21MOL   C104 6544   3.279   8.330   7.583  0.3711  0.1984 -0.2068
   21MOL   C105 6545   3.304   8.340   7.444  0.1477  0.4652  0.5108
   21MOL   C106 6546   3.320   8.285   7.148 -0.4362 -0.4279  0.0705
   21MOL   H107 6547   3.141   8.391   7.149  0.0849 -0.5315  0.1113
   21MOL   H108 6548   2.994   0.097   7.593  1.4477  0.6007  0.7285
   21MOL   H109 6549   3.136   8.376   7.738 -1.2202  0.1709  0.1833
   21MOL   H110 6550   3.338   8.264   7.644 -0.6931 -1.1631 -0.6308
   21MOL   H111 6551   3.398   8.294   7.417  0.1171  0.2676  0.7416
   21MOL   H112 6552   3.426   8.295   7.173  0.0734  0.5271 -2.3079
   21MOL   H113 6553   3.313   8.292   7.040 -1.5527  0.4929  0.1995
   21MOL   C114 6554   3.284   8.139   7.194 -0.3094  0.5973  0.8197
   21MOL   C115 6555   3.393   8.041   7.137 -1.4705  0.0492 -0.5870
   21MOL   C116 6556   3.455   7.948   7.226  0.0267  0.7768  0.1153
   21MOL  Cl117 6557   3.442   7.968   7.398 -0.1396  0.0106  0.2004
   21MOL   C118 6558   3.528   7.841   7.172  0.2984  0.2261 -0.5917
   21MOL   C119 6559   3.557   7.836   7.035  0.1198 -0.1533  0.3518
   21MOL   C120 6560   3.494   7.928   6.948 -0.3767  0.1540 -0.0023
   21MOL   C121 6561   3.416   8.032   7.000 -0.2070  0.0030  0.3888
   21MOL   C122 6562   3.153   8.096   7.136 -0.2596 -0.9575  0.9777
   21MOL   H123 6563   3.274   8.129   7.302  0.6508 -0.9044  0.7857
   21MOL   H124 6564   3.585   7.772   7.233 -1.2417 -1.2101 -0.7539
   21MOL   H125 6565   3.602   7.746   6.996  2.7621  1.5736 -0.7548
   21MOL   H126 6566   3.484   7.905   6.843 -0.5492  0.7787 -0.1223
   21MOL   H127 6567   3.356   8.085   6.928  3.3991 -1.2004 -3.7916
   21MOL   H128 6568   3.155   8.078   7.028  1.7384  0.2397  0.7805
   21MOL   H129 6569   3.085   8.182   7.137  0.1505 -0.6180  0.3081
   21MOL   C130 6570   3.068   7.990   7.214  0.0543  0.5137 -0.1970
   21MOL   C131 6571   3.127   7.855   7.216 -0.2300  1.1094  0.1098
   21MOL   C132 6572   3.150   7.784   7.344  0.6342  0.0678  0.9713
   21MOL  Cl133 6573   3.124   7.857   7.500 -0.2982  0.0765 -0.6196
   21MOL   C134 6574   3.216   7.660   7.347  0.0069  0.0841 -0.1707
   21MOL   C135 6575   3.251   7.599   7.224 -0.6363 -0.2518 -0.3138
   21MOL   C136 6576   3.235   7.662   7.101 -0.2323  0.1868 -1.1491
   21MOL   C137 6577   3.175   7.790   7.099 -0.4701  0.2197  0.1950
   21MOL   C138 6578   2.921   7.983   7.158 -0.6843  0.0046 -0.2975
   21MOL   H139 6579   3.061   8.032   7.315  0.8640 -1.4482  0.6882
   21MOL   H140 6580   3.230   7.610   7.442  0.8880  1.2898  0.3372
   21MOL   H141 6581   3.294   7.500   7.224  0.6815  0.3079 -1.8092
   21MOL   H142 6582   3.272   7.607   7.015  1.4747  2.0867 -1.6721
   21MOL   H143 6583   3.171   7.853   7.011  1.3834  0.7849  0.4900
   21MOL   H144 6584   2.918   7.956   7.053  0.4619 -2.8213  0.3720
   21MOL   H145 6585   2.870   8.079   7.170 -2.0680 -0.7172 -0.3459
   21MOL   C146 6586   2.831   7.880   7.232 -0.1364  0.0732 -0.6196
   21MOL   C147 6587   2.840   7.741   7.172  0.3234  0.3423  0.1719
   21MOL   C148 6588   2.854   7.623   7.250 -0.6951  0.1963  0.4462
   21MOL  Cl149 6589   2.852   7.626   7.423  0.3510  0.0390 -0.2196
   21MOL   C150 6590   2.843   7.497   7.194  0.0429 -0.0622 -0.1898
   21MOL   C151 6591   2.828   7.476   7.057 -0.3186 -0.3214  0.2390
   21MOL   C152 6592   2.821   7.590   6.975 -0.0372  0.3016  0.4412
   21MOL   C153 6593   2.832   7.721   7.031 -0.4099  0.6085  0.2180
   21MOL   C154 6594   2.680   7.920   7.235 -0.2714 -0.1903  0.5688
   21MOL   H155 6595   2.853   7.882   7.338  2.3471  0.7811 -1.1003
   21MOL   H156 6596   2.855   7.408   7.255  3.8781  0.6083  0.1709
   21MOL   H157 6597   2.833   7.374   7.022  0.6014  0.4731 -2.0816
   21MOL   H158 6598   2.815   7.572   6.869  0.3936  2.0452  0.1169
   21MOL   H159 6599   2.800   7.806   6.972  2.3957  0.5539 -1.4954
   21MOL   H160 6600   2.615   7.833   7.247 -0.4144 -0.2893 -0.7926
   21MOL   H161 6601   2.643   7.952   7.137  1.2373  1.2268  0.4412
   21MOL   C162 6602   2.637   8.026   7.339 -0.4248 -0.2969  0.0612
   21MOL   C163 6603   2.688   7.999   7.481 -0.4904 -0.3951  0.7289
   21MOL   C164 6604   2.793   8.084   7.536 -0.6414  0.5290  0.1718
   21MOL  Cl165 6605   2.876   8.192   7.436 -0.0239  0.2232 -0.0741
   21MOL   C166 6606   2.840   8.070   7.671  0.4264  0.1726  0.7390
   21MOL   C167 6607   2.775   7.970   7.750 -0.1426 -0.0403  0.3485
   21MOL   C168 6608   2.681   7.882   7.693  0.7147  0.8528 -0.7306
   21MOL   C169 6609   2.638   7.897   7.560 -0.4978 -0.2537 -0.2463
   21MOL   C170 6610   2.484   8.053   7.341  0.1653 -0.3133  0.1253
   21MOL   H171 6611   2.669   8.124   7.304  0.1729 -0.6445 -0.3701
   21MOL   H172 6612   2.920   8.123   7.721  0.0443 -0.1844  1.7245
   21MOL   H173 6613   2.807   7.961   7.852  1.0667  1.2853  0.1040
   21MOL   H174 6614   2.625   7.810   7.750  1.2823 -1.7045 -3.3306
   21MOL   H175 6615   2.567   7.822   7.528 -1.0829 -0.8923  2.4223
   21MOL   H176 6616   2.440   7.960   7.377  1.5843 -0.4245  1.6180
   21MOL   H177 6617   2.459   8.062   7.235 -1.0037  2.2625  0.5769
   21MOL   C178 6618   2.438   8.173   7.428  0.5507  0.1538 -0.9483
   21MOL   C179 6619   2.284   8.168   7.442  0.4197  0.3829  0.2112
   21MOL   C180 6620   2.225   8.126   7.566 -0.0338 -0.2579 -0.3126
   21MOL  Cl181 6621   2.317   8.107   7.705 -0.0722  0.0701  0.1556
   21MOL   C182 6622   2.087   8.097   7.578  0.2202  0.1175  0.4984
   21MOL   C183 6623   2.006   8.111   7.462  0.2423  0.2874 -0.2723
   21MOL   C184 6624   2.061   8.154   7.341  0.4787 -0.5313  0.5826
   21MOL   C185 6625   2.198   8.177   7.330 -0.0433  0.0395  0.1776
   21MOL   C186 6626   2.486   8.304   7.369 -0.5724 -0.6198  0.1325
   21MOL   H187 6627   2.488   8.172   7.525 -1.9919  1.3871  0.4264
   21MOL   H188 6628   2.043   8.063   7.671  0.6962  0.0394  0.6964
   21MOL   H189 6629   1.901   8.086   7.468 -0.0731  1.6173 -0.2801
   21MOL   H190 6630   1.992   8.180   7.262  1.8010  0.3492 -0.2931
   21MOL   H191 6631   2.228   8.209   7.231  0.5931 -0.6076  0.1623
   21MOL   H192 6632   2.433   8.321   7.275 -0.9621 -1.8344  0.1234
   21MOL   H193 6633   2.592   8.300   7.344 -0.7713  0.2956 -0.8570
   21MOL   C194 6634   2.466   0.013   7.454 -0.1906  0.1951 -0.0292
   21MOL   C195 6635   2.492   0.133   7.371  0.3903 -0.3524  0.3279
   21MOL   C196 6636   2.381   0.196   7.304  0.4099  0.2596  0.0411
   21MOL  Cl197 6637   2.217   0.142   7.331 -0.1926 -0.2277 -0.1743
   21MOL   C198 6638   2.410   0.304   7.218 -0.3706 -0.0043 -0.4354
   21MOL   C199 6639   2.541   0.344   7.184  0.1246  0.1088 -0.2749
   21MOL   C200 6640   2.647   0.268   7.237  0.8450  0.5785  0.6344
   21MOL   C201 6641   2.623   0.172   7.341  0.0408 -0.9466 -0.0666
   21MOL   C202 6642   2.552   0.019   7.591 -1.3320  0.2346 -0.4694
   21MOL   H203 6643   2.364   0.021   7.491  0.6183  0.5866  2.1782
   21MOL   H204 6644   2.319   0.351   7.184 -0.6633  0.1724  0.5728
   21MOL   H205 6645   2.567   0.417   7.109 -0.9339  0.4574 -0.2996
   21MOL   H206 6646   2.748   0.295   7.211  0.9580 -1.0888 -0.7135
   21MOL   H207 6647   2.710   0.136   7.395  0.0410  0.4902  0.9278
   21MOL   H208 6648   2.655   8.415   7.565 -1.4184 -1.7857  0.9567
   21MOL   H209 6649   2.526   8.349   7.645  2.3802 -0.8099 -0.3072
   21MOL   C210 6650   2.538   0.147   7.681  0.2503 -0.2079 -0.1623
   21MOL   C211 6651   2.657   0.156   7.776 -0.5074  0.1581 -0.1985
   21MOL   C212 6652   2.771   0.240   7.751  0.3681 -0.1696  0.1508
   21MOL  Cl213 6653   2.781   0.328   7.607 -0.1530 -0.1625 -0.3385
   21MOL   C214 6654   2.870   0.244   7.852  0.5904 -0.5628  0.0078
   21MOL   C215 6655   2.863   0.185   7.978 -0.6826 -0.0060  0.2111
   21MOL   C216 6656   2.748   0.114   8.004  0.0639  0.7101 -0.1883
   21MOL   C217 6657   2.651   0.088   7.900  0.0772 -0.6936  0.3615
   21MOL   C218 6658   2.402   0.175   7.744  0.8440 -0.2586  0.6414
   21MOL   H219 6659   2.547   0.224   7.604 -0.8351 -0.3367 -0.4186
   21MOL   H220 6660   2.950   0.313   7.829  0.2796  0.0727  0.8342
   21MOL   H221 6661   2.937   0.190   8.057 -1.5469 -3.5611  1.3520
   21MOL   H222 6662   2.733   0.055   8.093 -0.0872 -0.4723 -0.9972
   21MOL   H223 6663   2.570   0.020   7.924  0.4263 -0.8779  1.0260
   21MOL   H224 6664   2.359   0.087   7.793 -0.8638 -0.0482 -0.4326
   21MOL   H225 6665   2.337   0.187   7.658 -1.1779  0.0226  2.1654
   21MOL   C226 6666   2.378   0.296   7.833 -0.5255  0.8963 -0.2237
   21MOL   C227 6667   2.241   0.287   7.902  0.0098 -0.4684 -0.1766
   21MOL   C228 6668   2.215   0.252   8.034 -0.3931 -0.3817  0.4049
   21MOL  Cl229 6669   2.341   0.213   8.145 -0.1185 -0.1355 -0.0892
   21MOL   C230 6670   2.082   0.264   8.089 -0.2694 -0.2286  0.0873
   21MOL   C231 6671   1.970   0.281   8.006 -0.6192 -0.1960  0.3027
   21MOL   C232 6672   1.997   0.292   7.867  0.0657 -0.3597  0.6192
   21MOL   C233 6673   2.124   0.299   7.818  0.1289 -0.9876  0.4057
   21MOL   C234 6674   2.393   0.427   7.748 -0.4997  0.1165  0.7856
   21MOL   H235 6675   2.455   0.285   7.909  0.5332  1.3090 -1.2103
   21MOL   H236 6676   2.073   0.238   8.194  2.5717  0.0035  0.4272
   21MOL   H237 6677   1.872   0.269   8.049 -0.7255  0.5160  0.2603
   21MOL   H238 6678   1.912   0.284   7.802 -0.3212  1.7956  0.8416
   21MOL   H239 6679   2.125   0.315   7.711 -1.9025 -1.1121  0.3355
   21MOL   H240 6680   2.306   0.450   7.686 -0.0693  1.5047  0.6917
   21MOL   H241 6681   2.461   0.412   7.664 -1.3258 -0.1682  0.1680
   21MOL   C242 6682   2.445   0.551   7.820 -0.1802  0.1753  0.0872
   21MOL   C243 6683   2.361   0.569   7.950 -0.6703 -0.4254 -0.2010
   21MOL   C244 6684   2.417   0.555   8.076  0.4277  0.4763  0.0091
   21MOL  Cl245 6685   2.576   0.496   8.108  0.2230 -0.0337 -0.0338
   21MOL   C246 6686   2.336   0.572   8.187 -0.4651 -0.3295 -1.1162
   21MOL   C247 6687   2.195   0.604   8.173 -0.3299  0.8653 -0.8482
   21MOL   C248 6688   2.141   0.620   8.044  0.0330 -0.2781 -0.4675
   21MOL   C249 6689   2.227   0.616   7.936  0.2174  0.1829 -0.3058
   21MOL   C250 6690   2.443   0.671   7.723 -0.5979 -0.3717 -0.1225
   21MOL   H251 6691   2.549   0.538   7.848  0.4726  3.7953 -0.4710
   21MOL   H252 6692   2.379   0.555   8.284  1.2064  1.2090 -1.5439
   21MOL   H253 6693   2.137   0.620   8.263 -1.1403  0.4206 -1.2941
   21MOL   H254 6694   2.039   0.650   8.025  0.2239  0.4048 -0.4228
   21MOL   H255 6695   2.189   0.649   7.841 -0.3688  2.5551  0.7090
   21MOL   H256 6696   2.343   0.672   7.679 -0.6590  1.3499  0.0146
   21MOL   H257 6697   2.513   0.656   7.641 -2.0526  0.1141 -1.4933
   21MOL   C258 6698   2.467   0.808   7.788  0.3168  0.2309 -0.2715
   21MOL   C259 6699   2.430   0.921   7.695  0.0591 -0.8921 -0.6226
   21MOL   C260 6700   2.344   1.026   7.739  0.0864  0.6336 -0.1782
   21MOL  Cl261 6701   2.260   1.014   7.890 -0.3073 -0.0177  0.1599
   21MOL   C262 6702   2.321   1.132   7.651  0.0636  0.0698  0.1602
   21MOL   C263 6703   2.396   1.154   7.532 -0.2390  0.1852 -0.1236
   21MOL   C264 6704   2.476   1.049   7.485 -0.6356 -0.2460  0.1751
   21MOL   C265 6705   2.492   0.936   7.567  0.6214  0.1001 -0.3554
   21MOL   C266 6706   2.605   0.825   7.858  0.1733  0.2787  0.8883
   21MOL   H267 6707   2.405   0.810   7.877 -0.3121  1.4608 -0.7267
   21MOL   H268 6708   2.251   1.207   7.683 -2.1846 -1.4534 -1.0085
   21MOL   H269 6709   2.382   1.240   7.469 -0.9853 -0.3613 -0.7059
   21MOL   H270 6710   2.537   1.062   7.397 -1.1380 -0.6870 -0.2456
   21MOL   H271 6711   2.568   0.864   7.542 -1.3242 -1.7990 -0.9428
   21MOL   H272 6712   2.675   0.832   7.775 -1.8898 -1.8104 -1.1137
   21MOL   H273 6713   2.624   0.729   7.907  0.6740  0.4271  0.9793
   21MOL   C274 6714   2.617   0.943   7.959  0.3123 -0.2652 -0.4393
   21MOL   C275 6715   2.772   0.976   7.968  0.4811 -0.2837 -0.3695
   21MOL   C276 6716   2.819   1.098   7.916 -0.0779 -0.1520 -0.1123
   21MOL  Cl277 6717   2.718   1.198   7.824 -0.0838  0.1793 -0.0369
   21MOL   C278 6718   2.952   1.128   7.917 -0.2708  0.6096 -0.7628
   21MOL   C279 6719   3.042   1.041   7.984  0.4530  0.1627 -0.5586
   21MOL   C280 6720   2.992   0.927   8.045 -0.3931  0.2675  0.4893
   21MOL   C281 6721   2.859   0.887   8.031  0.2996 -0.3848 -0.8968
   21MOL   C282 6722   2.546   0.895   8.094  0.1567 -0.4800  0.1336
   21MOL   H283 6723   2.564   1.031   7.923 -1.6319 -1.3558 -0.3321
   21MOL   H284 6724   2.996   1.207   7.857 -1.7083  2.4588  0.5441
   21MOL   H285 6725   3.147   1.063   7.995  1.0340 -0.9714 -3.2335
   21MOL   H286 6726   3.065   0.871   8.101  2.5633  2.1434 -1.3285
   21MOL   H287 6727   2.832   0.787   8.061 -0.0916  0.5908  2.1536
   21MOL   H288 6728   2.570   0.792   8.121  1.0903 -1.2821 -3.4867
   21MOL   H289 6729   2.439   0.907   8.078  0.2559  0.3593  0.0998
   21MOL   C290 6730   2.577   0.968   8.223 -0.3657  0.6408  0.5594
   21MOL   C291 6731   2.524   0.905   8.354  0.0117 -0.4341 -0.5468
   21MOL   C292 6732   2.585   0.782   8.405  0.3545 -0.1244  0.1137
   21MOL  Cl293 6733   2.732   0.712   8.346  0.0440  0.0099 -0.0044
   21MOL   C294 6734   2.521   0.715   0.096 -0.2081 -0.3284 -0.4572
   21MOL   C295 6735   2.408   0.771   0.157 -0.4762  0.0379 -0.4992
   21MOL   C296 6736   2.342   0.882   0.105 -0.3463 -0.1365  0.1386
   21MOL   C297 6737   2.398   0.943   8.411  0.7104 -0.8047  0.8388
   21MOL   C298 6738   2.566   1.122   8.218  0.2088 -0.7905 -0.8279
   21MOL   H299 6739   2.684   0.950   8.230 -0.6170 -0.8350  0.6640
   21MOL   H300 6740   2.559   0.615   0.114  0.1960  0.0786  1.0484
   21MOL   H301 6741   2.362   0.725   0.243  2.2953 -1.0159  0.4775
   21MOL   H302 6742   2.258   0.921   0.160 -0.3888 -1.3778  0.9740
   21MOL   H303 6743   2.359   1.032   8.364  0.1373 -1.3189  0.3202
   21MOL   H304 6744   2.461   1.151   8.220  0.8337  1.5465  0.5803
   21MOL   H305 6745   2.604   1.162   8.124  1.3870 -0.7487 -0.3418
   21MOL   C306 6746   2.631   1.199   8.330  0.2972  0.3825  0.0483
   21MOL   C307 6747   2.577   1.341   8.317  0.1626  0.4676 -0.3248
   21MOL   C308 6748   2.455   1.388   8.371 -0.5985 -0.1103 -0.2397
   21MOL  Cl309 6749   2.372   1.308   0.079 -0.2892 -0.2207  0.1512
   21MOL   C310 6750   2.410   1.519   8.340 -0.1441  0.2026 -0.2132
   21MOL   C311 6751   2.483   1.598   8.252  0.1005  0.0047 -0.6987
   21MOL   C312 6752   2.600   1.551   8.192  0.4959  0.3523 -0.4923
   21MOL   C313 6753   2.650   1.424   8.229  0.4734 -0.4090 -0.3587
   21MOL   C314 6754   2.789   1.187   8.321  0.0554 -0.1441 -0.3056
   21MOL   H315 6755   2.588   1.162   0.002  0.4951  0.6142  0.2320
   21MOL   H316 6756   2.322   1.562   8.386 -1.1351 -1.1609 -0.7749
   21MOL   H317 6757   2.457   1.698   8.221  0.3142  0.5161  0.7432
   21MOL   H318 6758   2.651   1.605   8.114 -1.0273  2.7103  0.1072
   21MOL   H319 6759   2.734   1.389   8.172  0.5649  1.0851 -1.1780
   21MOL   H320 6760   2.836   1.188   8.223 -0.4402 -1.2157 -0.5614
   21MOL   H321 6761   2.814   1.086   8.355  0.7254  0.5957  1.4753
   21MOL   H322 6762   2.846   1.260   8.379  0.5002  0.1535 -1.1150
   22MOL     C1 6763   7.645   4.660   3.086  0.8114  0.1770  0.4868
   22MOL     C2 6764   7.589   4.695   2.952  0.1541  0.2400  0.2423
   22MOL     C3 6765   7.520   4.813   2.929  0.1397 -0.0285  0.6608
   22MOL    Cl4 6766   7.508   4.931   3.057  0.3885 -0.1657 -0.1064
   22MOL     C5 6767   7.472   4.846   2.799  0.2353 -0.2071 -0.4023
   22MOL     C6 6768   7.474   4.743   2.702  0.6365  0.4875  0.1239
   22MOL     C7 6769   7.536   4.616   2.728  0.0973  0.1664 -0.1082
   22MOL     C8 6770   7.602   4.598   2.852  0.0964  0.5340  0.4138
   22MOL     C9 6771   7.550   4.578   3.175  0.6647  0.4647 -0.3876
   22MOL    H10 6772   7.739   4.610   3.062 -0.3343 -1.4010 -0.8077
   22MOL    H11 6773   7.412   4.931   2.773  1.1085  0.5051 -0.1019
   22MOL    H12 6774   7.420   4.744   2.608 -0.1446 -3.9593  0.4167
   22MOL    H13 6775   7.539   4.534   2.658  2.0977 -0.9731  1.2179
   22MOL    H14 6776   7.656   4.508   2.876 -1.7924 -0.8980 -0.5762
   22MOL    H15 6777   7.492   4.504   3.118  0.9018 -0.6660  0.8245
   22MOL    H16 6778   7.476   4.649   3.213 -0.2852 -1.1709  0.8636
   22MOL    H17 6779   7.683   4.745   3.142  0.4906  0.7934 -0.2195
   22MOL    C18 6780   7.613   4.525   3.300  0.0900 -0.1634 -0.0090
   22MOL    C19 6781   7.717   4.413   3.282 -0.1386 -0.0163  0.2871
   22MOL    C20 6782   7.853   4.438   3.265  0.2455 -0.8645 -0.4111
   22MOL   Cl21 6783   7.934   4.601   3.271 -0.1896 -0.0581 -0.1099
   22MOL    C22 6784   7.944   4.334   3.261 -0.1272  1.0124  0.1043
   22MOL    C23 6785   7.903   4.204   3.273  0.4135 -0.0359 -0.2355
   22MOL    C24 6786   7.770   4.174   3.291 -0.3634  0.6292 -0.6773
   22MOL    C25 6787   7.674   4.277   3.290  0.6894 -0.1387 -0.3448
   22MOL    C26 6788   7.503   4.496   3.408  0.2515  0.0703 -0.1200
   22MOL    H27 6789   7.664   4.611   3.344 -0.7007 -0.9783  2.5566
   22MOL    H28 6790   8.047   4.368   3.259  0.7747 -1.4509  1.6405
   22MOL    H29 6791   7.984   4.133   3.276  0.7040  0.3230  0.7435
   22MOL    H30 6792   7.742   4.070   3.302 -0.7300  0.7283 -0.6917
   22MOL    H31 6793   7.568   4.259   3.301  0.9354 -1.4945 -0.1223
   22MOL    H32 6794   7.560   4.431   3.473  0.3893 -0.8151 -1.1061
   22MOL    H33 6795   7.428   4.432   3.360  0.8233 -0.8205  0.1572
   22MOL    C34 6796   7.440   4.612   3.487 -0.0417 -0.0816 -0.4455
   22MOL    C35 6797   7.545   4.713   3.530  0.1488  0.1800  0.6779
   22MOL    C36 6798   7.539   4.852   3.502 -0.3528  0.0160  0.6062
   22MOL   Cl37 6799   7.431   4.911   3.387  0.3046  0.0593  0.3770
   22MOL    C38 6800   7.624   4.942   3.563  0.9360  0.8664 -0.3521
   22MOL    C39 6801   7.730   4.904   3.641 -0.2024  0.6631  0.2956
   22MOL    C40 6802   7.744   4.769   3.670 -0.3039 -0.8680 -0.3970
   22MOL    C41 6803   7.655   4.674   3.613  0.4341  0.4230  0.1962
   22MOL    C42 6804   7.354   4.544   3.600 -0.0082 -0.7021  0.7359
   22MOL    H43 6805   7.368   4.656   3.418 -0.6640  1.2933  1.0775
   22MOL    H44 6806   7.621   5.047   3.537 -0.0566  0.7378 -0.7675
   22MOL    H45 6807   7.806   4.975   3.669  0.5679  0.4385 -1.1979
   22MOL    H46 6808   7.838   4.743   3.716  0.7388  1.1956 -1.2600
   22MOL    H47 6809   7.669   4.570   3.635  0.0634 -0.1073 -1.9955
   22MOL    H48 6810   7.394   4.462   3.660  1.6567 -1.2396 -1.0570
   22MOL    H49 6811   7.280   4.492   3.539 -0.4759  1.1903 -0.3257
   22MOL    C50 6812   7.283   4.650   3.698 -0.4860  0.9389 -0.0184
   22MOL    C51 6813   7.378   4.702   3.813  0.5799  0.0273  0.0554
   22MOL    C52 6814   7.372   4.841   3.846 -0.1226  0.8919 -0.4489
   22MOL   Cl53 6815   7.262   4.954   3.763 -0.1834 -0.3143  0.2674
   22MOL    C54 6816   7.455   4.888   3.954  0.5123  0.1894  0.0672
   22MOL    C55 6817   7.546   4.805   4.010  0.5850  0.6143 -0.4630
   22MOL    C56 6818   7.556   4.672   3.971  0.0933  0.2656  0.5248
   22MOL    C57 6819   7.477   4.625   3.873  0.3206 -0.1905 -0.0667
   22MOL    C58 6820   7.147   4.604   3.748  0.3093  0.0438 -0.0456
   22MOL    H59 6821   7.264   4.730   3.626  2.4478  0.1698 -1.7537
   22MOL    H60 6822   7.460   4.992   3.983 -1.4287  0.0352  1.0071
   22MOL    H61 6823   7.606   4.839   4.093 -0.9535  0.1262  0.8660
   22MOL    H62 6824   7.621   4.607   4.029 -0.8405  0.4364  1.7952
   22MOL    H63 6825   7.499   4.526   3.834 -0.9991 -1.0063  1.2300
   22MOL    H64 6826   7.115   4.682   3.817 -1.6549  0.0911 -0.9778
   22MOL    H65 6827   7.166   4.520   3.815 -1.1684  0.4628  0.9169
   22MOL    C66 6828   7.042   4.576   3.647 -0.2789  0.2051  0.0324
   22MOL    C67 6829   7.056   4.651   3.511 -0.1802 -0.2252 -0.0707
   22MOL    C68 6830   7.052   4.591   3.384  0.7622 -0.2583 -0.4636
   22MOL   Cl69 6831   7.020   4.427   3.372 -0.2415  0.1515  0.0013
   22MOL    C70 6832   7.083   4.671   3.269 -0.3627  0.3412 -0.4989
   22MOL    C71 6833   7.103   4.811   3.279 -0.0452 -0.6068 -0.7509
   22MOL    C72 6834   7.078   4.870   3.399  0.4242  0.5564 -0.1723
   22MOL    C73 6835   7.057   4.795   3.516 -0.4909 -0.3195  0.9112
   22MOL    C74 6836   6.895   4.584   3.706  1.0538 -0.0938  0.2515
   22MOL    H75 6837   7.048   4.472   3.615 -1.8419  0.8269 -2.4519
   22MOL    H76 6838   7.082   4.627   3.170  2.9904  0.9477 -0.8668
   22MOL    H77 6839   7.120   4.871   3.191 -1.2214  1.5633  0.4701
   22MOL    H78 6840   7.075   4.977   3.408 -0.4764  0.5750 -0.6036
   22MOL    H79 6841   7.055   4.847   3.611 -0.4443  2.4502 -0.5602
   22MOL    H80 6842   6.829   4.558   3.623  1.7547 -0.9810 -0.0477
   22MOL    H81 6843   6.871   4.690   3.706 -2.6442 -0.8432 -2.5803
   22MOL    C82 6844   6.852   4.515   3.835  0.0058 -0.0671  0.0031
   22MOL    C83 6845   6.854   4.358   3.828 -0.2710 -0.2125  1.2593
   22MOL    C84 6846   6.865   4.282   3.946  1.1198 -0.1578 -0.2555
   22MOL   Cl85 6847   6.899   4.348   4.096  0.0619  0.1750 -0.2109
   22MOL    C86 6848   6.854   4.142   3.943  0.8033 -0.0217  0.6508
   22MOL    C87 6849   6.844   4.078   3.820 -1.0238  0.1481 -0.2524
   22MOL    C88 6850   6.839   4.151   3.698 -0.5735 -0.2198 -0.4190
   22MOL    C89 6851   6.848   4.290   3.703 -0.3085  0.5950  0.8150
   22MOL    C90 6852   6.710   4.558   3.883  0.8404 -0.9294  0.2861
   22MOL    H91 6853   6.924   4.550   3.910 -0.0010 -0.3318  0.1341
   22MOL    H92 6854   6.867   4.082   4.031 -1.2229 -0.5469  0.6015
   22MOL    H93 6855   6.843   3.970   3.813  3.9634 -0.0567  0.2437
   22MOL    H94 6856   6.829   4.100   3.604  0.6434 -0.8694 -0.2079
   22MOL    H95 6857   6.828   4.333   3.605  1.9766  1.9438  0.8959
   22MOL    H96 6858   6.663   4.494   3.958 -0.5924  0.7474  0.8667
   22MOL    H97 6859   6.647   4.554   3.794  2.2536  1.3281 -0.8832
   22MOL    C98 6860   6.709   4.710   3.929 -0.2692 -0.7216  0.1725
   22MOL    C99 6861   6.816   4.754   4.028  0.3580  0.0418  0.2177
   22MOL   C100 6862   6.908   4.856   3.995 -0.1838 -0.1411  0.6153
   22MOL  Cl101 6863   6.923   4.936   3.833 -0.1528  0.1480 -0.3077
   22MOL   C102 6864   7.009   4.893   4.089 -0.0997  0.9660  0.1629
   22MOL   C103 6865   7.024   4.814   4.207 -0.3964  0.2138 -0.0035
   22MOL   C104 6866   6.928   4.723   4.242  0.1873  0.1987  0.2864
   22MOL   C105 6867   6.829   4.691   4.148  0.8037  0.5549 -0.9340
   22MOL   C106 6868   6.562   4.748   3.967 -0.3097 -0.0452  0.1392
   22MOL   H107 6869   6.727   4.771   3.841  1.5152  0.3316  1.2440
   22MOL   H108 6870   7.080   4.967   4.056  1.5957 -0.7442 -0.0956
   22MOL   H109 6871   7.111   4.829   4.269 -0.7112  0.0337  0.4844
   22MOL   H110 6872   6.922   4.680   4.341 -0.4638 -3.3420 -1.2161
   22MOL   H111 6873   6.754   4.616   4.167  1.3112  0.1462 -0.5389
   22MOL   H112 6874   6.542   4.683   4.053  0.2371  0.0230  0.3233
   22MOL   H113 6875   6.484   4.705   3.904 -1.1519  0.2764  0.9454
   22MOL   C114 6876   6.535   4.902   4.002 -0.3852 -0.3717 -0.2879
   22MOL   C115 6877   6.403   4.917   4.076 -0.1974 -0.0778  0.8031
   22MOL   C116 6878   6.411   4.958   4.214 -0.3491  1.0548 -0.3966
   22MOL  Cl117 6879   6.563   4.957   4.304  0.0631  0.0726  0.2647
   22MOL   C118 6880   6.295   4.995   4.280 -0.0428  0.4738  0.6239
   22MOL   C119 6881   6.172   4.983   4.210 -0.0646 -0.1808  0.0203
   22MOL   C120 6882   6.158   4.927   4.080  0.6492  0.1775 -0.0458
   22MOL   C121 6883   6.276   4.898   4.015 -0.2460 -0.1200 -0.0938
   22MOL   C122 6884   6.534   4.999   3.879  0.1279  0.0106  0.0676
   22MOL   H123 6885   6.618   4.938   4.063 -0.0164  0.7018 -1.4192
   22MOL   H124 6886   6.298   5.020   4.385 -2.9925 -1.6444  1.2979
   22MOL   H125 6887   6.089   5.018   4.270 -1.0073 -2.8855  0.3478
   22MOL   H126 6888   6.058   4.919   4.040  1.5789  0.8598 -2.5800
   22MOL   H127 6889   6.258   4.866   3.913  0.9407 -1.7321  0.1889
   22MOL   H128 6890   6.436   4.995   3.833  0.4836  1.7002 -0.8907
   22MOL   H129 6891   6.611   4.962   3.811  0.2788  1.1220 -0.3944
   22MOL   C130 6892   6.588   5.139   3.912 -0.4060  0.0683  0.0871
   22MOL   C131 6893   6.496   5.238   3.981 -0.5789  0.2971 -0.5328
   22MOL   C132 6894   6.531   5.305   4.102  0.0686  0.3440 -0.3210
   22MOL  Cl133 6895   6.679   5.292   4.180  0.3843 -0.5043 -0.1409
   22MOL   C134 6896   6.443   5.397   4.166  0.0869  0.5999  0.2775
   22MOL   C135 6897   6.307   5.406   4.113 -0.3070 -0.0854 -0.2846
   22MOL   C136 6898   6.271   5.345   3.998 -0.1629 -0.0589 -0.7933
   22MOL   C137 6899   6.365   5.258   3.934 -0.7702  0.0719 -0.5369
   22MOL   C138 6900   6.635   5.197   3.778 -0.6437  0.4221 -0.1904
   22MOL   H139 6901   6.675   5.120   3.975 -0.5846 -1.5742 -0.1418
   22MOL   H140 6902   6.477   5.453   4.252 -2.1856  0.4856  1.2821
   22MOL   H141 6903   6.232   5.467   4.162 -0.6593  0.4329 -1.4438
   22MOL   H142 6904   6.172   5.348   3.955 -1.1953  0.5900  1.5576
   22MOL   H143 6905   6.337   5.205   3.845  0.4929 -0.2945 -0.7304
   22MOL   H144 6906   6.550   5.248   3.735  2.7703  4.4864 -2.4890
   22MOL   H145 6907   6.663   5.120   3.706  3.2020  0.7050  0.8740
   22MOL   C146 6908   6.739   5.310   3.789 -0.2326 -0.3291 -0.0821
   22MOL   C147 6909   6.748   5.373   3.644 -0.6900  0.5606 -0.0274
   22MOL   C148 6910   6.710   5.508   3.620 -0.1096 -0.8724  0.1698
   22MOL  Cl149 6911   6.654   5.605   3.746 -0.3371  0.2999 -0.0490
   22MOL   C150 6912   6.725   5.565   3.491 -0.2420 -0.0583 -0.4845
   22MOL   C151 6913   6.763   5.486   3.386  0.0913  0.1311 -0.0441
   22MOL   C152 6914   6.798   5.353   3.410  0.2579  0.2696  0.0060
   22MOL   C153 6915   6.790   5.290   3.535  0.2203 -0.2787 -0.2564
   22MOL   C154 6916   6.884   5.270   3.836  0.2221 -0.1475  0.0944
   22MOL   H155 6917   6.706   5.386   3.861 -1.1186 -0.6514 -0.1505
   22MOL   H156 6918   6.705   5.670   3.481 -4.2369 -0.5248  1.3502
   22MOL   H157 6919   6.772   5.521   3.284  0.2138  3.0996  0.9428
   22MOL   H158 6920   6.823   5.287   3.328 -0.9074  0.2338 -0.3246
   22MOL   H159 6921   6.831   5.190   3.544  1.0212 -0.0924 -1.8017
   22MOL   H160 6922   6.921   5.208   3.754 -0.2767  1.7088 -1.5875
   22MOL   H161 6923   6.866   5.204   3.920 -0.5688 -1.1380 -0.8419
   22MOL   C162 6924   6.974   5.382   3.879  0.0626 -0.5473 -0.1829
   22MOL   C163 6925   7.118   5.342   3.878 -0.6122  0.0552 -0.6554
   22MOL   C164 6926   7.184   5.327   3.752 -0.0317  0.0145  1.0433
   22MOL  Cl165 6927   7.108   5.365   3.600  0.4877 -0.4104 -0.0257
   22MOL   C166 6928   7.313   5.276   3.746 -0.0718 -0.0150 -0.1790
   22MOL   C167 6929   7.385   5.238   3.862 -0.6289 -0.6320  0.2626
   22MOL   C168 6930   7.313   5.234   3.988  0.2402 -0.6032 -0.4037
   22MOL   C169 6931   7.183   5.285   3.995  0.3747 -0.2431 -0.0525
   22MOL   C170 6932   6.922   5.442   4.018 -0.0886 -0.6287 -0.0035
   22MOL   H171 6933   6.956   5.455   3.800 -0.8970  0.0462  0.5630
   22MOL   H172 6934   7.359   5.252   3.651  0.2276 -1.0781  0.2331
   22MOL   H173 6935   7.486   5.202   3.851 -0.9677 -1.7904  0.8876
   22MOL   H174 6936   7.357   5.203   4.082  0.8517  0.7265 -0.2291
   22MOL   H175 6937   7.140   5.300   4.092  0.4059 -1.0539  0.0905
   22MOL   H176 6938   6.935   5.357   4.085  0.2154 -0.1371  0.5661
   22MOL   H177 6939   6.817   5.470   4.022  0.2441  0.5555  0.8459
   22MOL   C178 6940   7.002   5.566   4.075 -0.2668  0.2716 -0.0371
   22MOL   C179 6941   6.996   5.574   4.227 -0.0593  0.5726 -0.0203
   22MOL   C180 6942   7.119   5.613   4.291  0.1546  0.2331  0.4126
   22MOL  Cl181 6943   7.270   5.654   4.208  0.1737 -0.0775  0.0828
   22MOL   C182 6944   7.108   5.632   4.426  0.0164  0.0829  0.0564
   22MOL   C183 6945   6.985   5.609   4.497  0.1282 -0.3302  0.0674
   22MOL   C184 6946   6.872   5.563   4.433 -0.0236 -0.4862 -0.1353
   22MOL   C185 6947   6.879   5.542   4.297 -0.4420 -0.0347 -0.2711
   22MOL   C186 6948   6.959   5.700   4.005 -0.1324  0.3995  0.0494
   22MOL   H187 6949   7.105   5.542   4.050  0.1558  2.1746 -0.1992
   22MOL   H188 6950   7.197   5.659   4.481 -0.3715  0.2700  0.5879
   22MOL   H189 6951   6.977   5.630   4.603  2.3397  0.0934  0.1848
   22MOL   H190 6952   6.779   5.549   4.486 -1.2729 -1.0654 -2.3858
   22MOL   H191 6953   6.782   5.512   4.259 -0.7348 -2.3333  2.1541
   22MOL   H192 6954   6.903   5.664   3.919 -0.1666 -0.6821  0.5151
   22MOL   H193 6955   7.046   5.752   3.964  1.1477 -1.1825  0.6812
   22MOL   C194 6956   6.873   5.808   4.085  0.5192 -0.8671  0.3930
   22MOL   C195 6957   6.783   5.887   3.988  0.1094 -0.3589  0.5230
   22MOL   C196 6958   6.640   5.876   3.993 -0.8204  0.9203  0.6978
   22MOL  Cl197 6959   6.554   5.765   4.103  0.1851  0.0803  0.0859
   22MOL   C198 6960   6.562   5.951   3.904  0.1184 -0.3711 -0.3998
   22MOL   C199 6961   6.618   6.029   3.809 -0.2620  0.4104  0.6473
   22MOL   C200 6962   6.757   6.039   3.798 -0.5025  0.9480  0.0316
   22MOL   C201 6963   6.840   5.973   3.892 -0.4804 -0.7802 -0.4356
   22MOL   C202 6964   6.961   5.906   4.169 -0.0098  0.0283  0.3559
   22MOL   H203 6965   6.817   5.749   4.158 -0.6326 -0.1293  0.1070
   22MOL   H204 6966   6.458   5.926   3.918 -0.3016  1.7290  0.4222
   22MOL   H205 6967   6.558   6.084   3.738 -0.1871 -0.5962 -0.2222
   22MOL   H206 6968   6.811   6.100   3.728  1.5113  0.8556  1.4881
   22MOL   H207 6969   6.947   5.988   3.892 -0.8551  2.2820  1.8835
   22MOL   H208 6970   7.012   5.976   4.103 -1.3502  0.0807 -0.6445
   22MOL   H209 6971   7.040   5.856   4.225 -0.3735  0.3531  1.1725
   22MOL   C210 6972   6.877   5.996   4.268 -0.2791 -0.3094 -0.1688
   22MOL   C211 6973   6.967   6.118   4.304 -0.1577 -0.1296  0.5503
   22MOL   C212 6974   6.954   6.243   4.238 -0.0848 -0.3966 -1.0630
   22MOL  Cl213 6975   6.829   6.270   4.119 -0.1620  0.0499 -0.5770
   22MOL   C214 6976   7.047   6.347   4.264 -0.6127  0.1946  0.4778
   22MOL   C215 6977   7.159   6.328   4.348  0.1211 -0.1430  1.4838
   22MOL   C216 6978   7.168   6.200   4.406  0.4506 -0.3722 -0.1580
   22MOL   C217 6979   7.081   6.093   4.384 -0.5930  0.1414 -0.0813
   22MOL   C218 6980   6.824   5.915   4.393  1.0120 -0.0718 -0.5384
   22MOL   H219 6981   6.790   6.037   4.216  1.0947  0.3338 -2.0382
   22MOL   H220 6982   7.042   6.440   4.209 -1.0003 -0.0245  0.1388
   22MOL   H221 6983   7.231   6.407   4.364  1.5408 -1.0990 -0.0132
   22MOL   H222 6984   7.249   6.171   4.472 -0.5622 -3.0259 -0.0092
   22MOL   H223 6985   7.092   6.004   4.445 -2.1287 -0.5939 -0.8288
   22MOL   H224 6986   6.908   5.869   4.446  0.4380  1.2359  1.6027
   22MOL   H225 6987   6.747   5.842   4.370  0.2321 -0.4288  2.8344
   22MOL   C226 6988   6.777   5.994   4.520 -0.2350 -0.2736 -0.2758
   22MOL   C227 6989   6.804   5.921   4.663  0.6445  0.0885 -1.0002
   22MOL   C228 6990   6.904   5.973   4.753 -0.2172 -1.1926  0.6469
   22MOL  Cl229 6991   6.988   6.119   4.706 -0.2748 -0.3899 -0.1256
   22MOL   C230 6992   6.950   5.900   4.863  0.5576  0.4212  0.6738
   22MOL   C231 6993   6.884   5.787   4.906 -0.1120  0.0445 -0.0320
   22MOL   C232 6994   6.773   5.744   4.830  0.6483 -0.2832  0.6698
   22MOL   C233 6995   6.730   5.809   4.709  0.4370  0.3825  0.0035
   22MOL   C234 6996   6.629   6.035   4.514 -0.7057  0.2760 -0.4249
   22MOL   H235 6997   6.824   6.092   4.517  1.2417 -1.0258 -3.8783
   22MOL   H236 6998   7.040   5.928   4.916 -0.1375  2.5440  0.7958
   22MOL   H237 6999   6.923   5.728   4.988 -2.3227 -0.1086  0.9471
   22MOL   H238 7000   6.720   5.657   4.865 -0.4253  0.1638  0.1897
   22MOL   H239 7001   6.652   5.769   4.646  1.6911 -0.4062 -1.0891
   22MOL   H240 7002   6.574   5.949   4.552 -1.1542  0.6121 -0.3224
   22MOL   H241 7003   6.605   6.038   4.408  1.5016  1.2170 -0.9198
   22MOL   C242 7004   6.592   6.168   4.584 -0.5944  0.2507 -0.4997
   22MOL   C243 7005   6.455   6.161   4.635 -0.4050 -0.4753 -0.7326
   22MOL   C244 7006   6.440   6.130   4.779  0.2304  0.3540  0.5211
   22MOL  Cl245 7007   6.573   6.111   4.885  0.0220 -0.1119 -0.5744
   22MOL   C246 7008   6.306   6.130   4.831 -0.3141 -0.0629  0.2312
   22MOL   C247 7009   6.195   6.154   4.753  0.8226  0.0084  0.8533
   22MOL   C248 7010   6.210   6.176   4.617 -0.3009 -0.1868  0.2193
   22MOL   C249 7011   6.337   6.176   4.555 -0.7578 -0.0547 -0.6529
   22MOL   C250 7012   6.608   6.291   4.494 -0.7272 -0.2689  1.1059
   22MOL   H251 7013   6.667   6.168   4.663 -1.5523  0.2238  0.4237
   22MOL   H252 7014   6.294   6.131   4.938 -0.0055  2.4226  0.2642
   22MOL   H253 7015   6.098   6.155   4.801  1.4523 -0.2477  2.1644
   22MOL   H254 7016   6.120   6.176   4.557 -1.3563  0.3039  1.7580
   22MOL   H255 7017   6.347   6.186   4.448 -0.1366 -0.6948 -0.6628
   22MOL   H256 7018   6.525   6.300   4.423  2.0929  2.3344 -2.0233
   22MOL   H257 7019   6.690   6.269   4.426 -1.1389  0.7041  0.2823
   22MOL   C258 7020   6.650   6.424   4.566 -0.1186  0.5338  0.4449
   22MOL   C259 7021   6.624   6.542   4.477 -0.2243  0.2395 -0.4469
   22MOL   C260 7022   6.498   6.610   4.480 -0.0906  0.6204  0.0937
   22MOL  Cl261 7023   6.371   6.563   4.584  0.0269 -0.1033 -0.4785
   22MOL   C262 7024   6.474   6.730   4.406  0.7458 -0.3973  0.0201
   22MOL   C263 7025   6.576   6.784   4.325  0.4237  0.4549 -0.2601
   22MOL   C264 7026   6.698   6.713   4.318 -0.1526  0.2295 -0.3922
   22MOL   C265 7027   6.724   6.595   4.393 -0.2096  0.1169 -0.1623
   22MOL   C266 7028   6.795   6.412   4.616  0.1702 -0.2097  0.5026
   22MOL   H267 7029   6.591   6.439   4.657  1.9266 -0.1404  1.9302
   22MOL   H268 7030   6.381   6.783   4.415  0.5714 -0.4125 -1.5701
   22MOL   H269 7031   6.564   6.881   4.279 -1.0099  0.1318 -0.5774
   22MOL   H270 7032   6.772   6.754   4.251  0.2526  0.2964  0.0980
   22MOL   H271 7033   6.826   6.560   4.385 -0.0363  0.8278 -1.0637
   22MOL   H272 7034   6.865   6.392   4.534 -0.2255 -0.9833  0.3514
   22MOL   H273 7035   6.811   6.327   4.684  1.8771 -0.7915 -0.5867
   22MOL   C274 7036   6.854   6.526   4.696 -0.1430 -0.4982  0.3035
   22MOL   C275 7037   7.003   6.512   4.719  0.1319 -0.2058  0.3652
   22MOL   C276 7038   7.089   6.566   4.623 -0.5300  0.7817 -0.0285
   22MOL  Cl277 7039   7.040   6.654   4.483 -0.2854  0.1692  0.0160
   22MOL   C278 7040   7.226   6.554   4.649 -0.0211 -0.1464 -0.0616
   22MOL   C279 7041   7.272   6.472   4.750 -0.2974  0.4327  0.2011
   22MOL   C280 7042   7.180   6.421   4.847 -0.1205  0.4136  0.1338
   22MOL   C281 7043   7.047   6.441   4.830 -0.6776 -0.2869 -0.5318
   22MOL   C282 7044   6.773   6.555   4.830  0.0677 -0.2167 -0.4586
   22MOL   H283 7045   6.844   6.616   4.635  2.7991 -0.4473 -0.1695
   22MOL   H284 7046   7.299   6.589   4.577 -0.6518  1.6202  0.1568
   22MOL   H285 7047   7.378   6.453   4.761 -0.3043  1.5357  2.5369
   22MOL   H286 7048   7.211   6.365   4.934 -0.3511  0.7244  0.4199
   22MOL   H287 7049   6.973   6.421   4.906 -3.2382 -0.2778 -2.9351
   22MOL   H288 7050   6.751   6.472   4.898 -1.3075  2.1087  2.0532
   22MOL   H289 7051   6.669   6.578   4.807  0.8664  0.9785 -3.0297
   22MOL   C290 7052   6.816   6.686   4.920 -0.0439  0.3627 -0.5386
   22MOL   C291 7053   6.934   6.656   5.015 -0.0122  0.2630  0.7935
   22MOL   C292 7054   7.062   6.714   5.009  0.1149 -0.5512 -0.7630
   22MOL  Cl293 7055   7.116   6.820   4.878  0.0759  0.1989  0.0746
   22MOL   C294 7056   7.169   6.667   5.088  0.0970  0.7178 -0.3393
   22MOL   C295 7057   7.146   6.562   5.177 -0.3324  0.8314 -0.2201
   22MOL   C296 7058   7.017   6.504   5.192 -0.2895 -0.5697  0.3118
   22MOL   C297 7059   6.906   6.554   5.113  0.3579 -0.4423 -0.3013
   22MOL   C298 7060   6.698   6.747   5.004 -0.2367 -0.9007 -0.3070
   22MOL   H299 7061   6.858   6.758   4.851  1.6805  1.2340  1.3616
   22MOL   H300 7062   7.268   6.705   5.069  1.4611 -1.0706  2.7591
   22MOL   H301 7063   7.230   6.519   5.230 -0.9530  0.8450  0.7874
   22MOL   H302 7064   7.002   6.422   5.261  2.0292 -0.0827  1.4036
   22MOL   H303 7065   6.806   6.515   5.117 -0.6715  2.0881 -0.3962
   22MOL   H304 7066   6.716   6.785   5.104 -1.4645 -1.3852  0.1079
   22MOL   H305 7067   6.620   6.672   5.020  0.6773 -2.2299 -1.9259
   22MOL   C306 7068   6.627   6.869   4.940 -0.6722 -0.2151 -0.1533
   22MOL   C307 7069   6.715   6.986   4.907 -0.4515 -0.1990 -0.2595
   22MOL   C308 7070   6.746   7.026   4.771  0.1191  0.2153  0.0598
   22MOL  Cl309 7071   6.707   6.924   4.634  0.0470  0.3465  0.2633
   22MOL   C310 7072   6.814   7.146   4.741 -0.3950 -0.0923 -0.7197
   22MOL   C311 7073   6.868   7.216   4.851 -0.3860  0.1021 -0.2775
   22MOL   C312 7074   6.856   7.171   4.984 -0.7134 -0.2046  0.6005
   22MOL   C313 7075   6.777   7.058   5.015  0.9267  0.5325 -0.5220
   22MOL   C314 7076   6.500   6.904   5.030  0.7428  0.0997 -0.9534
   22MOL   H315 7077   6.599   6.834   4.841 -1.7222  0.2861 -0.0397
   22MOL   H316 7078   6.819   7.183   4.640  2.3939 -1.3388 -1.0881
   22MOL   H317 7079   6.930   7.301   4.827  0.1997  0.5843  2.7186
   22MOL   H318 7080   6.908   7.227   5.061  0.4352  0.2432 -0.4834
   22MOL   H319 7081   6.763   7.025   5.117 -0.2546  1.4113 -0.3833
   22MOL   H320 7082   6.530   6.899   5.134 -1.2992  0.7945 -0.2956
   22MOL   H321 7083   6.422   6.829   5.021 -0.3432  1.1032 -0.0635
   22MOL   H322 7084   6.466   7.006   5.012  0.4575 -0.2357 -2.3947
   23MOL     C1 7085   4.086   8.079   4.918  0.0642 -0.2109 -0.2203
   23MOL     C2 7086   4.066   7.932   4.972  0.1920  0.1214  0.0311
   23MOL     C3 7087   3.935   7.883   4.994  0.0372  0.0907 -0.4090
   23MOL    Cl4 7088   3.796   7.971   4.947  0.2107 -0.0742 -0.2410
   23MOL     C5 7089   3.912   7.753   5.045 -0.3699  0.6846 -0.2371
   23MOL     C6 7090   4.020   7.668   5.071  0.2760  0.5839  0.3692
   23MOL     C7 7091   4.149   7.711   5.041 -0.2293 -0.6135 -0.2193
   23MOL     C8 7092   4.172   7.843   4.990 -0.2989  0.1011  0.4821
   23MOL     C9 7093   4.065   8.095   4.764  0.1327  0.7543  0.5303
   23MOL    H10 7094   4.009   8.134   4.972  0.0173 -0.4611 -0.0297
   23MOL    H11 7095   3.810   7.717   5.038 -0.1956  0.5626 -2.7891
   23MOL    H12 7096   4.002   7.570   5.113 -2.3858  0.2571 -1.4292
   23MOL    H13 7097   4.232   7.643   5.053 -1.4241 -2.4745 -1.9832
   23MOL    H14 7098   4.272   7.876   4.968  0.3683 -0.5954  2.4165
   23MOL    H15 7099   4.074   8.199   4.733  0.4007 -0.1671 -2.6361
   23MOL    H16 7100   3.966   8.056   4.740 -0.3926  1.8660  0.8839
   23MOL    H17 7101   4.181   8.122   4.949  0.9050 -2.0720 -0.1471
   23MOL    C18 7102   4.169   8.007   4.681 -0.3380 -0.2616 -0.4165
   23MOL    C19 7103   4.315   8.024   4.725 -0.4461 -0.1649 -0.4988
   23MOL    C20 7104   4.411   7.924   4.745  0.3816  0.0083  0.2161
   23MOL   Cl21 7105   4.362   7.762   4.734 -0.1983 -0.5253 -0.2762
   23MOL    C22 7106   4.542   7.950   4.787  0.5563 -0.2702  0.2911
   23MOL    C23 7107   4.592   8.083   4.791 -0.4791  0.5847 -0.3090
   23MOL    C24 7108   4.496   8.183   4.772  0.3380  0.1480  0.5687
   23MOL    C25 7109   4.360   8.159   4.740  0.1827 -0.0605  1.0643
   23MOL    C26 7110   4.159   8.027   4.534  0.2001 -0.0094  0.3256
   23MOL    H27 7111   4.139   7.906   4.708  1.2874 -0.7253 -0.3197
   23MOL    H28 7112   4.601   7.864   4.813 -0.5999 -1.0531  0.3555
   23MOL    H29 7113   4.694   8.103   4.820 -0.7485  0.1781  0.9343
   23MOL    H30 7114   4.534   8.281   4.800  1.1948  0.3403 -1.2303
   23MOL    H31 7115   4.292   8.239   4.716  2.1690  0.9132 -1.6295
   23MOL    H32 7116   4.254   8.014   4.482 -1.4738 -0.7724 -2.6593
   23MOL    H33 7117   4.144   8.135   4.524 -0.7979 -0.4082 -3.0818
   23MOL    C34 7118   4.051   7.951   4.460  0.7488 -0.2107  0.5099
   23MOL    C35 7119   4.073   7.797   4.476  0.8355  0.3821 -0.1248
   23MOL    C36 7120   3.974   7.708   4.524  0.1978  0.6940 -1.1018
   23MOL   Cl37 7121   3.805   7.757   4.519  0.1562 -0.0604 -0.0685
   23MOL    C38 7122   4.000   7.570   4.547 -0.0534 -0.2680 -0.3757
   23MOL    C39 7123   4.124   7.515   4.515 -0.4210 -0.6800 -0.6756
   23MOL    C40 7124   4.226   7.598   4.467 -0.7192 -0.5285 -0.3574
   23MOL    C41 7125   4.199   7.737   4.445 -0.2551  0.1885 -0.4327
   23MOL    C42 7126   4.032   7.994   4.311  0.1860 -0.2631  0.4871
   23MOL    H43 7127   3.962   7.983   4.516  0.1109  1.3721 -1.3545
   23MOL    H44 7128   3.923   7.500   4.574 -0.6217  0.7505  0.6575
   23MOL    H45 7129   4.134   7.410   4.539 -1.1135 -0.0681  2.6054
   23MOL    H46 7130   4.321   7.555   4.442 -1.1555 -1.9336  0.3404
   23MOL    H47 7131   4.273   7.801   4.398 -0.8907  0.1333 -1.5271
   23MOL    H48 7132   3.978   7.918   4.256  2.0166 -1.6363  0.5515
   23MOL    H49 7133   4.131   8.003   4.265  0.0790  3.2307  0.7597
   23MOL    C50 7134   3.967   8.127   4.279  0.7640 -0.3839 -0.3725
   23MOL    C51 7135   3.845   8.150   4.363 -0.2243 -0.1824  0.3165
   23MOL    C52 7136   3.846   8.248   4.464  0.1517 -0.4073 -0.2048
   23MOL   Cl53 7137   3.986   8.354   4.501 -0.3166 -0.0560 -0.1864
   23MOL    C54 7138   3.725   8.265   4.541  0.4836 -0.3130 -0.0657
   23MOL    C55 7139   3.616   8.179   4.535 -0.0625 -0.9005  0.4311
   23MOL    C56 7140   3.617   8.082   4.429 -0.5417  0.1289 -0.3006
   23MOL    C57 7141   3.727   8.074   4.342  0.6474  0.1940  0.1983
   23MOL    C58 7142   3.941   8.129   4.123  0.4835  0.8520  0.0316
   23MOL    H59 7143   4.046   8.197   4.308  2.3219 -2.2430  0.0186
   23MOL    H60 7144   3.722   8.324   4.631  1.1960 -2.1288  1.1923
   23MOL    H61 7145   3.533   8.194   4.602 -0.5960 -0.8307 -0.2375
   23MOL    H62 7146   3.541   8.006   4.421  1.0451 -1.7894  2.4125
   23MOL    H63 7147   3.723   8.003   4.260 -0.0171 -0.3765  0.7152
   23MOL    H64 7148   3.877   8.216   4.110 -0.1797  0.0862 -1.8770
   23MOL    H65 7149   3.889   8.036   4.099 -0.9224  1.8462 -0.7938
   23MOL    C66 7150   4.074   8.149   4.036 -0.3841  0.6140 -0.0718
   23MOL    C67 7151   4.133   8.289   4.053 -0.6137 -0.1781  0.4756
   23MOL    C68 7152   4.266   8.310   4.082 -0.3274  0.2089 -0.0063
   23MOL   Cl69 7153   4.367   8.176   4.125  0.3823 -0.3504 -0.1562
   23MOL    C70 7154   4.312   0.023   4.096 -0.2527  0.1557 -0.2162
   23MOL    C71 7155   4.231   0.131   4.049 -0.3373  0.8814 -0.0042
   23MOL    C72 7156   4.096   0.114   4.011  0.4710  0.1726  0.0951
   23MOL    C73 7157   4.046   8.403   4.015 -0.6188  0.2382 -0.0936
   23MOL    C74 7158   4.047   8.111   3.883  1.1818 -0.6678 -0.5227
   23MOL    H75 7159   4.142   8.071   4.071  1.3430  1.3437 -1.6998
   23MOL    H76 7160   4.411   0.057   4.122 -0.4146  1.0544 -0.7397
   23MOL    H77 7161   4.276   0.228   4.038  2.0455 -0.1609  0.2064
   23MOL    H78 7162   4.038   0.196   3.970 -1.0255 -0.4711  0.8897
   23MOL    H79 7163   3.946   8.380   3.983 -0.4943  1.0560 -1.1007
   23MOL    H80 7164   4.134   8.137   3.824  2.6721 -0.7047  1.6122
   23MOL    H81 7165   3.977   8.180   3.837  0.6541 -1.6079 -1.1542
   23MOL    C82 7166   4.009   7.963   3.853 -0.0085  0.6983 -0.4450
   23MOL    C83 7167   4.103   7.867   3.929 -0.1839  0.1393  0.3557
   23MOL    C84 7168   4.059   7.768   4.021  0.3767  0.6896 -0.7418
   23MOL   Cl85 7169   3.892   7.742   4.051  0.1680  0.0478  0.2235
   23MOL    C86 7170   4.148   7.685   4.097 -0.0768  0.1874  0.7581
   23MOL    C87 7171   4.288   7.696   4.072  0.2806  0.3612 -0.1033
   23MOL    C88 7172   4.337   7.793   3.987 -0.9452  0.2321  0.7750
   23MOL    C89 7173   4.243   7.877   3.915  0.1455  0.1513 -0.5231
   23MOL    C90 7174   4.009   7.930   3.705  0.2505  0.0882  0.0032
   23MOL    H91 7175   3.908   7.948   3.890 -0.7388  2.0866 -1.8464
   23MOL    H92 7176   4.110   7.613   4.169  0.7268  0.1193  1.1259
   23MOL    H93 7177   4.355   7.618   4.104 -1.4260 -0.3299  1.8737
   23MOL    H94 7178   4.443   7.805   3.972 -0.9676  0.9101  1.1331
   23MOL    H95 7179   4.282   7.958   3.855 -2.0609  0.6881 -1.2681
   23MOL    H96 7180   3.979   7.825   3.699 -2.0073  0.8317 -2.5649
   23MOL    H97 7181   4.109   7.936   3.663  1.4071 -0.8185  2.5209
   23MOL    C98 7182   3.917   8.015   3.615  0.2079 -0.0157 -0.5051
   23MOL    C99 7183   3.775   8.026   3.654  0.3447 -0.2971 -0.7157
   23MOL   C100 7184   3.689   7.913   3.674 -0.8361 -0.2583 -0.7728
   23MOL  Cl101 7185   3.741   7.755   3.654  0.1156 -0.2094  0.0449
   23MOL   C102 7186   3.556   7.930   3.709  0.6414  0.1564 -0.1167
   23MOL   C103 7187   3.506   8.057   3.730  0.6971  0.6392 -0.1531
   23MOL   C104 7188   3.586   8.172   3.721 -0.1128 -0.1315  0.2628
   23MOL   C105 7189   3.718   8.158   3.677 -0.0202 -0.0341 -0.6137
   23MOL   C106 7190   3.921   7.985   3.462 -0.1203  0.2235 -0.6429
   23MOL   H107 7191   3.959   8.115   3.626 -1.4340  0.7343 -0.8580
   23MOL   H108 7192   3.493   7.843   3.718  1.0502 -0.1732 -0.3825
   23MOL   H109 7193   3.402   8.065   3.759  0.8976  1.5922  0.3183
   23MOL   H110 7194   3.547   8.272   3.733  0.1350 -0.0876  0.7045
   23MOL   H111 7195   3.779   8.246   3.663 -0.2462  0.4193  1.1360
   23MOL   H112 7196   3.851   8.056   3.419 -0.0089  1.0131  0.4687
   23MOL   H113 7197   3.879   7.885   3.449  0.0485 -0.0426  0.7158
   23MOL   C114 7198   4.061   7.985   3.397  0.6557  0.4969  0.4709
   23MOL   C115 7199   4.053   8.081   3.274  0.2826  0.2095 -0.5182
   23MOL   C116 7200   4.085   8.219   3.289 -0.8017  0.1896 -0.0515
   23MOL  Cl117 7201   4.100   8.296   3.444 -0.2162  0.2033 -0.0379
   23MOL   C118 7202   4.101   8.300   3.179 -1.1439 -0.0425 -0.1556
   23MOL   C119 7203   4.073   8.246   3.051  0.4314 -0.6401  0.0194
   23MOL   C120 7204   4.032   8.112   3.029  0.0329  0.4518 -0.8800
   23MOL   C121 7205   4.016   8.028   3.147  0.2283  0.0305 -0.4413
   23MOL   C122 7206   4.109   7.833   3.374 -0.6276 -0.4093  0.3150
   23MOL   H123 7207   4.139   8.021   3.465  3.4952 -2.3993 -1.1189
   23MOL   H124 7208   4.130   8.400   3.208  2.1626 -0.9274 -0.2884
   23MOL   H125 7209   4.080   8.318   2.970  0.4431  1.4734  1.8381
   23MOL   H126 7210   4.022   8.068   2.931  1.6501  2.5494 -2.0257
   23MOL   H127 7211   3.992   7.923   3.139  1.3315 -0.3818  1.2751
   23MOL   H128 7212   4.076   7.800   3.276 -1.2373  1.2872 -0.0689
   23MOL   H129 7213   4.067   7.771   3.453  1.1006 -2.5664 -0.3992
   23MOL   C130 7214   4.262   7.810   3.391  0.2562  0.1102  0.0020
   23MOL   C131 7215   4.338   7.924   3.328  0.0650  0.4729 -0.2927
   23MOL   C132 7216   4.435   7.993   3.404  1.1225  0.3433  0.2088
   23MOL  Cl133 7217   4.469   7.957   3.571  0.6368 -0.0709 -0.1786
   23MOL   C134 7218   4.512   8.097   3.344 -0.1977  0.4543  0.0545
   23MOL   C135 7219   4.496   8.131   3.204 -0.2373 -0.4514 -1.0762
   23MOL   C136 7220   4.407   8.053   3.131 -0.0726 -0.2184 -0.3403
   23MOL   C137 7221   4.331   7.950   3.189  0.9118 -0.3160  0.2077
   23MOL   C138 7222   4.315   7.683   3.329  0.4728 -0.1805  0.0728
   23MOL   H139 7223   4.294   7.797   3.495 -0.4077 -0.6612  0.1204
   23MOL   H140 7224   4.588   8.153   3.397  0.5625 -1.3112  0.8706
   23MOL   H141 7225   4.569   8.197   3.159 -0.1675 -0.7962 -1.4699
   23MOL   H142 7226   4.398   8.076   3.025 -2.5070  1.1290  0.1190
   23MOL   H143 7227   4.259   7.898   3.126  0.2673  1.6805 -0.7324
   23MOL   H144 7228   4.424   7.680   3.335  0.5567 -2.6365 -1.8898
   23MOL   H145 7229   4.291   7.687   3.223  0.7482 -0.4796 -0.0033
   23MOL   C146 7230   4.257   7.555   3.383  0.4893  0.5289 -0.1796
   23MOL   C147 7231   4.277   7.523   3.533 -0.3384 -0.2253 -0.5415
   23MOL   C148 7232   4.168   7.504   3.629  0.2216 -0.3908  0.2485
   23MOL  Cl149 7233   4.001   7.521   3.579 -0.4364 -0.5283  0.2180
   23MOL   C150 7234   4.192   7.491   3.767  0.7371 -0.0352 -0.3178
   23MOL   C151 7235   4.324   7.495   3.818 -0.2009  0.0962  0.8433
   23MOL   C152 7236   4.433   7.487   3.727  0.5369 -0.2129  0.0513
   23MOL   C153 7237   4.410   7.504   3.585  0.4388 -0.0512  0.1638
   23MOL   C154 7238   4.308   7.438   3.305  0.1110  0.3183 -0.0909
   23MOL   H155 7239   4.150   7.571   3.374  0.4880  0.6378  0.0268
   23MOL   H156 7240   4.107   7.473   3.832 -2.8356  1.3842 -4.4090
   23MOL   H157 7241   4.352   7.473   3.920  2.8177 -0.8023 -0.1105
   23MOL   H158 7242   4.534   7.480   3.765  0.0294 -0.0911  1.4367
   23MOL   H159 7243   4.486   7.511   3.508  2.3874 -1.2225  1.9533
   23MOL   H160 7244   4.298   7.348   3.365 -0.8334  1.4410  1.4543
   23MOL   H161 7245   4.415   7.443   3.284 -0.1843  1.6367 -1.3633
   23MOL   C162 7246   4.223   7.401   3.178 -0.0809  0.0801 -0.1789
   23MOL   C163 7247   4.079   7.392   3.212  0.1151  1.0328  0.1511
   23MOL   C164 7248   3.980   7.478   3.157  0.2326 -0.0541  0.0028
   23MOL  Cl165 7249   4.025   7.610   3.045  0.2093  0.3567 -0.0830
   23MOL   C166 7250   3.845   7.455   3.187  0.1159 -0.7776  0.2295
   23MOL   C167 7251   3.811   7.350   3.274  0.0354  0.2485  0.0136
   23MOL   C168 7252   3.912   7.275   3.339 -0.6456  0.0928  0.0034
   23MOL   C169 7253   4.042   7.292   3.302 -0.2488 -0.5110 -0.1488
   23MOL   C170 7254   4.282   7.275   3.103 -0.1782 -0.3552 -0.2735
   23MOL   H171 7255   4.240   7.490   3.117 -1.6954  1.4140  1.2555
   23MOL   H172 7256   3.769   7.511   3.135  1.9408 -0.1192 -1.7614
   23MOL   H173 7257   3.709   7.315   3.285  0.4730 -0.2332  2.7398
   23MOL   H174 7258   3.884   7.196   3.407  0.5686  0.4837  0.9859
   23MOL   H175 7259   4.114   7.222   3.341 -1.2160 -2.2135 -1.3349
   23MOL   H176 7260   4.201   7.208   3.073 -0.2673 -1.5132  2.4068
   23MOL   H177 7261   4.334   7.209   3.173  1.1306 -0.8487 -1.6742
   23MOL   C178 7262   4.362   7.305   2.977  0.0050  0.5826 -0.6065
   23MOL   C179 7263   4.272   7.361   2.869 -0.3581 -0.2133  0.6228
   23MOL   C180 7264   4.289   7.490   2.815  0.2818  1.0515 -0.0864
   23MOL  Cl181 7265   4.399   7.601   2.893  0.4726  0.2776 -0.2295
   23MOL   C182 7266   4.216   7.533   2.705  0.2807  1.0105  0.3194
   23MOL   C183 7267   4.119   7.445   2.651 -0.6072 -0.4297 -0.8607
   23MOL   C184 7268   4.103   7.318   2.711  0.3866  0.3930  0.1067
   23MOL   C185 7269   4.171   7.280   2.823  0.2069 -0.3567  0.4790
   23MOL   C186 7270   4.460   7.195   2.924 -0.5090  0.1182 -0.4402
   23MOL   H187 7271   4.420   7.382   3.029  0.0769  1.1592 -1.5317
   23MOL   H188 7272   4.230   7.631   2.663 -0.0990  1.1958  0.6225
   23MOL   H189 7273   4.072   7.468   2.556 -3.8113 -1.0336  0.5156
   23MOL   H190 7274   4.025   7.263   2.660 -0.9708  0.8238  1.6782
   23MOL   H191 7275   4.149   7.189   2.877  2.0938 -1.6286 -0.8289
   23MOL   H192 7276   4.491   7.234   2.827  2.3553 -0.3355  0.2353
   23MOL   H193 7277   4.404   7.103   2.910 -0.2636  0.1556 -1.8278
   23MOL   C194 7278   4.581   7.170   3.013  0.3597 -0.1598 -0.3811
   23MOL   C195 7279   4.671   7.292   3.024 -0.5857  0.6684 -0.2971
   23MOL   C196 7280   4.703   7.336   3.156 -0.4022 -0.0577  0.3035
   23MOL  Cl197 7281   4.637   7.264   3.294  0.4004 -0.0002 -0.1754
   23MOL   C198 7282   4.791   7.444   3.180  0.5871  0.3896 -0.2247
   23MOL   C199 7283   4.860   7.501   3.068  0.0268 -0.1389 -0.0620
   23MOL   C200 7284   4.814   7.470   2.932  0.4871 -0.2938 -1.1656
   23MOL   C201 7285   4.713   7.371   2.911 -0.3613 -0.5181 -0.3563
   23MOL   C202 7286   4.658   7.048   2.978 -0.5640  0.4558  0.5307
   23MOL   H203 7287   4.537   7.143   3.108  1.9440 -1.0826  0.1161
   23MOL   H204 7288   4.813   7.471   3.283  1.5076 -1.1463  0.0010
   23MOL   H205 7289   4.936   7.578   3.076  0.4513 -0.5614 -0.0356
   23MOL   H206 7290   4.863   7.530   2.858  2.3870 -1.4992 -0.9238
   23MOL   H207 7291   4.689   7.343   2.809  2.2150 -1.6299 -0.6950
   23MOL   H208 7292   4.744   7.041   3.044  0.1227 -0.4554 -0.4312
   23MOL   H209 7293   4.709   7.060   2.882 -0.8549  0.7474  0.4133
   23MOL   C210 7294   4.564   6.918   2.991 -0.4513  0.0353 -0.3772
   23MOL   C211 7295   4.634   6.802   3.055 -0.1500 -0.4206 -0.6316
   23MOL   C212 7296   4.568   6.718   3.154  0.4578 -0.9959 -0.2271
   23MOL  Cl213 7297   4.396   6.726   3.195 -0.0420 -0.3464  0.1920
   23MOL   C214 7298   4.638   6.604   3.194 -0.1567 -0.1170 -0.2953
   23MOL   C215 7299   4.766   6.573   3.151 -0.7422  0.2605  0.5762
   23MOL   C216 7300   4.833   6.665   3.067 -0.1178  0.2028  0.4502
   23MOL   C217 7301   4.760   6.767   3.011  0.1631  0.3683 -0.2735
   23MOL   C218 7302   4.499   6.874   2.854  0.8271  0.0223  0.1554
   23MOL   H219 7303   4.486   6.942   3.064  0.5134  3.0114 -0.2684
   23MOL   H220 7304   4.590   6.550   3.274 -0.4128  0.4947 -0.0280
   23MOL   H221 7305   4.813   6.484   3.189  0.3746  0.6312  0.0628
   23MOL   H222 7306   4.933   6.650   3.030 -0.5660 -2.5859  0.2875
   23MOL   H223 7307   4.811   6.832   2.941  2.2329  2.0523  2.6821
   23MOL   H224 7308   4.584   6.834   2.799 -0.9823 -2.6158 -0.8737
   23MOL   H225 7309   4.476   6.960   2.791  1.7543 -1.5065 -2.3640
   23MOL   C226 7310   4.374   6.784   2.842  0.7069 -0.5005 -0.5945
   23MOL   C227 7311   4.368   6.727   2.697 -0.0203 -0.2320  0.5568
   23MOL   C228 7312   4.376   6.585   2.675 -0.8334  0.2944  0.5118
   23MOL  Cl229 7313   4.397   6.470   2.801  0.2728  0.0971  0.0983
   23MOL   C230 7314   4.368   6.534   2.541  0.1372  0.3765 -0.8270
   23MOL   C231 7315   4.345   6.625   2.439  0.7151 -0.4187 -0.6843
   23MOL   C232 7316   4.335   6.761   2.462 -0.2653 -0.0792  0.5567
   23MOL   C233 7317   4.354   6.817   2.588 -0.7119 -0.8731 -0.2077
   23MOL   C234 7318   4.247   6.874   2.877 -0.4841 -0.1397 -0.1225
   23MOL   H235 7319   4.380   6.707   2.918 -1.7759 -0.0328  0.1190
   23MOL   H236 7320   4.387   6.430   2.517 -0.4358  0.0031  0.2982
   23MOL   H237 7321   4.333   6.597   2.336  1.8031  0.8003 -1.1439
   23MOL   H238 7322   4.318   6.823   2.375 -1.2766 -0.4390  0.4981
   23MOL   H239 7323   4.339   6.923   2.601  2.2644 -0.5086  0.5933
   23MOL   H240 7324   4.258   6.967   2.821  1.2732 -1.3112 -1.7982
   23MOL   H241 7325   4.251   6.908   2.981 -0.3810 -1.6378  0.3747
   23MOL   C242 7326   4.108   6.813   2.837  0.2015  0.2974  0.2106
   23MOL   C243 7327   3.991   6.912   2.865  0.4070  0.0501  0.1737
   23MOL   C244 7328   3.928   6.987   2.762 -0.4727 -1.5756  0.1880
   23MOL  Cl245 7329   3.971   6.969   2.595  0.1349  0.0090 -0.0955
   23MOL   C246 7330   3.832   7.082   2.790  0.4022  0.8341  0.4098
   23MOL   C247 7331   3.793   7.111   2.924 -0.7594  0.2935 -0.3932
   23MOL   C248 7332   3.857   7.041   3.029  0.1190 -0.3716 -0.4611
   23MOL   C249 7333   3.947   6.935   2.999  0.5092  0.4909 -0.1034
   23MOL   C250 7334   4.073   6.682   2.914  0.3307  0.2056  0.3162
   23MOL   H251 7335   4.105   6.790   2.730 -3.6392 -4.6064  1.2131
   23MOL   H252 7336   3.783   7.130   2.706  0.8648  0.8961  0.1729
   23MOL   H253 7337   3.729   7.195   2.948  0.5622  0.7475  1.7092
   23MOL   H254 7338   3.833   7.068   3.130  0.6266  0.0788 -0.4565
   23MOL   H255 7339   3.992   6.882   3.081  0.6012  0.4018 -0.2107
   23MOL   H256 7340   4.069   6.708   3.020 -1.9318 -0.2486  0.3612
   23MOL   H257 7341   4.163   6.619   2.912  0.1731  0.0123 -1.0434
   23MOL   C258 7342   3.961   6.595   2.851  0.5153 -0.1077 -0.1729
   23MOL   C259 7343   3.883   6.517   2.953  0.2133  0.5571  0.2013
   23MOL   C260 7344   3.750   6.557   2.984 -0.2173  0.2003 -0.9040
   23MOL  Cl261 7345   3.662   6.680   2.910  0.1201 -0.2037  0.2274
   23MOL   C262 7346   3.684   6.490   3.090  0.0299  0.1455 -0.0811
   23MOL   C263 7347   3.747   6.378   3.150 -0.2554  0.3292 -0.4163
   23MOL   C264 7348   3.873   6.338   3.115 -0.0766  0.7682 -0.2915
   23MOL   C265 7349   3.940   6.406   3.015 -0.0222  0.3882 -0.0400
   23MOL   C266 7350   4.011   6.520   2.723 -0.1438 -0.7210  0.8617
   23MOL   H267 7351   3.891   6.669   2.814 -0.0681  0.3743  1.8285
   23MOL   H268 7352   3.585   6.521   3.117 -0.6662 -2.0280 -0.0658
   23MOL   H269 7353   3.710   6.323   3.236  0.0154 -1.4699 -1.4156
   23MOL   H270 7354   3.915   6.257   3.173  1.1636 -0.0395 -2.2493
   23MOL   H271 7355   4.034   6.370   2.976 -1.1185 -1.4823 -1.0377
   23MOL   H272 7356   4.055   6.425   2.751 -0.0207 -1.3424 -1.3196
   23MOL   H273 7357   4.089   6.578   2.673 -0.4192 -2.2466 -1.4164
   23MOL   C274 7358   3.895   6.497   2.628  0.4506  0.1235 -0.2548
   23MOL   C275 7359   3.890   6.360   2.575  0.3635  0.7973  0.4616
   23MOL   C276 7360   3.779   6.267   2.595 -1.1297 -0.1891  0.8854
   23MOL  Cl277 7361   3.646   6.308   2.700 -0.2695  0.1852  0.3984
   23MOL   C278 7362   3.784   6.146   2.517  0.3197 -0.2603 -0.3249
   23MOL   C279 7363   3.897   6.105   2.440  0.0183 -0.2023  0.2433
   23MOL   C280 7364   3.999   6.197   2.426  0.2443 -0.2285 -0.2013
   23MOL   C281 7365   3.999   6.322   2.487  0.4278  0.8564  0.4915
   23MOL   C282 7366   3.878   6.611   2.514 -0.5211 -0.3183  0.0898
   23MOL   H283 7367   3.803   6.510   2.685  1.2358 -1.5556  1.4348
   23MOL   H284 7368   3.693   6.087   2.519 -0.7703  1.3414 -1.6411
   23MOL   H285 7369   3.905   6.015   2.380 -1.1773 -1.3605  1.7952
   23MOL   H286 7370   4.084   6.184   2.361 -0.3719 -3.2225 -0.4583
   23MOL   H287 7371   4.077   6.396   2.473 -0.3673  1.7922  0.8913
   23MOL   H288 7372   3.969   6.615   2.454  1.1917 -4.4072  2.1854
   23MOL   H289 7373   3.872   6.701   2.575  0.3164 -0.1101 -0.1228
   23MOL   C290 7374   3.749   6.598   2.423  0.6580  0.3776  0.2953
   23MOL   C291 7375   3.760   6.679   2.292 -0.0501 -0.2034 -0.7848
   23MOL   C292 7376   3.778   6.615   2.171  0.1392 -0.4946  0.0896
   23MOL  Cl293 7377   3.776   6.438   2.159  0.1830 -0.3495  0.0814
   23MOL   C294 7378   3.815   6.690   2.057 -0.1798 -0.2181  0.9209
   23MOL   C295 7379   3.816   6.829   2.061  0.2483  0.1809 -0.4842
   23MOL   C296 7380   3.796   6.893   2.187 -0.3350  0.4074 -0.1590
   23MOL   C297 7381   3.764   6.819   2.299  0.6326  0.5409  0.3598
   23MOL   C298 7382   3.617   6.629   2.498 -0.1769  0.2910 -1.0366
   23MOL   H299 7383   3.737   6.492   2.403  1.0723  0.3334  0.2753
   23MOL   H300 7384   3.831   6.638   1.964 -0.0588 -2.6050  2.2403
   23MOL   H301 7385   3.856   6.881   1.975 -1.4964 -0.4610 -1.7099
   23MOL   H302 7386   3.815   6.996   2.211 -0.1620 -0.1320  2.1560
   23MOL   H303 7387   3.740   6.871   2.390 -2.2723 -0.2609  0.0767
   23MOL   H304 7388   3.623   6.734   2.527  4.7253 -0.5635  1.5661
   23MOL   H305 7389   3.610   6.563   2.585 -1.4053 -0.4739 -1.6953
   23MOL   C306 7390   3.477   6.616   2.422  0.9013  0.2224 -0.3126
   23MOL   C307 7391   3.363   6.679   2.505 -0.1635  0.3602 -0.1782
   23MOL   C308 7392   3.249   6.730   2.437  0.0109  0.0227 -0.0561
   23MOL  Cl309 7393   3.234   6.720   2.262  0.0047 -0.0341  0.0520
   23MOL   C310 7394   3.140   6.779   2.508 -0.4182  0.0183 -0.2681
   23MOL   C311 7395   3.143   6.776   2.644 -1.0421  0.0335 -0.3383
   23MOL   C312 7396   3.249   6.721   2.715  1.0206  0.7746  0.4419
   23MOL   C313 7397   3.360   6.665   2.642 -0.1526 -0.3365 -0.3492
   23MOL   C314 7398   3.460   6.467   2.410 -0.2214  0.2299 -0.1929
   23MOL   H315 7399   3.494   6.656   2.322 -2.1493 -0.2085 -1.0494
   23MOL   H316 7400   3.059   6.822   2.450 -1.5779 -1.0382  0.5238
   23MOL   H317 7401   3.055   6.811   2.695  0.3990  2.8881  0.3414
   23MOL   H318 7402   3.238   6.705   2.821 -1.6767  0.2382  0.0910
   23MOL   H319 7403   3.444   6.624   2.697 -0.4319  1.8970  1.8190
   23MOL   H320 7404   3.465   6.407   2.502  0.4250 -1.7892 -1.5021
   23MOL   H321 7405   3.531   6.418   2.343  0.6991 -0.7646  1.4691
   23MOL   H322 7406   3.358   6.457   2.372 -0.3390 -2.2271  0.6447
   24MOL     C1 7407   5.503   3.215   1.200 -0.3083 -0.3917 -0.1892
   24MOL     C2 7408   5.467   3.177   1.338  0.5187  0.3054 -0.0080
   24MOL     C3 7409   5.561   3.135   1.438  0.1486 -0.6994 -0.1995
   24MOL    Cl4 7410   5.725   3.129   1.401 -0.0827 -0.1608  0.0472
   24MOL     C5 7411   5.522   3.085   1.562  0.9059  0.4075 -0.1095
   24MOL     C6 7412   5.385   3.073   1.595  0.3033 -0.7324 -0.4764
   24MOL     C7 7413   5.288   3.119   1.505  0.4616 -0.1033 -0.1115
   24MOL     C8 7414   5.331   3.177   1.382  0.7924  0.3876  0.0734
   24MOL     C9 7415   5.408   3.161   1.094  0.0378  0.1741 -0.5317
   24MOL    H10 7416   5.506   3.324   1.205 -1.9981 -0.2710 -1.5339
   24MOL    H11 7417   5.596   3.040   1.627  0.1249 -0.6400  0.0695
   24MOL    H12 7418   5.355   3.035   1.692  0.9895 -2.5952 -0.9680
   24MOL    H13 7419   5.184   3.109   1.534  0.2134  3.4414  0.4779
   24MOL    H14 7420   5.257   3.211   1.312  0.7297 -0.1621 -0.1325
   24MOL    H15 7421   5.432   3.197   0.994  2.1490  1.2883  0.3310
   24MOL    H16 7422   5.305   3.194   1.103 -0.6466 -1.7246 -1.2063
   24MOL    H17 7423   5.605   3.186   1.176  0.8812  3.6866 -0.4999
   24MOL    C18 7424   5.413   3.003   1.094  0.6762 -0.1832 -0.3569
   24MOL    C19 7425   5.555   2.945   1.079 -0.1083  0.6468 -0.0088
   24MOL    C20 7426   5.604   2.864   1.181 -0.6636 -0.0102  0.0565
   24MOL   Cl21 7427   5.504   2.806   1.307 -0.1119 -0.2817  0.2740
   24MOL    C22 7428   5.737   2.822   1.171  0.0471 -0.1857 -0.2413
   24MOL    C23 7429   5.822   2.869   1.064 -0.7067  0.4337  0.4283
   24MOL    C24 7430   5.770   2.961   0.976  0.2869  0.6863 -0.0832
   24MOL    C25 7431   5.633   2.989   0.974  0.0516 -1.0149 -0.0220
   24MOL    C26 7432   5.324   2.937   0.985  0.3200 -0.0732  1.4040
   24MOL    H27 7433   5.385   2.971   1.194  3.1730  1.2422  0.8538
   24MOL    H28 7434   5.786   2.761   1.245  0.3341 -0.2878 -0.5144
   24MOL    H29 7435   5.929   2.849   1.067 -1.1532 -2.3938 -0.6616
   24MOL    H30 7436   5.833   3.007   0.901 -0.5034  2.6287  0.4075
   24MOL    H31 7437   5.590   3.061   0.905  0.0603  1.6390  2.6022
   24MOL    H32 7438   5.374   2.943   0.888  0.0755 -0.4726  1.2535
   24MOL    H33 7439   5.238   3.004   0.979  0.8091  0.5830  1.5931
   24MOL    C34 7440   5.274   2.788   1.002 -0.1434 -0.0606 -0.5437
   24MOL    C35 7441   5.225   2.729   0.873 -0.1715 -0.6170 -1.0764
   24MOL    C36 7442   5.320   2.666   0.785 -0.0094 -0.7045 -0.4126
   24MOL   Cl37 7443   5.494   2.662   0.811 -0.1930  0.3858 -0.3500
   24MOL    C38 7444   5.272   2.611   0.662 -0.1674 -0.1886 -0.2848
   24MOL    C39 7445   5.137   2.626   0.620  1.1506 -0.0219  0.3292
   24MOL    C40 7446   5.049   2.695   0.705  0.4545  0.4839 -0.0949
   24MOL    C41 7447   5.090   2.748   0.833  0.1038 -0.3261 -0.7335
   24MOL    C42 7448   5.186   2.763   1.124  0.7544 -1.1112  0.4654
   24MOL    H43 7449   5.365   2.732   1.025 -1.4813 -1.8026  0.6055
   24MOL    H44 7450   5.344   2.558   0.602  1.2182  0.2329  0.9727
   24MOL    H45 7451   5.110   2.583   0.525  0.9620  2.6844 -0.8976
   24MOL    H46 7452   4.948   2.714   0.671 -0.7527 -1.5854  2.1696
   24MOL    H47 7453   5.025   2.805   0.898 -0.2736 -1.7085  0.1387
   24MOL    H48 7454   5.106   2.837   1.113  1.4177 -0.6268 -1.2605
   24MOL    H49 7455   5.239   2.798   1.213 -2.2242  0.3473  1.7421
   24MOL    C50 7456   5.125   2.623   1.149 -0.3528 -0.2017 -0.0159
   24MOL    C51 7457   5.044   2.631   1.279 -0.8584  0.2230 -0.2604
   24MOL    C52 7458   4.904   2.639   1.284 -0.2193  0.5558  0.1621
   24MOL   Cl53 7459   4.801   2.645   1.144  0.0004  0.2948  0.6021
   24MOL    C54 7460   4.839   2.658   1.406 -0.3480 -0.7775 -0.7990
   24MOL    C55 7461   4.913   2.662   1.523 -0.1199  0.3098  0.2682
   24MOL    C56 7462   5.056   2.651   1.521 -0.1463  0.8041 -0.2206
   24MOL    C57 7463   5.123   2.627   1.398  0.2517  0.8092 -0.2252
   24MOL    C58 7464   5.225   2.501   1.141  0.1704  0.1321  0.6115
   24MOL    H59 7465   5.062   2.604   1.062 -0.0581  0.8567 -0.4763
   24MOL    H60 7466   4.734   2.674   1.425 -0.8806 -2.9148 -1.8856
   24MOL    H61 7467   4.862   2.689   1.614 -1.2584 -1.7709  0.2742
   24MOL    H62 7468   5.101   2.652   1.619 -2.1491  2.4590  0.7358
   24MOL    H63 7469   5.231   2.619   1.404 -0.0202 -2.3911  1.7238
   24MOL    H64 7470   5.310   2.518   1.207  1.0339  2.3614 -1.0491
   24MOL    H65 7471   5.280   2.493   1.048  0.3181 -3.2912  0.8952
   24MOL    C66 7472   5.158   2.364   1.165 -0.3085  0.3681  0.5224
   24MOL    C67 7473   5.243   2.262   1.242 -0.4538 -0.5977  1.0042
   24MOL    C68 7474   5.206   2.200   1.363  0.4457 -0.6830 -0.5298
   24MOL   Cl69 7475   5.067   2.251   1.449  0.1872 -0.0176 -0.0749
   24MOL    C70 7476   5.284   2.096   1.417  0.3971  0.4267  0.4166
   24MOL    C71 7477   5.411   2.066   1.358 -0.5595  0.7038 -0.5186
   24MOL    C72 7478   5.453   2.131   1.240 -0.4133 -0.2589  0.6637
   24MOL    C73 7479   5.368   2.231   1.185 -0.4344  0.4329 -0.0097
   24MOL    C74 7480   5.092   2.303   1.035 -0.4850 -0.0580  0.5591
   24MOL    H75 7481   5.078   2.383   1.237  0.2233  0.7012  1.0197
   24MOL    H76 7482   5.254   2.044   1.507  0.2023  1.9638  1.2658
   24MOL    H77 7483   5.480   1.990   1.393 -0.3430  0.0500 -2.2869
   24MOL    H78 7484   5.543   2.100   1.189 -1.7139 -1.3295 -1.0610
   24MOL    H79 7485   5.402   2.277   1.093  2.3876 -1.7192 -0.1114
   24MOL    H80 7486   5.178   2.268   0.978 -0.9282 -0.7512  0.2990
   24MOL    H81 7487   5.027   2.367   0.974 -0.3259  0.4631  0.9396
   24MOL    C82 7488   5.010   2.174   1.068  0.0897  0.6022  0.3090
   24MOL    C83 7489   5.008   2.079   0.947 -0.3750  0.3153 -0.2237
   24MOL    C84 7490   5.093   1.969   0.937  0.2933  0.2666 -0.3273
   24MOL   Cl85 7491   5.201   1.922   1.062  0.0117  0.1407  0.0164
   24MOL    C86 7492   5.099   1.891   0.821  0.2184  0.4181  0.4188
   24MOL    C87 7493   5.018   1.928   0.713  0.6972 -0.4956  0.2019
   24MOL    C88 7494   4.935   2.043   0.722 -0.7861  0.0726  0.4835
   24MOL    C89 7495   4.933   2.119   0.834 -0.5005  0.0587 -0.3550
   24MOL    C90 7496   4.875   2.223   1.119 -0.3604  0.1886  0.2064
   24MOL    H91 7497   5.054   2.127   1.156 -0.9082  1.3448  1.2174
   24MOL    H92 7498   5.156   1.800   0.808  2.0447  1.6116  0.0266
   24MOL    H93 7499   5.013   1.870   0.622 -2.1947 -1.9497  1.2184
   24MOL    H94 7500   4.884   2.075   0.632  0.6576  3.2018  0.7227
   24MOL    H95 7501   4.873   2.208   0.832  1.2510  1.3849  2.8539
   24MOL    H96 7502   4.838   2.290   1.042 -3.4214 -2.1296 -0.4464
   24MOL    H97 7503   4.897   2.285   1.206  1.8230  1.8664 -1.5078
   24MOL    C98 7504   4.777   2.113   1.162  0.1458 -0.0405  0.4239
   24MOL    C99 7505   4.645   2.184   1.215  0.1088 -0.1300 -0.7443
   24MOL   C100 7506   4.521   2.174   1.143 -0.0086 -0.3503  0.2900
   24MOL  Cl101 7507   4.517   2.104   0.985 -0.0286 -0.3419 -0.0715
   24MOL   C102 7508   4.408   2.231   1.201  0.2354 -0.6242 -0.1275
   24MOL   C103 7509   4.416   2.297   1.326  0.2011 -0.1033 -0.3077
   24MOL   C104 7510   4.539   2.321   1.383  0.0896  0.0634  0.0948
   24MOL   C105 7511   4.657   2.266   1.325  0.0671 -0.3434  0.3473
   24MOL   C106 7512   4.834   2.003   1.261 -0.3175  0.2619  0.7091
   24MOL   H107 7513   4.759   2.059   1.069 -1.9545  2.6432 -0.7895
   24MOL   H108 7514   4.317   2.207   1.146  1.3288 -3.4454 -0.8128
   24MOL   H109 7515   4.329   2.349   1.363  1.2237  2.3222 -1.2009
   24MOL   H110 7516   4.552   2.389   1.465 -1.6568 -1.3465  1.5831
   24MOL   H111 7517   4.755   2.290   1.364  1.2422 -2.5794 -1.1452
   24MOL   H112 7518   4.896   2.046   1.340  0.5450 -0.7522  0.5935
   24MOL   H113 7519   4.896   1.926   1.215 -0.4962  0.0454  0.8300
   24MOL   C114 7520   4.729   1.920   1.343 -0.1530  0.3165  0.3477
   24MOL   C115 7521   4.785   1.833   1.462 -0.5756  0.3322  0.1004
   24MOL   C116 7522   4.820   1.894   1.583 -0.1793  0.6595  0.0887
   24MOL  Cl117 7523   4.786   2.062   1.609 -0.1427 -0.3167 -0.1057
   24MOL   C118 7524   4.870   1.807   1.682 -0.3062 -0.2832 -0.3125
   24MOL   C119 7525   4.905   1.676   1.658  0.1009 -0.0072 -0.7007
   24MOL   C120 7526   4.872   1.611   1.537  0.1522  0.3930  0.1254
   24MOL   C121 7527   4.808   1.696   1.438 -0.3742 -0.3121 -0.0244
   24MOL   C122 7528   4.657   1.830   1.238 -0.2257 -0.1722 -0.1217
   24MOL   H123 7529   4.664   1.992   1.392 -1.6308  0.4721 -1.7412
   24MOL   H124 7530   4.878   1.849   1.782 -0.5834 -0.7199 -0.1082
   24MOL   H125 7531   4.955   1.612   1.729  0.9244 -0.4425 -1.6729
   24MOL   H126 7532   4.896   1.510   1.509  0.0579  0.5003 -0.3485
   24MOL   H127 7533   4.794   1.653   1.340 -0.7816  1.5245 -0.7812
   24MOL   H128 7534   4.727   1.762   1.189 -2.7800 -2.6718 -0.4586
   24MOL   H129 7535   4.633   1.896   1.154 -0.4023 -1.6750 -1.2744
   24MOL   C130 7536   4.530   1.753   1.284  0.3962  0.3493  0.2019
   24MOL   C131 7537   4.473   1.698   1.156 -0.2605  0.1246  0.0754
   24MOL   C132 7538   4.503   1.565   1.113 -0.0261  0.7404  0.0086
   24MOL  Cl133 7539   4.595   1.454   1.203 -0.1423 -0.2965  0.1447
   24MOL   C134 7540   4.459   1.529   0.981 -0.2117 -0.3413 -0.0567
   24MOL   C135 7541   4.393   1.622   0.901 -0.2753  0.6086 -0.1384
   24MOL   C136 7542   4.354   1.745   0.949  0.0916 -0.2678 -0.6417
   24MOL   C137 7543   4.397   1.783   1.070  0.7451  0.1917  0.5196
   24MOL   C138 7544   4.425   1.833   1.371 -0.4658  0.3768  0.2891
   24MOL   H139 7545   4.559   1.663   1.338 -0.6455 -1.1177 -1.6333
   24MOL   H140 7546   4.475   1.431   0.938  2.2824 -0.7129  1.6439
   24MOL   H141 7547   4.368   1.601   0.798 -0.3368  1.8625 -0.3791
   24MOL   H142 7548   4.298   1.812   0.885  0.9260  0.8402 -0.2211
   24MOL   H143 7549   4.362   1.877   1.109  0.9164 -0.4197  2.1977
   24MOL   H144 7550   4.428   1.939   1.346  0.6778 -0.2305 -2.2855
   24MOL   H145 7551   4.469   1.835   1.471 -0.1337  1.6382  0.1269
   24MOL   C146 7552   4.285   1.778   1.375  0.5635  0.6615 -0.1513
   24MOL   C147 7553   4.198   1.865   1.465 -0.3002 -0.5050 -0.4726
   24MOL   C148 7554   4.116   1.971   1.406  0.6835 -0.0334 -0.0658
   24MOL  Cl149 7555   4.125   2.028   1.243  0.2012  0.1859 -0.2171
   24MOL   C150 7556   4.024   2.043   1.490  0.7993 -0.4092 -0.2616
   24MOL   C151 7557   4.011   2.008   1.622  0.4833 -0.2448 -0.2225
   24MOL   C152 7558   4.096   1.911   1.680 -0.0723 -0.0733  0.0035
   24MOL   C153 7559   4.191   1.839   1.601  0.3563 -0.1578 -0.0700
   24MOL   C154 7560   4.270   1.626   1.401  0.5163 -0.1616 -0.0057
   24MOL   H155 7561   4.245   1.789   1.274  0.9490 -0.8849 -0.4706
   24MOL   H156 7562   3.974   2.131   1.450  2.5832  0.6314 -0.2763
   24MOL   H157 7563   3.938   2.054   1.687 -1.4565 -0.6641 -2.0606
   24MOL   H158 7564   4.088   1.883   1.784 -0.2902 -1.2003 -0.3121
   24MOL   H159 7565   4.261   1.772   1.649 -2.0489 -2.0075  0.9902
   24MOL   H160 7566   4.300   1.609   1.504 -1.8661 -0.7149  0.6371
   24MOL   H161 7567   4.330   1.560   1.338 -1.1279  0.4836 -2.3562
   24MOL   C162 7568   4.122   1.583   1.400 -0.0927 -0.0111  0.3683
   24MOL   C163 7569   4.101   1.454   1.473 -0.1653 -0.6814  0.4725
   24MOL   C164 7570   3.987   1.434   1.557  0.2482  0.1478  0.6167
   24MOL  Cl165 7571   3.869   1.560   1.589  0.0992 -0.4701 -0.6455
   24MOL   C166 7572   3.971   1.308   1.622 -0.5941 -0.1709 -0.1134
   24MOL   C167 7573   4.057   1.199   1.597 -0.1068  0.0608 -0.2004
   24MOL   C168 7574   4.175   1.227   1.528  0.5076 -0.4651  0.4448
   24MOL   C169 7575   4.193   1.348   1.459 -0.6683 -0.0857  0.9033
   24MOL   C170 7576   4.064   1.576   1.259 -0.5806 -0.1189 -0.6467
   24MOL   H171 7577   4.062   1.660   1.448  0.6093  0.8568 -0.1330
   24MOL   H172 7578   3.890   1.305   1.693  1.0029  1.9815  1.8711
   24MOL   H173 7579   4.042   1.105   1.649  1.0518  0.2863  0.5716
   24MOL   H174 7580   4.248   1.148   1.537  2.5607  1.5303  1.9606
   24MOL   H175 7581   4.279   1.367   1.396 -0.7122  0.3698  0.9732
   24MOL   H176 7582   4.109   1.484   1.220  2.9910  2.2698 -2.4325
   24MOL   H177 7583   4.104   1.654   1.194  1.1821  0.7880  1.4298
   24MOL   C178 7584   3.912   1.556   1.233 -0.0614  0.2200 -0.5357
   24MOL   C179 7585   3.884   1.464   1.118 -0.3120  0.8638 -0.5637
   24MOL   C180 7586   3.830   1.330   1.142 -0.5520  0.3134  0.6808
   24MOL  Cl181 7587   3.808   1.270   1.300 -0.1241  0.0071 -0.1721
   24MOL   C182 7588   3.789   1.255   1.033  0.1600 -0.0534  0.2200
   24MOL   C183 7589   3.823   1.301   0.902  0.1459  0.5590  0.5868
   24MOL   C184 7590   3.877   1.423   0.881 -0.8960 -0.5214 -0.2408
   24MOL   C185 7591   3.896   1.510   0.987  0.1241 -0.2022  0.9710
   24MOL   C186 7592   3.842   1.693   1.226 -0.1757 -0.8365  0.1327
   24MOL   H187 7593   3.873   1.511   1.325 -0.6106  0.1023 -0.8279
   24MOL   H188 7594   3.761   1.151   1.034  2.0526 -0.5743  1.5862
   24MOL   H189 7595   3.796   1.231   0.824 -0.3348 -1.3649  2.4070
   24MOL   H190 7596   3.882   1.454   0.778  0.0719 -1.3033 -0.4371
   24MOL   H191 7597   3.929   1.611   0.966  0.3991  0.3831  3.9169
   24MOL   H192 7598   3.844   1.732   1.124 -3.1398 -1.5762 -0.2384
   24MOL   H193 7599   3.896   1.764   1.288  0.2421 -1.6229  0.6802
   24MOL   C194 7600   3.697   1.698   1.286  0.9836 -0.5371  0.2402
   24MOL   C195 7601   3.598   1.620   1.203  0.3680  0.4160 -0.0675
   24MOL   C196 7602   3.500   1.536   1.263 -1.2581  0.0566 -0.3198
   24MOL  Cl197 7603   3.490   1.505   1.440 -0.1374 -0.0800 -0.4975
   24MOL   C198 7604   3.409   1.468   1.175  0.7508  0.1267 -0.2434
   24MOL   C199 7605   3.422   1.478   1.035 -0.5773  0.3293  0.1534
   24MOL   C200 7606   3.508   1.567   0.981  0.0172  1.1795 -0.1823
   24MOL   C201 7607   3.601   1.636   1.060  0.0899  0.0432  0.2166
   24MOL   C202 7608   3.655   1.848   1.299 -0.3060 -0.1292  0.1124
   24MOL   H203 7609   3.712   1.649   1.382 -0.1690 -1.3956 -0.0095
   24MOL   H204 7610   3.328   1.405   1.208 -1.3057  1.9128 -1.7531
   24MOL   H205 7611   3.341   1.438   0.975 -1.8267  0.6342  1.5977
   24MOL   H206 7612   3.505   1.576   0.873  3.3243 -1.3004 -0.5777
   24MOL   H207 7613   3.670   1.699   1.005  1.1191 -0.5730  0.7905
   24MOL   H208 7614   3.634   1.878   1.196  1.2990 -0.2191 -0.2609
   24MOL   H209 7615   3.742   1.909   1.320 -0.7019  0.7638 -0.7963
   24MOL   C210 7616   3.549   1.889   1.398  0.3793  0.1419  0.0515
   24MOL   C211 7617   3.520   2.044   1.396 -0.0922  0.1990  0.2502
   24MOL   C212 7618   3.429   2.093   1.299  0.0992 -0.0274 -0.3704
   24MOL  Cl213 7619   3.359   1.997   1.177  0.2529  0.3213 -0.3216
   24MOL   C214 7620   3.396   2.229   1.304 -0.4339 -0.0930  0.3900
   24MOL   C215 7621   3.458   2.318   1.387 -0.5623 -0.3437 -0.5497
   24MOL   C216 7622   3.559   2.276   1.473 -0.5017 -0.5987 -0.4677
   24MOL   C217 7623   3.590   2.138   1.476 -0.1532 -0.5953  1.1146
   24MOL   C218 7624   3.594   1.839   1.543  0.0154  0.7838  0.4202
   24MOL   H219 7625   3.455   1.848   1.360  0.0491  1.3964 -0.5011
   24MOL   H220 7626   3.308   2.256   1.248 -0.6390  0.2533  0.8682
   24MOL   H221 7627   3.415   2.417   1.381 -0.9052 -0.5086 -0.8367
   24MOL   H222 7628   3.612   2.342   1.540 -3.4884  3.5251 -1.9480
   24MOL   H223 7629   3.673   2.108   1.539 -0.4131 -3.9633 -0.0207
   24MOL   H224 7630   3.694   1.875   1.569  0.5814 -0.5897  0.1633
   24MOL   H225 7631   3.609   1.731   1.539  0.9840  0.9088  0.5151
   24MOL   C226 7632   3.502   1.877   1.664  0.2254 -0.3904  0.2472
   24MOL   C227 7633   3.584   1.888   1.795  0.4961 -0.2013 -0.3325
   24MOL   C228 7634   3.568   2.002   1.882  0.2389  0.0298 -0.5928
   24MOL  Cl229 7635   3.448   2.126   1.846 -0.3896 -0.2905 -0.1437
   24MOL   C230 7636   3.652   2.013   1.997 -0.3111 -0.1244  0.1335
   24MOL   C231 7637   3.739   1.906   2.033 -0.2553  0.4036 -0.4470
   24MOL   C232 7638   3.758   1.798   1.952  0.1719  0.3226 -0.3624
   24MOL   C233 7639   3.678   1.784   1.832 -0.8005  0.5719 -0.6888
   24MOL   C234 7640   3.385   1.778   1.674 -0.2399  0.4305  0.4692
   24MOL   H235 7641   3.460   1.976   1.647 -0.9281 -1.0419 -0.8018
   24MOL   H236 7642   3.647   2.089   2.073 -0.7252 -0.8765  0.8627
   24MOL   H237 7643   3.799   1.912   2.123  2.6867  0.8538 -2.3627
   24MOL   H238 7644   3.825   1.717   1.976 -0.2909  0.2290  0.6673
   24MOL   H239 7645   3.702   1.696   1.774  0.0991  0.6485 -0.4540
   24MOL   H240 7646   3.422   1.680   1.644  2.3226  0.3431  3.6551
   24MOL   H241 7647   3.319   1.816   1.595 -0.1950  2.4931  1.4141
   24MOL   C242 7648   3.302   1.768   1.806 -0.4564  0.7407  0.5052
   24MOL   C243 7649   3.373   1.685   1.913  0.3444 -0.4397  0.1480
   24MOL   C244 7650   3.401   1.730   2.044  0.2179  0.8871  0.1073
   24MOL  Cl245 7651   3.346   1.881   2.100  0.1679 -0.3200  0.3202
   24MOL   C246 7652   3.464   1.647   2.140  0.1374  0.3441  0.3858
   24MOL   C247 7653   3.502   1.518   2.099 -0.3904  0.1254  0.2124
   24MOL   C248 7654   3.471   1.463   1.972  0.1206  0.5463  0.3714
   24MOL   C249 7655   3.406   1.546   1.882  0.7094  0.0056 -0.3079
   24MOL   C250 7656   3.158   1.724   1.785  0.3172 -0.0756  0.1487
   24MOL   H251 7657   3.295   1.873   1.834  1.9958  1.4622 -1.4202
   24MOL   H252 7658   3.486   1.674   2.242  0.1400  0.0810  0.4558
   24MOL   H253 7659   3.554   1.445   2.160 -1.1028 -1.7710 -1.4078
   24MOL   H254 7660   3.520   1.370   1.946 -0.5235 -0.0180  1.1631
   24MOL   H255 7661   3.375   1.508   1.786  0.4744 -0.9764  0.1457
   24MOL   H256 7662   3.107   1.713   1.881  0.4483  0.8145  0.3246
   24MOL   H257 7663   3.160   1.624   1.744 -4.0598 -1.3507  2.6820
   24MOL   C258 7664   3.061   1.791   1.683  0.0175 -0.7439  0.4391
   24MOL   C259 7665   3.083   1.947   1.673  0.0367  0.3026  0.1298
   24MOL   C260 7666   3.118   2.009   1.551 -0.1918 -0.0042  0.3794
   24MOL  Cl261 7667   3.121   1.925   1.398  0.1938  0.0882  0.0157
   24MOL   C262 7668   3.156   2.141   1.545  0.1293 -0.8770  0.1590
   24MOL   C263 7669   3.124   2.224   1.657  0.3225 -0.0099  0.8274
   24MOL   C264 7670   3.087   2.169   1.779 -0.2000  0.6375  0.3455
   24MOL   C265 7671   3.069   2.025   1.788 -1.0310  0.1687 -0.9426
   24MOL   C266 7672   2.912   1.750   1.720 -0.0931 -0.1744  0.2216
   24MOL   H267 7673   3.081   1.749   1.585 -2.0598  1.5885 -1.0576
   24MOL   H268 7674   3.192   2.184   1.452  0.4321 -0.4936  0.4544
   24MOL   H269 7675   3.141   2.331   1.655  1.7168 -0.1805  2.5543
   24MOL   H270 7676   3.089   2.233   1.866 -1.3347 -2.8756  3.0583
   24MOL   H271 7677   3.043   1.985   1.885  0.3893 -0.1065 -0.6721
   24MOL   H272 7678   2.851   1.810   1.652 -0.4860  0.6416  1.2762
   24MOL   H273 7679   2.886   1.789   1.818  1.4659  1.4839 -0.0057
   24MOL   C274 7680   2.881   1.600   1.688  0.2542 -0.4597 -0.1304
   24MOL   C275 7681   2.935   1.553   1.557  0.1018  0.9613 -1.1175
   24MOL   C276 7682   3.032   1.446   1.548 -0.1265  0.2140 -0.0960
   24MOL  Cl277 7683   3.100   1.368   1.688 -0.4313 -0.1159 -0.4487
   24MOL   C278 7684   3.071   1.407   1.418  0.1732 -0.2496  0.1902
   24MOL   C279 7685   3.021   1.465   1.302  0.3964  0.1009 -0.3721
   24MOL   C280 7686   2.928   1.567   1.313  0.1234  0.0630  0.4569
   24MOL   C281 7687   2.886   1.612   1.438  0.8692  0.3305  0.3803
   24MOL   C282 7688   2.732   1.563   1.708  0.0101  0.1848  0.2956
   24MOL   H283 7689   2.937   1.543   1.761  0.6854 -1.1021 -0.9636
   24MOL   H284 7690   3.145   1.327   1.415  0.7703  0.2148  1.6890
   24MOL   H285 7691   3.061   1.430   1.208 -2.8106 -0.1584 -1.6936
   24MOL   H286 7692   2.889   1.601   1.218  2.4193 -1.1131 -0.9668
   24MOL   H287 7693   2.799   1.677   1.441 -0.4773 -1.4776  1.1556
   24MOL   H288 7694   2.711   1.468   1.658 -2.0911  1.6781 -1.8035
   24MOL   H289 7695   2.669   1.634   1.654  0.5072  0.9497  0.7056
   24MOL   C290 7696   2.693   1.564   1.856  0.5091  0.0179  0.3568
   24MOL   C291 7697   2.751   1.435   1.918  0.0980  0.6528  0.3244
   24MOL   C292 7698   2.865   1.441   2.001  0.6134 -0.2136 -0.0778
   24MOL  Cl293 7699   2.938   1.588   2.055 -0.0426 -0.2388  0.1850
   24MOL   C294 7700   2.935   1.324   2.034 -0.0837  0.5078  0.0045
   24MOL   C295 7701   2.888   1.199   1.990 -0.2560  0.1142  0.1896
   24MOL   C296 7702   2.762   1.193   1.926 -0.1593  0.6532 -0.0915
   24MOL   C297 7703   2.693   1.307   1.889 -0.4817  0.0266  0.6890
   24MOL   C298 7704   2.547   1.580   1.900  0.7070 -0.1495  0.3337
   24MOL   H299 7705   2.749   1.647   1.899 -0.5385  1.8559 -1.7752
   24MOL   H300 7706   3.019   1.329   2.101  0.2362  2.0336 -0.4806
   24MOL   H301 7707   2.949   1.113   2.013 -0.4470 -0.5148 -1.6005
   24MOL   H302 7708   2.739   1.090   1.905  3.8259 -0.5651  1.0785
   24MOL   H303 7709   2.609   1.303   1.822  1.1432  1.4177 -1.5501
   24MOL   H304 7710   2.559   1.555   2.006 -0.1206 -1.2812  0.1700
   24MOL   H305 7711   2.490   1.495   1.863 -0.7508  0.5045  1.0236
   24MOL   C306 7712   2.473   1.717   1.873  0.0131  0.4362  0.2566
   24MOL   C307 7713   2.571   1.832   1.898 -0.5309  0.2223  0.3989
   24MOL   C308 7714   2.600   1.927   1.798 -0.0881  0.4281  0.4333
   24MOL  Cl309 7715   2.543   1.908   1.641  0.1531 -0.0487 -0.2016
   24MOL   C310 7716   2.704   2.020   1.819 -0.0733 -0.6115  0.4721
   24MOL   C311 7717   2.769   2.024   1.945 -0.1046  0.2018  0.6389
   24MOL   C312 7718   2.735   1.935   2.045  0.8005 -0.1623 -0.6632
   24MOL   C313 7719   2.628   1.845   2.027 -0.0382  0.9981 -0.0750
   24MOL   C314 7720   2.355   1.723   1.966  0.5715  0.3177  0.0154
   24MOL   H315 7721   2.437   1.713   1.770 -0.0191 -2.0187  0.3112
   24MOL   H316 7722   2.732   2.088   1.740  1.8726 -1.2162  0.6271
   24MOL   H317 7723   2.852   2.092   1.957 -1.2597  1.7856 -0.0246
   24MOL   H318 7724   2.786   1.945   2.140 -2.9033 -0.2871  1.4289
   24MOL   H319 7725   2.598   1.778   2.106 -0.2163  1.2269  0.0519
   24MOL   H320 7726   2.288   1.802   1.932  1.2995  0.6802 -0.5877
   24MOL   H321 7727   2.378   1.740   2.071 -1.0982  2.2051  0.1044
   24MOL   H322 7728   2.302   1.628   1.968 -1.3134  1.3340  0.0560
   25MOL     C1 7729   1.695   7.225   1.068  0.3429  0.0604  0.3950
   25MOL     C2 7730   1.665   7.095   1.146  0.1801 -0.0302  0.5819
   25MOL     C3 7731   1.534   7.066   1.200  0.1218 -0.3162  0.0603
   25MOL    Cl4 7732   1.417   7.190   1.228 -0.1041  0.2356 -0.2774
   25MOL     C5 7733   1.517   6.944   1.261  0.5804  1.2484  0.0607
   25MOL     C6 7734   1.617   6.844   1.267  0.3330 -0.3967 -0.4812
   25MOL     C7 7735   1.742   6.869   1.207 -0.3024 -0.3449  0.0396
   25MOL     C8 7736   1.768   6.998   1.158 -0.4698  0.1606 -0.0158
   25MOL     C9 7737   1.739   7.344   1.163 -0.8917  0.0211 -0.2342
   25MOL    H10 7738   1.771   7.199   0.994  0.0405  0.3098 -0.0015
   25MOL    H11 7739   1.422   6.932   1.311  1.0883  1.8933  1.1971
   25MOL    H12 7740   1.601   6.762   1.335  0.1671  0.8714  1.0445
   25MOL    H13 7741   1.825   6.799   1.205 -0.3881 -0.4141 -1.9279
   25MOL    H14 7742   1.868   7.017   1.124 -0.1265  0.0776  0.9351
   25MOL    H15 7743   1.805   7.304   1.239 -0.3922  3.8869  1.4654
   25MOL    H16 7744   1.651   7.363   1.223 -0.6699 -3.7683  1.4240
   25MOL    H17 7745   1.612   7.246   1.001  0.2146 -0.6330  0.3399
   25MOL    C18 7746   1.808   7.468   1.106 -0.5541  0.1827 -0.1210
   25MOL    C19 7747   1.941   7.436   1.030 -0.6973  0.0917 -0.0193
   25MOL    C20 7748   2.064   7.405   1.103 -0.5633 -0.8758 -0.2940
   25MOL   Cl21 7749   2.086   7.421   1.272  0.2346 -0.3364  0.4718
   25MOL    C22 7750   2.173   7.358   1.038 -0.3596  0.2558 -0.5458
   25MOL    C23 7751   2.182   7.360   0.902  0.2230  0.3257 -0.1393
   25MOL    C24 7752   2.064   7.378   0.825 -0.0158  0.1298 -0.0264
   25MOL    C25 7753   1.945   7.417   0.887  0.3881 -0.0728  0.0401
   25MOL    C26 7754   1.801   7.589   1.206 -0.1747  0.1638  0.8076
   25MOL    H27 7755   1.738   7.503   1.030  1.0753 -0.5310 -2.0111
   25MOL    H28 7756   2.268   7.341   1.086  0.3907  0.4136 -1.9837
   25MOL    H29 7757   2.275   7.330   0.857  0.4012  0.4101  0.1729
   25MOL    H30 7758   2.057   7.355   0.719 -2.4123 -1.1988  0.3563
   25MOL    H31 7759   1.861   7.437   0.823  1.3023 -1.0977 -1.4917
   25MOL    H32 7760   1.854   7.567   1.299  0.0537 -0.2796  0.5743
   25MOL    H33 7761   1.695   7.602   1.226 -0.1937  0.3683  0.5847
   25MOL    C34 7762   1.848   7.725   1.151  0.0028  0.5891 -0.4810
   25MOL    C35 7763   1.999   7.755   1.181  0.0961 -1.1574 -0.2970
   25MOL    C36 7764   2.098   7.777   1.078 -0.5659 -0.8113  0.1404
   25MOL   Cl37 7765   2.060   7.751   0.906 -0.0494  0.0769 -0.1647
   25MOL    C38 7766   2.229   7.810   1.109 -0.0568 -0.7874  0.1883
   25MOL    C39 7767   2.264   7.831   1.245 -0.1463  0.3485 -0.3577
   25MOL    C40 7768   2.177   7.794   1.350  0.1155 -0.8092 -0.9356
   25MOL    C41 7769   2.042   7.765   1.309 -0.1231  0.4601 -0.3169
   25MOL    C42 7770   1.759   7.847   1.199  0.4854  0.3159 -0.6737
   25MOL    H43 7771   1.834   7.716   1.043 -0.8168 -1.6501 -0.2132
   25MOL    H44 7772   2.299   7.828   1.029  0.3224 -2.3926  0.1469
   25MOL    H45 7773   2.366   7.852   1.275  0.4892 -1.3133 -1.3258
   25MOL    H46 7774   2.211   7.812   1.451 -1.4330  1.3890 -0.7742
   25MOL    H47 7775   1.965   7.748   1.383  0.0535 -0.4678 -0.3349
   25MOL    H48 7776   1.801   7.947   1.187  0.4749  0.6789  2.0252
   25MOL    H49 7777   1.755   7.846   1.308  2.3693 -1.7138 -0.5962
   25MOL    C50 7778   1.624   7.845   1.121  0.6509  0.2215 -0.2555
   25MOL    C51 7779   1.654   7.928   0.991  0.3149  0.4408 -0.0802
   25MOL    C52 7780   1.692   7.874   0.865  0.4789  0.0515 -0.5083
   25MOL   Cl53 7781   1.674   7.707   0.832 -0.1637 -0.1069 -0.0095
   25MOL    C54 7782   1.715   7.961   0.756 -0.0854 -0.1476 -0.0328
   25MOL    C55 7783   1.712   8.099   0.773 -0.2568  0.3258 -0.5289
   25MOL    C56 7784   1.683   8.153   0.894  0.4492 -0.1192  0.0567
   25MOL    C57 7785   1.654   8.068   1.004 -0.1411  0.2579  0.3022
   25MOL    C58 7786   1.509   7.894   1.204 -0.4829  0.1871  0.0846
   25MOL    H59 7787   1.590   7.749   1.084 -3.1180  1.8642 -1.2661
   25MOL    H60 7788   1.736   7.918   0.658 -0.7956 -1.0895  0.2217
   25MOL    H61 7789   1.729   8.162   0.687  0.6358  0.6685 -0.1081
   25MOL    H62 7790   1.689   8.260   0.903 -1.7142 -0.0181  0.3615
   25MOL    H63 7791   1.627   8.131   1.087 -3.2107  1.0495 -1.2135
   25MOL    H64 7792   1.529   7.989   1.253 -0.4216 -0.0659  0.5595
   25MOL    H65 7793   1.502   7.827   1.290 -0.6992 -1.1745 -0.9763
   25MOL    C66 7794   1.367   7.901   1.146 -0.5997 -0.0213  0.0049
   25MOL    C67 7795   1.283   7.991   1.247 -0.2300 -0.2708  0.3563
   25MOL    C68 7796   1.222   8.113   1.207  0.1737 -0.0370 -0.6043
   25MOL   Cl69 7797   1.216   8.165   1.037 -0.0128  0.3704  0.0544
   25MOL    C70 7798   1.158   8.194   1.300 -0.1029 -0.2867  0.4887
   25MOL    C71 7799   1.141   8.153   1.436  0.7368 -0.6004 -0.5496
   25MOL    C72 7800   1.193   8.030   1.469  0.2302  0.0983 -0.8360
   25MOL    C73 7801   1.262   7.950   1.382  0.0703  0.2395  1.0373
   25MOL    C74 7802   1.308   7.761   1.134  0.0528  0.3573  0.3360
   25MOL    H75 7803   1.361   7.951   1.049 -1.0438  0.2453  0.1662
   25MOL    H76 7804   1.124   8.293   1.272 -1.3033 -0.0975  2.4666
   25MOL    H77 7805   1.093   8.213   1.512  1.4584 -1.2794  0.4404
   25MOL    H78 7806   1.184   7.988   1.568 -0.9767  1.7720 -0.2179
   25MOL    H79 7807   1.297   7.854   1.415  1.1911 -0.1138 -1.0480
   25MOL    H80 7808   1.314   7.711   1.231  1.0180 -0.1981 -0.0034
   25MOL    H81 7809   1.374   7.701   1.071 -1.4952 -1.6509  0.5385
   25MOL    C82 7810   1.171   7.757   1.062  0.0310 -0.4050  0.1760
   25MOL    C83 7811   1.073   7.660   1.122  0.2562  0.0230 -0.3651
   25MOL    C84 7812   0.941   7.705   1.153 -0.0102  0.1899 -0.0654
   25MOL   Cl85 7813   0.878   7.855   1.118 -0.1443  0.0758 -0.1236
   25MOL    C86 7814   0.855   7.618   1.225  0.1856  0.8185 -0.5094
   25MOL    C87 7815   0.896   7.492   1.269 -0.2876  0.5096  0.4792
   25MOL    C88 7816   1.024   7.446   1.238  0.0934  0.4613  0.2400
   25MOL    C89 7817   1.110   7.534   1.163  0.2842  0.3186 -0.1264
   25MOL    C90 7818   1.154   7.759   0.903 -0.2845  0.0166  0.3856
   25MOL    H91 7819   1.128   7.850   1.099 -0.9529 -1.0922  0.7738
   25MOL    H92 7820   0.755   7.651   1.251 -0.6164 -0.5844 -1.7379
   25MOL    H93 7821   0.843   7.429   1.338  0.8821  0.4492  1.3377
   25MOL    H94 7822   1.048   7.342   1.259 -3.0305 -0.9295 -2.5966
   25MOL    H95 7823   1.205   7.504   1.121  0.0971 -1.1739  0.4642
   25MOL    H96 7824   1.248   7.796   0.863 -0.5685  0.2528 -0.0661
   25MOL    H97 7825   1.087   7.842   0.877 -0.3016 -0.0846  0.1134
   25MOL    C98 7826   1.110   7.634   0.814  0.0055  0.2352 -0.6766
   25MOL    C99 7827   1.211   7.523   0.825 -0.6922 -0.3915  0.0657
   25MOL   C100 7828   1.163   7.389   0.832  0.3631  0.3212  0.0264
   25MOL  Cl101 7829   0.993   7.358   0.841  0.5427  0.2057  0.1577
   25MOL   C102 7830   1.252   7.286   0.830 -0.3787 -0.2359  0.0820
   25MOL   C103 7831   1.389   7.307   0.823 -0.1251  0.5102  0.2993
   25MOL   C104 7832   1.435   7.438   0.818 -0.1500  0.4559 -0.4043
   25MOL   C105 7833   1.352   7.547   0.819  0.3162 -1.0909  0.3586
   25MOL   C106 7834   1.094   7.666   0.666 -0.2441  0.1819 -0.2936
   25MOL   H107 7835   1.012   7.602   0.848  0.3828 -2.2216 -1.8118
   25MOL   H108 7836   1.228   7.183   0.852 -1.0162 -0.7381 -2.6933
   25MOL   H109 7837   1.459   7.226   0.812 -0.3803  0.5890 -2.0754
   25MOL   H110 7838   1.542   7.451   0.821  0.4371 -3.4249 -1.1431
   25MOL   H111 7839   1.396   7.645   0.808 -0.5489 -0.6725  0.5906
   25MOL   H112 7840   1.086   7.576   0.606 -0.9088  2.4832 -3.8352
   25MOL   H113 7841   1.183   7.716   0.626 -0.5775  1.6605  0.7786
   25MOL   C114 7842   0.971   7.749   0.637 -0.1873  0.6637  0.0675
   25MOL   C115 7843   0.835   7.687   0.666 -0.3751  0.2626  0.1835
   25MOL   C116 7844   0.721   7.769   0.683  0.0406 -0.3296  0.4307
   25MOL  Cl117 7845   0.745   7.934   0.709 -0.0816 -0.0206 -0.2477
   25MOL   C118 7846   0.585   7.716   0.686  0.0037  1.0679 -0.4135
   25MOL   C119 7847   0.570   7.575   0.669 -0.2540 -0.3518  0.9900
   25MOL   C120 7848   0.682   7.494   0.652 -0.0356 -0.1351  0.9274
   25MOL   C121 7849   0.809   7.551   0.651 -0.3844  0.6955 -0.2514
   25MOL   C122 7850   0.977   7.811   0.495  0.4530  0.5460  0.8467
   25MOL   H123 7851   0.984   7.834   0.705 -2.4179  0.7317  0.4527
   25MOL   H124 7852   0.495   7.774   0.691 -1.9501 -1.9167  0.2428
   25MOL   H125 7853   0.472   7.530   0.660 -0.3434  0.0856 -0.3315
   25MOL   H126 7854   0.672   7.392   0.617 -1.5729  0.4732 -0.4485
   25MOL   H127 7855   0.892   7.484   0.631  0.3016  0.8643  1.8333
   25MOL   H128 7856   0.890   7.878   0.494 -1.1434 -1.4682 -1.1919
   25MOL   H129 7857   0.958   7.733   0.422  1.7422  0.9129  0.1039
   25MOL   C130 7858   1.097   7.897   0.448  0.7504  0.2069  0.2530
   25MOL   C131 7859   1.122   8.005   0.553  0.0658 -0.0777 -0.2497
   25MOL   C132 7860   1.243   8.025   0.623 -0.0293 -0.2563  0.4650
   25MOL  Cl133 7861   1.386   7.926   0.596 -0.6226 -0.4839 -0.0654
   25MOL   C134 7862   1.271   8.130   0.711  0.4615 -0.3644  0.1721
   25MOL   C135 7863   1.166   8.229   0.736 -0.3973  0.1356  0.1765
   25MOL   C136 7864   1.049   8.215   0.659 -0.4137 -0.2882  0.3369
   25MOL   C137 7865   1.027   8.109   0.569 -0.3358  0.3793 -0.3806
   25MOL   C138 7866   1.081   7.962   0.311 -0.6303  0.1745  0.1385
   25MOL   H139 7867   1.179   7.827   0.432  0.4203 -0.3054  0.7769
   25MOL   H140 7868   1.363   8.144   0.766  1.8221 -1.6154 -1.7333
   25MOL   H141 7869   1.171   8.317   0.798  1.7424  1.2348 -1.5269
   25MOL   H142 7870   0.976   8.293   0.673  0.3314  0.4509  0.1633
   25MOL   H143 7871   0.936   8.107   0.512 -1.8335 -0.2870  1.9391
   25MOL   H144 7872   1.158   8.039   0.311  3.8960 -4.1578  0.3507
   25MOL   H145 7873   0.985   8.015   0.312  0.5533  2.3635  2.2094
   25MOL   C146 7874   1.111   7.889   0.174  0.6045 -0.1318 -0.9248
   25MOL   C147 7875   1.249   7.817   0.186  0.4362 -0.1921 -0.3916
   25MOL   C148 7876   1.260   7.680   0.155  0.5095  0.3178 -0.2291
   25MOL  Cl149 7877   1.124   7.587   0.108 -0.3700  0.7360  0.2886
   25MOL   C150 7878   1.384   7.623   0.165 -0.2667  0.8128 -0.3104
   25MOL   C151 7879   1.499   7.688   0.217  0.5214  0.6914 -0.3836
   25MOL   C152 7880   1.492   7.823   0.234  0.1114 -1.1594  0.8526
   25MOL   C153 7881   1.367   7.890   0.222  0.6967 -0.5360  0.2399
   25MOL   C154 7882   1.095   7.985   0.058  0.0803 -0.2077 -0.0073
   25MOL   H155 7883   1.034   7.813   0.167 -2.0283  2.5534 -2.3882
   25MOL   H156 7884   1.394   7.515   0.160 -2.3877  0.5364  0.7583
   25MOL   H157 7885   1.595   7.639   0.227 -0.0336 -0.8011 -2.0630
   25MOL   H158 7886   1.571   7.889   0.265  0.9069 -1.8435  0.3171
   25MOL   H159 7887   1.365   7.997   0.239 -0.6396 -0.6832  1.1352
   25MOL   H160 7888   1.165   7.956   8.400 -0.5190 -1.4337 -0.1077
   25MOL   H161 7889   1.130   8.084   0.087  1.0445 -0.5779  0.1239
   25MOL   C162 7890   0.947   8.009   0.021 -0.2605 -0.1757 -0.7321
   25MOL   C163 7891   0.873   7.885   8.397  0.4859  0.2060  0.6271
   25MOL   C164 7892   0.729   7.867   8.410  0.6764 -0.7987 -0.2445
   25MOL  Cl165 7893   0.631   7.970   0.082  0.4081  0.2535 -0.1219
   25MOL   C166 7894   0.667   7.756   8.352 -0.3411  0.1120  0.0867
   25MOL   C167 7895   0.732   7.670   8.263 -0.1615 -0.3847 -0.9287
   25MOL   C168 7896   0.873   7.683   8.249  0.2282 -0.4849 -0.1109
   25MOL   C169 7897   0.935   7.790   8.317  0.1830  0.4985 -0.3724
   25MOL   C170 7898   0.932   8.122   8.338 -0.1150  0.4271 -0.3422
   25MOL   H171 7899   0.904   8.044   0.115 -2.6290 -4.5679 -0.0568
   25MOL   H172 7900   0.561   7.739   8.364 -0.0291 -1.0639  1.3195
   25MOL   H173 7901   0.676   7.592   8.212 -2.1004 -0.0215  0.6041
   25MOL   H174 7902   0.929   7.625   8.177  0.3914  1.4511 -1.6029
   25MOL   H175 7903   1.043   7.789   8.313  0.1547 -0.4915 -1.1275
   25MOL   H176 7904   0.828   8.131   8.306 -0.9217 -3.8150  0.7086
   25MOL   H177 7905   0.991   8.101   8.249  3.6939  0.9374  1.9694
   25MOL   C178 7906   0.987   8.263   8.385  0.1758 -0.3446 -0.0651
   25MOL   C179 7907   0.921   8.302   0.096 -0.2685  0.0870 -0.5817
   25MOL   C180 7908   0.990   8.316   0.222 -0.1921 -0.0528  0.8825
   25MOL  Cl181 7909   1.161   8.305   0.227  0.0313 -0.0897  0.1713
   25MOL   C182 7910   0.920   8.348   0.337  0.5329 -0.2508 -0.3793
   25MOL   C183 7911   0.778   8.355   0.333 -0.4101 -0.2412 -0.6901
   25MOL   C184 7912   0.706   8.339   0.216 -0.1131 -0.1766  0.3420
   25MOL   C185 7913   0.776   8.309   0.099  0.1606  0.0516  0.0169
   25MOL   C186 7914   0.973   8.378   8.280  0.2258  1.0685  0.1465
   25MOL   H187 7915   1.095   8.267   8.396  0.3225  2.1542 -1.9447
   25MOL   H188 7916   0.979   8.362   0.426  2.5226 -1.6907 -1.4029
   25MOL   H189 7917   0.716   8.380   0.418  0.5494  1.6107 -0.5113
   25MOL   H190 7918   0.600   8.353   0.226  0.0332  0.4180  1.1693
   25MOL   H191 7919   0.723   8.288   0.007  2.8026  0.5066 -1.6691
   25MOL   H192 7920   0.870   8.386   8.246  0.7907  0.3227 -1.7800
   25MOL   H193 7921   1.018   8.343   8.188  1.7202 -2.0488  1.9623
   25MOL   C194 7922   1.023   0.102   8.334  0.6133  0.2029 -0.1847
   25MOL   C195 7923   0.955   0.220   8.271  0.1962  0.0369 -0.4515
   25MOL   C196 7924   0.861   0.304   8.338  0.0028  0.1630  0.5324
   25MOL  Cl197 7925   0.818   0.280   0.083  0.1962  0.0653 -0.0749
   25MOL   C198 7926   0.791   0.402   8.261  0.7727  0.1799 -0.3718
   25MOL   C199 7927   0.815   0.414   8.123  0.0758  0.2519 -0.1766
   25MOL   C200 7928   0.910   0.339   8.061 -0.6594  0.0627  0.7411
   25MOL   C201 7929   0.976   0.238   8.135 -0.4809  0.1487 -0.5518
   25MOL   C202 7930   1.174   0.112   8.328 -1.0456  0.1912 -0.4548
   25MOL   H203 7931   0.999   0.116   0.019 -1.6858 -0.9023 -0.5417
   25MOL   H204 7932   0.728   0.465   8.322  0.6521  0.3898 -0.7145
   25MOL   H205 7933   0.765   0.487   8.061 -1.8717 -0.0768  0.9633
   25MOL   H206 7934   0.935   0.354   7.957 -1.7645  1.8720  0.7277
   25MOL   H207 7935   1.046   0.173   8.085 -1.2820 -0.1297 -1.3349
   25MOL   H208 7936   1.206   0.158   8.235 -2.5927  2.6015  0.1742
   25MOL   H209 7937   1.228   0.018   8.317  0.4530  1.1472 -1.4441
   25MOL   C210 7938   1.256   0.175   0.026 -0.5520 -0.1882  0.9681
   25MOL   C211 7939   1.196   0.311   0.085  0.1643  1.1555 -0.0570
   25MOL   C212 7940   1.156   0.321   0.225  0.1759  0.0736 -0.1586
   25MOL  Cl213 7941   1.180   0.191   0.338 -0.5442  0.2586 -0.1398
   25MOL   C214 7942   1.099   0.442   0.272 -0.4615  0.8118  0.4641
   25MOL   C215 7943   1.073   0.544   0.180 -0.0648  0.3160  0.1344
   25MOL   C216 7944   1.097   0.536   0.039 -0.0012  0.8133 -0.1670
   25MOL   C217 7945   1.155   0.413   8.419 -0.3929  0.5077  0.6410
   25MOL   C218 7946   1.398   0.199   8.404 -1.2038 -0.1039 -0.4403
   25MOL   H219 7947   1.257   0.104   0.109 -0.3493 -1.4674 -0.1193
   25MOL   H220 7948   1.088   0.448   0.379 -1.1293  1.5488  0.3585
   25MOL   H221 7949   1.031   0.636   0.218  0.7122  0.8871 -0.3802
   25MOL   H222 7950   1.079   0.618   8.392  2.5043  2.0554  0.6016
   25MOL   H223 7951   1.173   0.399   8.313  0.9681 -1.3680  1.1005
   25MOL   H224 7952   1.406   0.278   8.329 -0.1903  0.9817  0.7893
   25MOL   H225 7953   1.444   0.110   8.361  0.1316 -1.0796  2.9115
   25MOL   C226 7954   1.491   0.239   0.100 -0.3703  0.1735 -0.4716
   25MOL   C227 7955   1.621   0.301   0.037  0.1394  0.8054 -0.4897
   25MOL   C228 7956   1.660   0.436   0.049 -0.5001 -0.6634  0.0529
   25MOL  Cl229 7957   1.558   0.551   0.129  0.2361 -0.0911 -0.1613
   25MOL   C230 7958   1.786   0.480   0.000 -0.3862  0.6421 -0.0004
   25MOL   C231 7959   1.876   0.389   8.351 -0.6498  0.3581  1.1951
   25MOL   C232 7960   1.829   0.252   8.338  0.2282 -0.0659  0.1547
   25MOL   C233 7961   1.711   0.212   8.401  0.0536  0.5990  0.3106
   25MOL   C234 7962   1.512   0.116   0.192  0.1488 -0.2030  0.3277
   25MOL   H235 7963   1.459   0.324   0.160  1.2859  0.8849 -0.5701
   25MOL   H236 7964   1.821   0.580   0.023  0.0135  1.1571 -2.7667
   25MOL   H237 7965   1.972   0.419   8.312 -1.3407  0.9074 -0.0830
   25MOL   H238 7966   1.886   0.171   8.294 -2.1941 -1.5212 -0.4121
   25MOL   H239 7967   1.682   0.108   8.401  1.1245  0.2758 -1.3517
   25MOL   H240 7968   1.522   0.025   0.133  0.2226  0.5594 -0.8603
   25MOL   H241 7969   1.424   0.100   0.255  0.1260  0.3644  0.4447
   25MOL   C242 7970   1.629   0.117   0.291 -0.0004  0.2624 -0.3489
   25MOL   C243 7971   1.647   8.394   0.336  0.2363  0.0386  0.1339
   25MOL   C244 7972   1.769   8.330   0.304 -0.0347  0.2315 -0.3862
   25MOL  Cl245 7973   1.886   8.392   0.194  0.2899 -0.2280  0.0275
   25MOL   C246 7974   1.796   8.199   0.355  0.1479 -0.4926 -0.4165
   25MOL   C247 7975   1.699   8.141   0.441 -1.0541 -0.0509 -0.1649
   25MOL   C248 7976   1.581   8.206   0.480  0.4427 -0.2737  0.0128
   25MOL   C249 7977   1.551   8.333   0.424 -0.1439  0.1550  0.2513
   25MOL   C250 7978   1.605   0.222   0.407 -0.1738 -0.2455  0.0044
   25MOL   H251 7979   1.715   0.149   0.232  1.5171 -1.8813  0.6196
   25MOL   H252 7980   1.887   8.148   0.328 -1.2055 -2.4216 -1.4175
   25MOL   H253 7981   1.717   8.036   0.457  1.0364  0.6113  2.1076
   25MOL   H254 7982   1.514   8.161   0.552 -0.1984 -0.2667 -0.5707
   25MOL   H255 7983   1.458   8.383   0.443 -0.1181  1.0423 -1.8077
   25MOL   H256 7984   1.549   0.173   0.487  0.4286 -0.0396  0.5517
   25MOL   H257 7985   1.551   0.311   0.374  0.6398  0.1611 -0.2427
   25MOL   C258 7986   1.737   0.269   0.476 -0.0986 -0.0692 -0.3980
   25MOL   C259 7987   1.729   0.280   0.633  0.3871  0.1235 -0.5191
   25MOL   C260 7988   1.787   0.187   0.724  0.6691  0.1207 -0.1951
   25MOL  Cl261 7989   1.883   0.055   0.664  0.1443  0.0599 -0.0813
   25MOL   C262 7990   1.791   0.211   0.860 -0.1967 -0.3871 -0.6267
   25MOL   C263 7991   1.716   0.317   0.910 -0.5689 -0.2060  0.3555
   25MOL   C264 7992   1.633   0.394   0.824 -0.6329  0.2534 -0.7913
   25MOL   C265 7993   1.644   0.380   0.686  1.4275 -0.4680  0.2617
   25MOL   C266 7994   1.804   0.387   0.399 -0.8109 -0.1377 -0.6656
   25MOL   H267 7995   1.801   0.184   0.452 -1.1037 -0.8451 -0.3040
   25MOL   H268 7996   1.849   0.152   0.929  2.0486  0.4938 -1.6998
   25MOL   H269 7997   1.716   0.347   1.014 -1.5769  1.4790 -0.1179
   25MOL   H270 7998   1.586   0.476   0.876  0.0452  0.1913 -0.0691
   25MOL   H271 7999   1.592   0.448   0.621  2.2353  2.2507  2.4034
   25MOL   H272 8000   1.761   0.481   0.433  1.6838  0.5236  0.8300
   25MOL   H273 8001   1.788   0.368   0.293 -1.9202  0.5095 -0.6174
   25MOL   C274 8002   1.956   0.421   0.439  0.2287  0.2781 -0.6748
   25MOL   C275 8003   1.988   0.569   0.402 -0.0520  0.7101 -0.2245
   25MOL   C276 8004   2.045   0.655   0.503 -0.0613 -0.1751 -0.0498
   25MOL  Cl277 8005   2.097   0.594   0.654 -0.0053  0.0345  0.0040
   25MOL   C278 8006   2.078   0.787   0.461 -0.4811  0.0123 -0.3773
   25MOL   C279 8007   2.047   0.833   0.335  0.0617 -0.1856  0.3211
   25MOL   C280 8008   2.001   0.748   0.232  0.1496 -0.4720  0.4732
   25MOL   C281 8009   1.973   0.618   0.266  0.2054 -1.0691  0.1795
   25MOL   C282 8010   2.037   0.316   0.366  0.2940  0.0171 -0.3639
   25MOL   H283 8011   1.969   0.406   0.546 -1.7001 -2.0281 -0.7106
   25MOL   H284 8012   2.126   0.854   0.531 -0.9276  0.4072 -0.4421
   25MOL   H285 8013   2.073   0.935   0.306  1.1063  0.0491  2.0260
   25MOL   H286 8014   1.981   0.793   0.136 -1.5860  0.2377  1.1508
   25MOL   H287 8015   1.936   0.547   0.193  0.0419 -0.9173  0.1156
   25MOL   H288 8016   2.024   0.355   0.265 -0.9394  1.5414  0.3558
   25MOL   H289 8017   2.001   0.214   0.353  0.2892  0.2629 -2.4830
   25MOL   C290 8018   2.193   0.307   0.398 -0.0553  0.2687  0.1427
   25MOL   C291 8019   2.264   0.232   0.286  0.4253 -0.2136  0.5341
   25MOL   C292 8020   2.299   0.299   0.166  0.7304 -0.2810 -0.4449
   25MOL  Cl293 8021   2.272   0.472   0.148 -0.0354  0.1417 -0.1970
   25MOL   C294 8022   2.362   0.220   0.065 -0.1392  0.1771 -0.4724
   25MOL   C295 8023   2.393   0.082   0.079 -0.2514  0.4727 -0.0459
   25MOL   C296 8024   2.358   0.019   0.200  0.5856  0.0939 -0.4682
   25MOL   C297 8025   2.279   0.090   0.295  0.0700  0.0517 -0.1691
   25MOL   C298 8026   2.235   0.268   0.539 -0.3778 -0.1788  0.0369
   25MOL   H299 8027   2.225   0.411   0.387 -2.6437  1.0214 -0.8036
   25MOL   H300 8028   2.407   0.270   8.401 -0.6836  1.0798 -0.2406
   25MOL   H301 8029   2.445   0.023   0.005 -2.1164 -0.4848 -0.6393
   25MOL   H302 8030   2.385   8.335   0.206  1.3994  0.4777  3.3484
   25MOL   H303 8031   2.240   0.037   0.381 -1.5990  0.0187 -0.9351
   25MOL   H304 8032   2.177   0.177   0.550 -0.9587 -0.1692 -2.5520
   25MOL   H305 8033   2.193   0.339   0.611  1.7376  0.5378  0.6072
   25MOL   C306 8034   2.380   0.243   0.563 -0.2832 -0.1307  0.0778
   25MOL   C307 8035   2.416   0.213   0.710  0.7301 -0.5795 -0.3161
   25MOL   C308 8036   2.412   0.081   0.764 -0.6762  0.0445  0.0236
   25MOL  Cl309 8037   2.360   8.366   0.668 -0.1116  0.1516  0.1736
   25MOL   C310 8038   2.482   0.056   0.882  0.1064 -0.7705 -0.0003
   25MOL   C311 8039   2.530   0.156   0.970 -0.2526 -0.4043  0.6285
   25MOL   C312 8040   2.514   0.290   0.927  0.5094 -0.0821 -0.2249
   25MOL   C313 8041   2.464   0.321   0.795 -0.7105  0.0284 -0.4170
   25MOL   C314 8042   2.461   0.355   0.495 -0.0928  0.3505  0.1059
   25MOL   H315 8043   2.409   0.154   0.507  1.9471  0.6664 -0.0925
   25MOL   H316 8044   2.495   8.374   0.912  0.1619 -0.3713  1.3844
   25MOL   H317 8045   2.576   0.140   1.067 -0.8715 -3.4919  0.4666
   25MOL   H318 8046   2.547   0.369   0.992 -0.8233  0.2123  0.0999
   25MOL   H319 8047   2.456   0.424   0.761  0.2292 -0.5518 -2.4915
   25MOL   H320 8048   2.567   0.331   0.492 -0.3915 -1.0372  0.1823
   25MOL   H321 8049   2.442   0.455   0.534  2.2132  0.6828  0.4804
   25MOL   H322 8050   2.448   0.361   0.387 -1.7565  0.7922  0.3245
   26MOL     C1 8051   5.036   7.526   0.734 -0.7923  0.2487 -0.4574
   26MOL     C2 8052   5.022   7.634   0.840 -0.3341 -0.1563  0.5611
   26MOL     C3 8053   4.916   7.627   0.939  0.1134 -0.0288 -0.0159
   26MOL    Cl4 8054   4.802   7.499   0.938 -0.2204 -0.2135 -0.0169
   26MOL     C5 8055   4.912   7.723   1.040  0.6947  0.4670  0.6649
   26MOL     C6 8056   5.003   7.828   1.037  0.7409  0.1865  0.3483
   26MOL     C7 8057   5.102   7.836   0.937  0.0940  0.4877  0.1549
   26MOL     C8 8058   5.115   7.742   0.835 -0.4799 -0.0680 -0.4215
   26MOL     C9 8059   4.936   7.543   0.615 -0.1654  0.0410 -0.1622
   26MOL    H10 8060   5.140   7.522   0.703 -0.5519 -3.6766  0.5179
   26MOL    H11 8061   4.842   7.717   1.122  0.9712 -0.9766  0.8057
   26MOL    H12 8062   4.987   7.895   1.120 -1.2004 -1.0978  1.0360
   26MOL    H13 8063   5.176   7.915   0.943  1.2357 -0.5487 -0.0267
   26MOL    H14 8064   5.187   7.741   0.754  0.2635 -2.9261  0.2210
   26MOL    H15 8065   4.960   7.640   0.571 -0.3544  0.7571  1.3032
   26MOL    H16 8066   4.835   7.545   0.654  0.3905 -0.6587  1.3834
   26MOL    H17 8067   5.020   7.431   0.785  0.6590 -0.0221 -0.4845
   26MOL    C18 8068   4.951   7.446   0.495 -0.1148 -0.6428 -0.1325
   26MOL    C19 8069   5.096   7.419   0.456 -0.9229  0.0291 -0.4889
   26MOL    C20 8070   5.150   7.288   0.447  0.6893 -0.1556  0.5049
   26MOL   Cl21 8071   5.050   7.142   0.441 -0.2159  0.2404 -0.1550
   26MOL    C22 8072   5.283   7.258   0.431 -0.3450 -0.3323  0.4236
   26MOL    C23 8073   5.374   7.364   0.410 -0.6889  0.5797  0.1082
   26MOL    C24 8074   5.326   7.497   0.424  0.4383 -0.2688 -0.2902
   26MOL    C25 8075   5.187   7.519   0.441  0.0926 -0.9571  0.0735
   26MOL    C26 8076   4.876   7.494   0.363  0.2601  0.7251 -0.1121
   26MOL    H27 8077   4.907   7.349   0.521 -1.5143 -0.9190 -3.3221
   26MOL    H28 8078   5.315   7.159   0.403  0.1274  0.1586 -0.8034
   26MOL    H29 8079   5.479   7.350   0.389 -0.8765 -0.8258  0.0765
   26MOL    H30 8080   5.396   7.579   0.433  0.2220 -0.2810  1.6798
   26MOL    H31 8081   5.137   7.614   0.443 -0.3106 -1.1545 -0.5288
   26MOL    H32 8082   4.906   7.436   0.275 -3.9894  0.8430 -1.7541
   26MOL    H33 8083   4.899   7.600   0.347  1.4910  0.2318 -1.8300
   26MOL    C34 8084   4.724   7.488   0.379 -0.4812  0.1162 -0.1977
   26MOL    C35 8085   4.680   7.343   0.404 -0.4815 -0.7435  0.2543
   26MOL    C36 8086   4.629   7.307   0.531  0.8336  0.2721 -0.6127
   26MOL   Cl37 8087   4.614   7.417   0.665  0.1878 -0.1250 -0.3714
   26MOL    C38 8088   4.592   7.168   0.551 -0.2309  0.4490  0.4697
   26MOL    C39 8089   4.612   7.069   0.453  0.7108 -0.9683  0.3065
   26MOL    C40 8090   4.669   7.110   0.332 -0.4322 -0.1898  0.3334
   26MOL    C41 8091   4.699   7.245   0.304 -0.8419 -0.2655 -0.3741
   26MOL    C42 8092   4.649   7.567   0.271 -1.0018  0.5034 -0.1727
   26MOL    H43 8093   4.702   7.550   0.466  1.7525  0.1872  0.3269
   26MOL    H44 8094   4.552   7.138   0.647 -0.5111  0.6216  0.4052
   26MOL    H45 8095   4.582   6.966   0.464  1.3447 -1.1544  0.3164
   26MOL    H46 8096   4.691   7.040   0.253  2.7617  0.1398  0.8704
   26MOL    H47 8097   4.726   7.272   0.203 -1.0628  2.0719  0.1472
   26MOL    H48 8098   4.668   7.525   0.172  1.0495  0.5336  0.1746
   26MOL    H49 8099   4.709   7.658   0.269 -0.5123  0.2815  2.3308
   26MOL    C50 8100   4.501   7.584   0.296  0.2139  0.2557  0.2216
   26MOL    C51 8101   4.464   7.675   0.420  0.2804 -0.1510  0.0832
   26MOL    C52 8102   4.483   7.815   0.422  0.2267 -0.2870  0.5224
   26MOL   Cl53 8103   4.552   7.900   0.285  0.6686 -0.0734  0.2169
   26MOL    C54 8104   4.451   7.883   0.538 -0.4216 -0.2049  0.2927
   26MOL    C55 8105   4.386   7.819   0.646 -0.2971  0.2725  0.3666
   26MOL    C56 8106   4.359   7.683   0.638  0.1377  0.0250 -0.0637
   26MOL    C57 8107   4.412   7.609   0.529  0.0647 -0.3499  0.4297
   26MOL    C58 8108   4.414   7.459   0.264  0.7324  0.5913 -0.4482
   26MOL    H59 8109   4.459   7.652   0.222 -0.7120 -0.3630  0.1733
   26MOL    H60 8110   4.466   7.990   0.538 -2.9686  0.1728 -1.8375
   26MOL    H61 8111   4.348   7.879   0.728  0.2850  0.1348  0.7404
   26MOL    H62 8112   4.306   7.635   0.720  0.4828 -1.6460 -0.8003
   26MOL    H63 8113   4.407   7.501   0.519 -0.2029 -0.5395  2.4078
   26MOL    H64 8114   4.312   7.492   0.283  0.8845  0.5855  0.3907
   26MOL    H65 8115   4.438   7.387   0.343 -0.3023  1.3352  0.5697
   26MOL    C66 8116   4.416   7.395   0.123 -0.2840  0.3757  0.1827
   26MOL    C67 8117   4.397   7.498   0.011  0.6390 -0.2678  0.5644
   26MOL    C68 8118   4.489   7.509   8.325 -0.1506 -0.4287 -1.0749
   26MOL   Cl69 8119   4.615   7.395   8.306 -0.1968  0.0916  0.1592
   26MOL    C70 8120   4.477   7.617   8.241 -0.5899  0.5143 -0.4972
   26MOL    C71 8121   4.365   7.701   8.239  0.1160  0.5450 -0.0180
   26MOL    C72 8122   4.267   7.679   8.335  0.0288 -0.6536  0.2065
   26MOL    C73 8123   4.284   7.586   0.017 -0.1828  0.2609 -0.0409
   26MOL    C74 8124   4.306   7.289   0.115  0.5166  1.4970 -0.2244
   26MOL    H75 8125   4.512   7.348   0.102 -0.2371  0.1666  0.8621
   26MOL    H76 8126   4.569   7.650   8.195 -0.2790 -0.7974 -0.8457
   26MOL    H77 8127   4.356   7.784   8.171  0.1592  0.2541 -0.3830
   26MOL    H78 8128   4.184   7.748   8.338  1.2984  1.0761 -2.2804
   26MOL    H79 8129   4.211   7.588   0.096  0.1342  2.6738  0.2527
   26MOL    H80 8130   4.213   7.336   0.085 -1.0120 -0.9565  0.5808
   26MOL    H81 8131   4.297   7.243   0.213  0.0883  2.8283  0.3734
   26MOL    C82 8132   4.332   7.175   0.007  0.5220  0.1551  0.4439
   26MOL    C83 8133   4.211   7.074   0.014  0.0977  0.2014  0.6088
   26MOL    C84 8134   4.102   7.095   8.348  0.0161  0.6724 -0.3957
   26MOL   Cl85 8135   4.085   7.240   8.251  0.2108  0.2806  0.0349
   26MOL    C86 8136   3.999   6.996   8.340  0.3478 -0.1105  0.4419
   26MOL    C87 8137   4.003   6.886   0.013  0.0824 -0.0961 -0.0258
   26MOL    C88 8138   4.116   6.860   0.090 -0.5969  0.0080  0.2805
   26MOL    C89 8139   4.217   6.959   0.092  0.3672  1.0030 -0.4298
   26MOL    C90 8140   4.469   7.096   0.016 -0.4552 -0.0195 -0.1120
   26MOL    H91 8141   4.339   7.223   8.330 -0.9655 -0.1493  0.1793
   26MOL    H92 8142   3.914   7.025   8.280 -0.1352  0.9751  1.6198
   26MOL    H93 8143   3.913   6.826   0.017 -0.1355  0.0983 -1.6482
   26MOL    H94 8144   4.121   6.783   0.165  2.1063  1.7110  1.9120
   26MOL    H95 8145   4.301   6.940   0.157 -1.1530 -0.8484  1.0716
   26MOL    H96 8146   4.495   7.065   0.118  3.9078  3.5752  0.0161
   26MOL    H97 8147   4.554   7.163   0.004  1.3812 -2.0792  1.0644
   26MOL    C98 8148   4.496   6.983   8.336 -0.4700  0.2086 -0.2826
   26MOL    C99 8149   4.617   6.896   8.377  0.6906 -0.5282  0.0289
   26MOL   C100 8150   4.615   6.760   8.399 -0.5758  0.5589 -0.5697
   26MOL  Cl101 8151   4.465   6.675   8.386  0.1409  0.2347 -0.3945
   26MOL   C102 8152   4.731   6.695   0.018 -0.3918  0.1547  0.9902
   26MOL   C103 8153   4.858   6.756   0.033 -0.2034 -0.5478 -0.1979
   26MOL   C104 8154   4.860   6.894   0.003 -0.4710  0.3047  0.4496
   26MOL   C105 8155   4.742   6.953   8.390  0.1661 -0.0504  0.9396
   26MOL   C106 8156   4.518   7.038   8.196  0.1761 -0.7379  0.0367
   26MOL   H107 8157   4.405   6.924   8.325 -1.6147  2.0535 -0.8060
   26MOL   H108 8158   4.721   6.588   0.015 -3.2378  0.4474 -1.1872
   26MOL   H109 8159   4.948   6.703   0.061 -0.0370  0.4031  1.0744
   26MOL   H110 8160   4.958   6.938   0.007 -0.1391 -0.6049  3.0050
   26MOL   H111 8161   4.748   7.060   8.378  2.1467 -0.3089 -0.7121
   26MOL   H112 8162   4.626   7.038   8.180 -0.2002  1.4901 -3.0179
   26MOL   H113 8163   4.500   7.143   8.176  0.9747 -0.2117  1.9864
   26MOL   C114 8164   4.477   6.953   8.074  0.3711 -0.3797 -0.1860
   26MOL   C115 8165   4.507   6.806   8.084  0.6322 -0.0763 -0.4833
   26MOL   C116 8166   4.404   6.707   8.065  0.4115  0.5631 -0.4612
   26MOL  Cl117 8167   4.236   6.752   8.045 -0.2110  0.2486  0.1063
   26MOL   C118 8168   4.433   6.572   8.056  0.7996  0.0234  0.1783
   26MOL   C119 8169   4.564   6.523   8.085  0.2315 -0.1798  0.4323
   26MOL   C120 8170   4.666   6.616   8.101  0.8759  0.1093 -0.3586
   26MOL   C121 8171   4.642   6.757   8.089  0.0561  0.3108 -0.3827
   26MOL   C122 8172   4.548   6.997   7.939 -0.1348  0.6844 -0.0510
   26MOL   H123 8173   4.368   6.963   8.075  0.4340  0.6214 -1.2672
   26MOL   H124 8174   4.359   6.495   8.038 -0.7120  1.6710 -0.8480
   26MOL   H125 8175   4.575   6.416   8.080 -2.2471 -0.4507  0.1210
   26MOL   H126 8176   4.766   6.575   8.110  0.8756  0.5239  1.7712
   26MOL   H127 8177   4.729   6.820   8.085 -0.0636  0.6249  1.6396
   26MOL   H128 8178   4.549   6.910   7.873  0.6515 -0.2130  1.1201
   26MOL   H129 8179   4.652   7.016   7.969 -0.0521 -1.2337  0.9280
   26MOL   C130 8180   4.479   7.113   7.864  0.4480  0.2626  0.2645
   26MOL   C131 8181   4.332   7.074   7.821 -0.1268  0.3866  0.3089
   26MOL   C132 8182   4.222   7.161   7.842 -0.6353 -0.5945 -0.2434
   26MOL  Cl133 8183   4.235   7.316   7.913  0.0176  0.1834  0.0998
   26MOL   C134 8184   4.096   7.117   7.792 -0.1483  0.0453  0.2626
   26MOL   C135 8185   4.074   6.989   7.739  0.1372 -0.4166  0.4921
   26MOL   C136 8186   4.183   6.903   7.724 -0.8401  0.1541  0.2354
   26MOL   C137 8187   4.311   6.949   7.762  0.7039  0.4670 -0.5832
   26MOL   C138 8188   4.566   7.170   7.743  0.0202  0.4014  0.6748
   26MOL   H139 8189   4.464   7.195   7.934 -1.4445 -0.0068  0.2062
   26MOL   H140 8190   4.003   7.170   7.807 -0.2648 -0.0475 -0.1458
   26MOL   H141 8191   3.972   6.956   7.727  0.0080  0.0751  0.2134
   26MOL   H142 8192   4.170   6.799   7.701 -0.2915  0.7326 -2.9026
   26MOL   H143 8193   4.388   6.878   7.736  0.2321 -1.0933  2.1264
   26MOL   H144 8194   4.527   7.117   7.656  1.8578 -0.4661  0.3568
   26MOL   H145 8195   4.669   7.136   7.752  0.6336  1.7921 -0.9056
   26MOL   C146 8196   4.542   7.314   7.702  0.3086  0.2347 -0.2933
   26MOL   C147 8197   4.579   7.326   7.554  1.0296 -0.0240  0.6816
   26MOL   C148 8198   4.480   7.352   7.458  0.4548 -0.1186  0.5687
   26MOL  Cl149 8199   4.303   7.352   7.496  0.4492 -0.3329  0.2664
   26MOL   C150 8200   4.509   7.373   7.328 -0.3340 -0.8314  0.0005
   26MOL   C151 8201   4.644   7.380   7.282 -0.0415  0.4747 -0.1534
   26MOL   C152 8202   4.747   7.362   7.374 -0.0904  0.0242  0.0134
   26MOL   C153 8203   4.712   7.327   7.512  0.6736 -0.3454  0.1871
   26MOL   C154 8204   4.610   7.426   7.791  0.1518 -0.2561  0.5499
   26MOL   H155 8205   4.434   7.325   7.716  0.3809 -0.2966  0.7525
   26MOL   H156 8206   4.435   7.388   7.251  0.4547  0.8762 -0.4494
   26MOL   H157 8207   4.667   7.406   7.180  0.6531 -0.6419 -0.2823
   26MOL   H158 8208   4.850   7.368   7.342  0.0141  1.0186  0.5221
   26MOL   H159 8209   4.790   7.286   7.575 -0.1685 -1.2369  0.6631
   26MOL   H160 8210   4.715   7.397   7.786  0.5084  0.5514  2.6448
   26MOL   H161 8211   4.581   7.420   7.896 -0.5966 -1.8451  0.2687
   26MOL   C162 8212   4.592   7.573   7.736  0.0032  0.5230  0.7862
   26MOL   C163 8213   4.693   7.667   7.813 -0.0298 -0.2341  0.3316
   26MOL   C164 8214   4.819   7.701   7.760  0.7687 -0.2045 -0.2132
   26MOL  Cl165 8215   4.869   7.632   7.606 -0.2807  0.0161  0.1197
   26MOL   C166 8216   4.914   7.783   7.834  0.0589  0.1311  0.2005
   26MOL   C167 8217   4.881   7.827   7.962  0.1611  0.4354 -0.7778
   26MOL   C168 8218   4.756   7.792   8.013 -0.6460 -0.5974 -0.3812
   26MOL   C169 8219   4.667   7.708   7.944  0.5538 -0.2608 -0.1586
   26MOL   C170 8220   4.438   7.617   7.749  0.5359 -0.7725 -0.8346
   26MOL   H171 8221   4.616   7.580   7.630 -0.4893  0.0586  0.6410
   26MOL   H172 8222   5.013   7.802   7.797 -0.3780  0.6339 -0.7168
   26MOL   H173 8223   4.952   7.883   8.021  0.4558 -0.9378  0.1992
   26MOL   H174 8224   4.730   7.828   8.112 -2.0363  1.2204 -1.3820
   26MOL   H175 8225   4.571   7.681   7.987  0.4218 -0.0841 -0.3429
   26MOL   H176 8226   4.394   7.616   7.849 -0.4797  0.2216 -1.2532
   26MOL   H177 8227   4.379   7.538   7.703 -0.6503 -0.1413 -0.4259
   26MOL   C178 8228   4.403   7.742   7.663 -0.0250 -0.0763  0.4940
   26MOL   C179 8229   4.452   7.873   7.716 -0.0462 -0.0518  0.2157
   26MOL   C180 8230   4.552   7.951   7.646  0.4555 -0.6806 -0.2137
   26MOL  Cl181 8231   4.623   7.909   7.493 -0.4160 -0.0508  0.2634
   26MOL   C182 8232   4.589   8.077   7.707 -0.0157  0.1682 -0.2070
   26MOL   C183 8233   4.525   8.119   7.823  0.4890 -0.0478 -0.0696
   26MOL   C184 8234   4.427   8.040   7.886  0.1858 -0.6436  0.9211
   26MOL   C185 8235   4.395   7.915   7.839  0.2337  0.0080 -0.1106
   26MOL   C186 8236   4.253   7.741   7.634  0.1520 -0.2938  0.0477
   26MOL   H187 8237   4.465   7.731   7.574 -1.0784  0.8192 -0.3627
   26MOL   H188 8238   4.655   8.146   7.655 -2.0375  1.0971 -1.6195
   26MOL   H189 8239   4.547   8.217   7.862 -0.8955  0.1150  0.3470
   26MOL   H190 8240   4.393   8.076   7.982  1.4675  1.4051  0.6301
   26MOL   H191 8241   4.332   7.847   7.895  0.2283  0.1351  0.0408
   26MOL   H192 8242   4.194   7.792   7.709 -0.0796 -0.4934 -0.0017
   26MOL   H193 8243   4.209   7.643   7.622 -0.4635 -0.0454  0.2726
   26MOL   C194 8244   4.226   7.828   7.496  0.2713  0.2964  0.3601
   26MOL   C195 8245   4.081   7.862   7.499  0.4588 -0.1417 -0.3002
   26MOL   C196 8246   4.036   7.991   7.515 -0.4694  0.3403 -0.3317
   26MOL  Cl197 8247   4.142   8.124   7.554 -0.0595  0.3051  0.2903
   26MOL   C198 8248   3.900   8.017   7.501  0.7538  0.3666 -0.2021
   26MOL   C199 8249   3.809   7.916   7.483 -0.3544 -0.1236 -0.5856
   26MOL   C200 8250   3.847   7.782   7.477  0.5127  0.1889 -0.8199
   26MOL   C201 8251   3.984   7.756   7.491  0.2180  0.9072 -0.3134
   26MOL   C202 8252   4.256   7.740   7.372 -0.2100  0.5675 -0.6882
   26MOL   H203 8253   4.289   7.917   7.489 -0.5752  0.8928  0.2146
   26MOL   H204 8254   3.856   8.116   7.506  1.6450  0.6559  3.8849
   26MOL   H205 8255   3.705   7.938   7.465 -0.4545 -0.8620 -0.9412
   26MOL   H206 8256   3.769   7.710   7.455 -0.0264  0.5442 -0.0793
   26MOL   H207 8257   4.012   7.652   7.488 -0.6008  0.6691  0.2330
   26MOL   H208 8258   4.185   7.657   7.365  0.8722 -0.3078 -1.4467
   26MOL   H209 8259   4.337   7.672   7.400 -0.2914  0.6622 -0.2181
   26MOL   C210 8260   4.301   7.824   7.244 -0.5927  0.0690  0.0259
   26MOL   C211 8261   4.182   7.906   7.200 -0.4177 -0.1859  0.9819
   26MOL   C212 8262   4.195   8.047   7.180  0.2770  0.6411 -0.3434
   26MOL  Cl213 8263   4.347   8.129   7.165  0.0677 -0.1959 -0.0165
   26MOL   C214 8264   4.090   8.123   7.145  0.6468  1.1985 -0.0550
   26MOL   C215 8265   3.967   8.064   7.123 -0.2034  0.9624  0.1676
   26MOL   C216 8266   3.945   7.928   7.157 -0.0646 -0.9715  0.0996
   26MOL   C217 8267   4.057   7.846   7.185  0.2196 -0.1065  0.3568
   26MOL   C218 8268   4.346   7.732   7.124 -0.6689  0.1910  0.1207
   26MOL   H219 8269   4.381   7.889   7.276 -0.9131  0.8149 -0.6596
   26MOL   H220 8270   4.095   8.230   7.129 -0.2795  1.2103 -0.2749
   26MOL   H221 8271   3.893   8.135   7.089  0.2999  1.1154 -0.6368
   26MOL   H222 8272   3.847   7.884   7.164  0.0436 -0.9248  2.1551
   26MOL   H223 8273   4.039   7.744   7.215  0.3305 -0.1601  0.2438
   26MOL   H224 8274   4.269   7.736   7.047  2.2877 -0.8864 -3.0719
   26MOL   H225 8275   4.361   7.628   7.154 -3.6059 -0.6024 -0.9267
   26MOL   C226 8276   4.465   7.789   7.039  0.5029  0.1665  0.0150
   26MOL   C227 8277   4.466   7.733   6.900  0.1615  0.6045 -0.2888
   26MOL   C228 8278   4.427   7.802   6.786  0.7672  0.0969 -0.0909
   26MOL  Cl229 8279   4.347   7.956   6.809 -0.0846 -0.3348 -0.2470
   26MOL   C230 8280   4.437   7.754   6.655  0.3888  0.2729  0.1164
   26MOL   C231 8281   4.502   7.627   6.636 -0.3637 -0.8493  0.1206
   26MOL   C232 8282   4.538   7.554   6.751  0.0301  0.1041  0.2456
   26MOL   C233 8283   4.513   7.604   6.879  0.1512  0.0319  0.0441
   26MOL   C234 8284   4.599   7.759   7.119 -0.1231 -0.2742  0.6460
   26MOL   H235 8285   4.449   7.897   7.038  0.9575  0.2346  0.1568
   26MOL   H236 8286   4.420   7.819   6.570 -0.1715 -1.0532 -0.8106
   26MOL   H237 8287   4.502   7.583   6.538 -1.2864  0.6985 -0.5965
   26MOL   H238 8288   4.567   7.451   6.731 -1.3736  0.0090 -1.4058
   26MOL   H239 8289   4.552   7.548   6.963 -1.0108  1.5440  1.6143
   26MOL   H240 8290   4.613   7.658   7.157  0.4085  0.0324  1.2823
   26MOL   H241 8291   4.595   7.821   7.209  1.1897  2.7986 -1.3379
   26MOL   C242 8292   4.731   7.782   7.042 -0.5215 -0.6678  0.2360
   26MOL   C243 8293   4.855   7.732   7.125 -0.0713 -0.1784 -0.9240
   26MOL   C244 8294   4.957   7.651   7.069 -0.0582 -0.6515 -0.0864
   26MOL  Cl245 8295   4.942   7.612   6.900 -0.1674 -0.3205  0.4458
   26MOL   C246 8296   5.066   7.604   7.144 -0.1454 -0.1771 -1.0030
   26MOL   C247 8297   5.078   7.648   7.276  0.0152 -0.4946  0.0050
   26MOL   C248 8298   4.989   7.742   7.328  0.4489 -0.8397  0.1723
   26MOL   C249 8299   4.876   7.776   7.251  0.3789  0.1906  0.7287
   26MOL   C250 8300   4.760   7.932   7.008  1.3106 -0.1937 -0.1116
   26MOL   H251 8301   4.719   7.720   6.953  1.7845  1.5498 -1.6692
   26MOL   H252 8302   5.151   7.550   7.104  0.1961 -0.7636  0.4838
   26MOL   H253 8303   5.160   7.610   7.335  2.3583 -0.1854 -2.9169
   26MOL   H254 8304   4.994   7.771   7.432  2.6030 -1.0436  0.1602
   26MOL   H255 8305   4.794   7.833   7.292  0.5774  0.0282  1.3543
   26MOL   H256 8306   4.771   7.983   7.104 -0.1788  1.1937 -0.6493
   26MOL   H257 8307   4.665   7.976   6.976  1.7591 -0.3970 -1.7643
   26MOL   C258 8308   4.862   7.963   6.900  0.4036 -0.4689 -0.5363
   26MOL   C259 8309   4.889   8.115   6.908 -0.3027 -0.6051  0.6379
   26MOL   C260 8310   5.015   8.174   6.929  0.1501 -0.2298 -0.0215
   26MOL  Cl261 8311   5.154   8.082   6.973 -0.4501  0.2919  0.2489
   26MOL   C262 8312   5.032   8.316   6.912 -0.0330  0.1694 -0.5010
   26MOL   C263 8313   4.922   8.399   6.886  0.2429 -0.4019  0.1383
   26MOL   C264 8314   4.799   8.336   6.872  0.1008 -0.6798 -0.7900
   26MOL   C265 8315   4.781   8.198   6.872  0.9299 -0.2413  0.0993
   26MOL   C266 8316   4.807   7.919   6.761  0.4823 -0.2027  0.3151
   26MOL   H267 8317   4.952   7.905   6.924  0.8629  0.1972 -0.6362
   26MOL   H268 8318   5.131   8.348   6.941  0.5763  0.2258 -2.5749
   26MOL   H269 8319   4.931   0.086   6.876  0.7143 -0.5643 -1.2132
   26MOL   H270 8320   4.714   8.397   6.846  0.0319  0.5146  2.0535
   26MOL   H271 8321   4.687   8.160   6.834  0.0362  1.9580 -0.0051
   26MOL   H272 8322   4.707   7.962   6.762  0.3590 -0.4709  2.5974
   26MOL   H273 8323   4.781   7.813   6.753 -3.1757  0.6345  0.2581
   26MOL   C274 8324   4.898   7.967   6.644 -0.0599 -0.5765  0.5874
   26MOL   C275 8325   4.834   7.923   6.508  0.3036 -0.4882 -0.2819
   26MOL   C276 8326   4.714   7.990   6.468  0.2836  0.1397  0.0431
   26MOL  Cl277 8327   4.654   8.137   6.544  0.2030  0.0397 -0.2201
   26MOL   C278 8328   4.644   7.952   6.357  0.1065 -0.0280  0.0525
   26MOL   C279 8329   4.694   7.844   6.284 -0.2942 -0.6211  0.1957
   26MOL   C280 8330   4.802   7.767   6.329 -0.1164 -0.7374 -0.2964
   26MOL   C281 8331   4.886   7.812   6.433 -0.4901 -0.5322  0.2722
   26MOL   C282 8332   5.046   7.920   6.656  0.6962 -0.0042  0.2332
   26MOL   H283 8333   4.911   8.075   6.646 -1.0010 -0.4812  4.5921
   26MOL   H284 8334   4.552   7.994   6.319  1.2258  1.9563 -0.5454
   26MOL   H285 8335   4.645   7.791   6.204 -0.4137  1.1864 -0.9584
   26MOL   H286 8336   4.827   7.681   6.268  0.5671  1.1146 -2.6937
   26MOL   H287 8337   4.972   7.761   6.473 -0.0730  1.3255  1.8687
   26MOL   H288 8338   5.042   7.811   6.659 -0.6846  0.0220 -0.2892
   26MOL   H289 8339   5.080   7.955   6.753  0.5785  0.6473  0.0430
   26MOL   C290 8340   5.150   7.977   6.550 -0.3395  0.1183  0.3477
   26MOL   C291 8341   5.276   7.889   6.549 -1.0607 -0.5516 -0.2105
   26MOL   C292 8342   5.303   7.804   6.434 -0.2369  0.2755 -0.5543
   26MOL  Cl293 8343   5.192   7.778   6.305  0.1880  0.1220  0.0100
   26MOL   C294 8344   5.421   7.730   6.433 -0.3573 -0.5266  0.5333
   26MOL   C295 8345   5.503   7.726   6.547  0.1765 -0.4889 -0.3581
   26MOL   C296 8346   5.464   7.799   6.662  0.4685  0.2022  0.0994
   26MOL   C297 8347   5.354   7.879   6.664 -0.0522 -0.5092 -0.3729
   26MOL   C298 8348   5.191   8.124   6.580  0.0643 -0.5167  0.6040
   26MOL   H299 8349   5.104   7.968   6.452 -0.5242  0.2541  0.4211
   26MOL   H300 8350   5.446   7.672   6.345 -0.9372  1.9654 -1.3315
   26MOL   H301 8351   5.601   7.680   6.550  0.9946  1.2663  1.2222
   26MOL   H302 8352   5.521   7.786   6.753 -1.4916  0.8735  1.4550
   26MOL   H303 8353   5.334   7.942   6.750 -1.3589  1.5701 -2.1365
   26MOL   H304 8354   5.296   8.134   6.610  0.3855  2.6436 -1.2340
   26MOL   H305 8355   5.143   8.158   6.672 -0.2805  2.1011 -0.4919
   26MOL   C306 8356   5.180   8.229   6.470  0.1328 -0.5666  0.0555
   26MOL   C307 8357   5.230   8.364   6.518 -0.0019 -0.5644  0.1817
   26MOL   C308 8358   5.330   0.021   6.457  0.1751  0.8802 -0.1430
   26MOL  Cl309 8359   5.399   8.401   6.305  0.0427 -0.0702 -0.0424
   26MOL   C310 8360   5.390   0.138   6.517  0.4560  1.0313  0.2294
   26MOL   C311 8361   5.338   0.180   6.638 -0.7974 -0.2770 -0.1139
   26MOL   C312 8362   5.231   0.115   6.699 -0.8557 -0.8214 -0.1231
   26MOL   C313 8363   5.170   8.420   6.638 -0.0735  0.0048 -0.1542
   26MOL   C314 8364   5.034   8.256   6.423  0.5817  0.1033 -0.6179
   26MOL   H315 8365   5.244   8.194   6.389 -1.4645 -4.2107  0.2742
   26MOL   H316 8366   5.478   0.180   6.471  0.9708  0.6411  0.8409
   26MOL   H317 8367   5.384   0.268   6.679 -1.2405 -0.5176  0.9297
   26MOL   H318 8368   5.195   0.159   6.791  1.9097  0.5321  0.3666
   26MOL   H319 8369   5.087   8.373   6.688 -2.0331  1.2243 -2.2063
   26MOL   H320 8370   5.020   8.328   6.342 -0.7850 -1.1848 -1.5552
   26MOL   H321 8371   4.968   8.276   6.507  2.0580  3.1367 -0.1467
   26MOL   H322 8372   4.999   8.158   6.389  1.3790  0.4251 -2.4911
   27MOL     C1 8373   3.151   3.163   2.508 -0.0255 -0.0270  0.5028
   27MOL     C2 8374   3.147   3.233   2.373 -0.0543  0.6701  0.2129
   27MOL     C3 8375   3.072   3.168   2.267 -0.1181 -0.2318 -0.6049
   27MOL    Cl4 8376   2.975   3.028   2.296 -0.2775  0.1915  0.1644
   27MOL     C5 8377   3.063   3.234   2.141  0.1679  0.3871 -0.9701
   27MOL     C6 8378   3.131   3.355   2.123  0.1885 -0.3572 -0.0322
   27MOL     C7 8379   3.198   3.418   2.230  0.7771 -0.3742 -0.0725
   27MOL     C8 8380   3.218   3.352   2.347  0.2545 -0.3706  0.3014
   27MOL     C9 8381   3.249   3.210   2.616 -0.0104 -0.1953  0.0895
   27MOL    H10 8382   3.058   3.179   2.562 -0.0882  1.3331  0.0061
   27MOL    H11 8383   3.016   3.191   2.054 -0.5129 -1.6102  0.3616
   27MOL    H12 8384   3.119   3.407   2.030  0.2309 -1.5836 -0.7377
   27MOL    H13 8385   3.258   3.507   2.216 -0.1428  0.1121 -0.9794
   27MOL    H14 8386   3.271   3.399   2.429  1.7419 -0.7920 -0.4097
   27MOL    H15 8387   3.199   3.294   2.663  1.9881 -0.1059  2.1173
   27MOL    H16 8388   3.342   3.249   2.575 -1.5338  0.1814 -3.1713
   27MOL    H17 8389   3.161   3.058   2.481  0.6048 -0.2460  1.5821
   27MOL    C18 8390   3.289   3.091   2.709 -0.0892  0.5410  0.1256
   27MOL    C19 8391   3.319   3.138   2.855  0.1476  0.5020 -0.1306
   27MOL    C20 8392   3.246   3.085   2.963  0.3294  0.3791  0.6420
   27MOL   Cl21 8393   3.121   2.968   2.935  0.2105  0.2594  0.0472
   27MOL    C22 8394   3.261   3.130   3.091  0.1961 -0.0945 -0.2943
   27MOL    C23 8395   3.353   3.236   3.115 -0.1850 -0.1910 -0.1625
   27MOL    C24 8396   3.426   3.290   3.008  0.5313 -0.5922 -0.4190
   27MOL    C25 8397   3.409   3.244   2.870  0.5709 -0.1436  0.0366
   27MOL    C26 8398   3.399   3.016   2.637 -0.9009  0.4064 -0.2456
   27MOL    H27 8399   3.207   3.019   2.714 -1.4709  2.0856  0.2537
   27MOL    H28 8400   3.202   3.081   3.167  1.7458  0.6594  1.4283
   27MOL    H29 8401   3.373   3.272   3.215  0.6520 -2.4018  0.4833
   27MOL    H30 8402   3.491   3.375   3.025  0.0698 -0.7942  2.5741
   27MOL    H31 8403   3.444   3.288   2.777  0.8344 -0.8881 -0.2203
   27MOL    H32 8404   3.487   3.080   2.640 -1.6636  1.4386  0.8354
   27MOL    H33 8405   3.374   2.994   2.533  1.9648 -1.7056 -0.5491
   27MOL    C34 8406   3.446   2.876   2.681  0.2882  0.0630  0.0855
   27MOL    C35 8407   3.499   2.871   2.822  0.0515 -0.4732 -0.2484
   27MOL    C36 8408   3.444   2.777   2.914  0.3686 -0.5956 -0.2555
   27MOL   Cl37 8409   3.300   2.694   2.870  0.5076 -0.0369 -0.0664
   27MOL    C38 8410   3.502   2.760   3.040 -0.0597  0.6946  0.0924
   27MOL    C39 8411   3.624   2.815   3.075 -0.1346  0.4694 -0.4581
   27MOL    C40 8412   3.681   2.918   2.988  0.1616 -0.0311 -0.5845
   27MOL    C41 8413   3.611   2.948   2.870  0.1550 -0.0442  0.5730
   27MOL    C42 8414   3.555   2.820   2.587 -0.1109  0.2364 -0.7371
   27MOL    H43 8415   3.358   2.814   2.668 -0.6511  0.7565  2.7594
   27MOL    H44 8416   3.467   2.679   3.103  0.0756 -0.3027 -1.0891
   27MOL    H45 8417   3.666   2.790   3.171 -0.8881  1.1780  0.0639
   27MOL    H46 8418   3.772   2.972   3.010  0.9797 -0.7936 -2.0304
   27MOL    H47 8419   3.644   3.034   2.814 -2.2512  0.8387  0.4647
   27MOL    H48 8420   3.589   2.728   2.634 -0.4526 -0.5359 -1.9771
   27MOL    H49 8421   3.641   2.887   2.590  0.3170 -0.3575  0.6724
   27MOL    C50 8422   3.521   2.780   2.436 -0.3427 -0.1485 -0.3575
   27MOL    C51 8423   3.411   2.682   2.431  1.0028 -0.4541 -0.0063
   27MOL    C52 8424   3.289   2.702   2.362 -0.2417  0.4670  0.3533
   27MOL   Cl53 8425   3.247   2.855   2.293 -0.2156 -0.3785  0.1850
   27MOL    C54 8426   3.199   2.598   2.347  0.2512  1.2423 -0.1640
   27MOL    C55 8427   3.211   2.476   2.411  0.3206 -0.3423  0.5181
   27MOL    C56 8428   3.332   2.454   2.484 -1.3420  0.9341 -0.5281
   27MOL    C57 8429   3.429   2.554   2.495  0.3398  0.1980 -0.3580
   27MOL    C58 8430   3.645   2.749   2.350 -0.8290  0.1321 -0.4142
   27MOL    H59 8431   3.484   2.870   2.387 -0.4105 -0.2437 -0.4797
   27MOL    H60 8432   3.110   2.603   2.287  0.3791  0.8665 -0.3803
   27MOL    H61 8433   3.133   2.401   2.398  0.6399 -0.2824 -2.0133
   27MOL    H62 8434   3.358   2.363   2.536  1.4025  1.5388 -0.8169
   27MOL    H63 8435   3.522   2.540   2.549  0.3365 -1.9242 -0.8520
   27MOL    H64 8436   3.678   2.662   2.406 -0.1771  0.5240 -0.1906
   27MOL    H65 8437   3.707   2.835   2.372 -1.9852  0.5611  1.2530
   27MOL    C66 8438   3.625   2.721   2.196  0.0759 -0.2889 -0.0687
   27MOL    C67 8439   3.584   2.574   2.172 -0.5258 -0.7615  0.1574
   27MOL    C68 8440   3.472   2.543   2.093 -0.2504  0.7736  0.2251
   27MOL   Cl69 8441   3.391   2.661   2.000 -0.5566 -0.4211  0.0486
   27MOL    C70 8442   3.423   2.410   2.095  0.9328 -0.1194  0.1961
   27MOL    C71 8443   3.503   2.311   2.156  0.1966  0.2736  0.4233
   27MOL    C72 8444   3.623   2.343   2.217  0.3495  0.1791  0.2484
   27MOL    C73 8445   3.669   2.472   2.234  0.0841 -0.0901 -0.4247
   27MOL    C74 8446   3.753   2.763   2.108 -0.0124 -0.6637  0.0001
   27MOL    H75 8447   3.543   2.788   2.172  0.1336  0.3178  1.3484
   27MOL    H76 8448   3.329   2.390   2.045  1.0733 -0.1212 -0.0715
   27MOL    H77 8449   3.476   2.206   2.158 -1.3473  0.6565  0.4955
   27MOL    H78 8450   3.688   2.264   2.252 -0.4791  0.4368  2.4747
   27MOL    H79 8451   3.757   2.503   2.287 -1.5180 -0.0566  2.3315
   27MOL    H80 8452   3.742   2.733   2.004  3.2629  0.5437 -0.7501
   27MOL    H81 8453   3.835   2.697   2.137  0.2115 -0.3462  0.0960
   27MOL    C82 8454   3.799   2.913   2.111  0.4169 -0.5431 -0.0681
   27MOL    C83 8455   3.688   3.016   2.070 -0.8807  0.1006 -0.8588
   27MOL    C84 8456   3.633   3.112   2.164 -0.5245  0.5090  0.5017
   27MOL   Cl85 8457   3.701   3.132   2.317 -0.0654 -0.2501 -0.2986
   27MOL    C86 8458   3.529   3.198   2.127 -0.0067  0.4932 -0.9696
   27MOL    C87 8459   3.463   3.178   2.007 -0.1227  0.2864 -0.0631
   27MOL    C88 8460   3.499   3.074   1.920  0.4868  0.1470 -0.8560
   27MOL    C89 8461   3.614   3.002   1.951 -1.2320  0.7207 -0.3479
   27MOL    C90 8462   3.932   2.948   2.030  0.0393 -0.0545 -0.3292
   27MOL    H91 8463   3.832   2.926   2.214  0.2753  2.6921 -0.4021
   27MOL    H92 8464   3.507   3.282   2.192  1.0234  0.3258 -0.3806
   27MOL    H93 8465   3.390   3.253   1.980  1.1703  2.8767  3.2420
   27MOL    H94 8466   3.454   3.068   1.822 -1.5322  0.6141  0.0041
   27MOL    H95 8467   3.642   2.923   1.883 -1.1744 -0.9859  1.6308
   27MOL    H96 8468   3.959   3.046   2.070 -1.2725 -0.1253  0.7850
   27MOL    H97 8469   3.911   2.978   1.928  0.8122 -0.0955 -0.5071
   27MOL    C98 8470   4.062   2.858   2.029  0.1726 -0.1074  0.3021
   27MOL    C99 8471   4.127   2.837   2.169  0.3307  0.0823  0.2444
   27MOL   C100 8472   4.124   2.709   2.239 -0.4973 -0.3054  0.3358
   27MOL  Cl101 8473   4.049   2.570   2.167 -0.2424  0.2696 -0.2370
   27MOL   C102 8474   4.195   2.693   2.359  0.4324  0.0752  0.6801
   27MOL   C103 8475   4.279   2.796   2.414  0.0303  0.2722 -0.0388
   27MOL   C104 8476   4.285   2.919   2.338  0.6290 -0.7838 -0.3386
   27MOL   C105 8477   4.206   2.940   2.226  0.0027  0.1656  0.1696
   27MOL   C106 8478   4.165   2.909   1.915  0.5973 -0.7069  0.1002
   27MOL   H107 8479   4.038   2.757   1.995 -0.0233  0.4196 -1.1596
   27MOL   H108 8480   4.185   2.596   2.404  1.5006 -0.1663  0.4252
   27MOL   H109 8481   4.347   2.774   2.495 -1.1869  0.8646  1.1448
   27MOL   H110 8482   4.352   3.002   2.357 -0.8062  0.1490  0.6439
   27MOL   H111 8483   4.207   3.035   2.176  1.4417  0.5384  0.8679
   27MOL   H112 8484   4.173   3.014   1.943 -1.6490 -0.7778  1.1588
   27MOL   H113 8485   4.116   2.901   1.818  0.0212  0.6870  0.2594
   27MOL   C114 8486   4.311   2.849   1.914 -0.0237 -0.3393  0.2820
   27MOL   C115 8487   4.399   2.935   1.818  0.2604  0.4845 -0.1676
   27MOL   C116 8488   4.479   3.037   1.877 -0.1110 -0.1791  0.2011
   27MOL  Cl117 8489   4.504   3.058   2.050 -0.2932  0.5986  0.2345
   27MOL   C118 8490   4.558   3.115   1.794  0.0734 -0.4863 -0.2274
   27MOL   C119 8491   4.553   3.106   1.656  0.3045  1.1169  0.3368
   27MOL   C120 8492   4.473   3.006   1.601 -0.4903 -0.7842 -0.5180
   27MOL   C121 8493   4.403   2.913   1.679 -0.5313  0.5609  0.9538
   27MOL   C122 8494   4.301   2.699   1.883  0.4038 -0.1650 -0.2654
   27MOL   H123 8495   4.352   2.853   2.015  1.9580 -0.9910 -0.4760
   27MOL   H124 8496   4.625   3.191   1.831  0.3688 -0.1406 -1.4783
   27MOL   H125 8497   4.610   3.167   1.587  0.4816  0.5664 -0.0082
   27MOL   H126 8498   4.475   2.989   1.494 -1.3641 -0.7480 -0.5416
   27MOL   H127 8499   4.357   2.839   1.615  1.3041  0.3578 -0.1801
   27MOL   H128 8500   4.276   2.687   1.777  2.3171 -3.5864 -0.4182
   27MOL   H129 8501   4.222   2.649   1.937 -0.4784 -0.5617 -1.8819
   27MOL   C130 8502   4.432   2.618   1.924  0.1065  0.3955  0.2136
   27MOL   C131 8503   4.433   2.478   1.869  0.1896 -0.0126  0.0665
   27MOL   C132 8504   4.533   2.431   1.784 -0.5493 -0.2422  0.2730
   27MOL  Cl133 8505   4.672   2.525   1.726  0.1890 -0.3318 -0.5087
   27MOL   C134 8506   4.538   2.297   1.743  0.3274 -0.2950 -0.2556
   27MOL   C135 8507   4.428   2.211   1.767 -0.3102  0.0455 -0.4292
   27MOL   C136 8508   4.330   2.256   1.859 -0.2545  0.6566 -0.4677
   27MOL   C137 8509   4.334   2.384   1.914 -0.0723  0.1046 -0.2450
   27MOL   C138 8510   4.454   2.608   2.076  0.0098 -0.1146  0.4124
   27MOL   H139 8511   4.511   2.679   1.880  0.4626  0.8511  1.4617
   27MOL   H140 8512   4.628   2.262   1.695  1.0486 -0.2499  1.0211
   27MOL   H141 8513   4.429   2.113   1.721  0.0098 -0.5022  0.7336
   27MOL   H142 8514   4.242   2.193   1.866 -2.1434  3.2640  0.2180
   27MOL   H143 8515   4.251   2.413   1.977 -0.6944 -0.0527 -0.9868
   27MOL   H144 8516   4.378   2.545   2.122  1.0630  0.0889  2.4592
   27MOL   H145 8517   4.449   2.707   2.121  1.0891  0.6678 -1.1317
   27MOL   C146 8518   4.597   2.557   2.116 -0.4981 -0.3346  0.6521
   27MOL   C147 8519   4.593   2.482   2.245 -0.0725  0.0233  0.3379
   27MOL   C148 8520   4.633   2.344   2.257  0.9275  0.3379 -0.0175
   27MOL  Cl149 8521   4.687   2.259   2.113 -0.6035 -0.2861 -0.4922
   27MOL   C150 8522   4.617   2.273   2.381 -0.9276  0.0559 -0.8314
   27MOL   C151 8523   4.570   2.344   2.493  0.5492 -1.0109 -0.3693
   27MOL   C152 8524   4.536   2.481   2.480  0.6647 -0.0789  0.0419
   27MOL   C153 8525   4.539   2.545   2.360  0.1276 -0.5564 -1.0164
   27MOL   C154 8526   4.698   2.668   2.109  0.3713  0.0481 -0.5419
   27MOL   H155 8527   4.629   2.486   2.039  1.5079 -1.1200  2.1754
   27MOL   H156 8528   4.658   2.173   2.378 -2.1450 -0.4659 -0.0122
   27MOL   H157 8529   4.564   2.291   2.587 -1.0522  0.8871  0.6333
   27MOL   H158 8530   4.505   2.531   2.570 -1.8706  0.2119 -0.9392
   27MOL   H159 8531   4.514   2.650   2.360  2.7000  0.1121  0.4890
   27MOL   H160 8532   4.663   2.754   2.167 -0.9339  0.4875 -1.9657
   27MOL   H161 8533   4.701   2.710   2.009  2.5980 -0.3875 -0.6903
   27MOL   C162 8534   4.841   2.621   2.155 -0.7313  0.1478  0.0201
   27MOL   C163 8535   4.917   2.734   2.220 -0.5409 -0.4575 -0.3612
   27MOL   C164 8536   4.951   2.731   2.360 -0.1288 -0.3059  0.1359
   27MOL  Cl165 8537   4.911   2.597   2.453 -0.2030  0.1605 -0.1649
   27MOL   C166 8538   5.039   2.830   2.421 -0.0793  0.0936 -0.2686
   27MOL   C167 8539   5.084   2.936   2.340 -0.0183  0.2568  0.3823
   27MOL   C168 8540   5.057   2.943   2.203 -0.0343 -0.4712 -0.7145
   27MOL   C169 8541   4.967   2.847   2.144 -0.3030 -0.1565  0.1931
   27MOL   C170 8542   4.917   2.564   2.030 -0.5082 -0.7351  0.1351
   27MOL   H171 8543   4.832   2.537   2.223 -1.2899 -0.1504 -0.4103
   27MOL   H172 8544   5.059   2.829   2.527  2.0165 -1.6948 -0.6579
   27MOL   H173 8545   5.131   3.023   2.384 -0.5117 -0.2601  1.9443
   27MOL   H174 8546   5.091   3.029   2.148  1.8601 -0.4986  0.3359
   27MOL   H175 8547   4.940   2.853   2.040  0.4831 -3.5751 -0.2457
   27MOL   H176 8548   4.940   2.640   1.955 -0.3974  1.1014  1.9775
   27MOL   H177 8549   4.856   2.488   1.983 -0.8166 -2.2071  2.8105
   27MOL   C178 8550   5.061   2.513   2.056 -0.3457 -0.2155  0.2509
   27MOL   C179 8551   5.142   2.470   1.939  1.0758  0.2563  0.5735
   27MOL   C180 8552   5.253   2.543   1.896 -0.5513  0.5930 -0.1417
   27MOL  Cl181 8553   5.297   2.691   1.973  0.0889 -0.2967  0.1130
   27MOL   C182 8554   5.333   2.500   1.784  0.0161 -0.7233 -0.2172
   27MOL   C183 8555   5.297   2.382   1.721  0.1332 -0.6952  0.1697
   27MOL   C184 8556   5.189   2.308   1.765  0.2815 -0.6219 -0.1246
   27MOL   C185 8557   5.107   2.355   1.869 -0.2486  0.1540  0.1514
   27MOL   C186 8558   5.064   2.404   2.163 -0.1243  0.3139  0.0251
   27MOL   H187 8559   5.112   2.601   2.095  0.3486 -0.1169 -0.8757
   27MOL   H188 8560   5.416   2.567   1.764 -1.3281  1.0967  0.1013
   27MOL   H189 8561   5.364   2.349   1.642 -0.2499  0.8184 -0.8173
   27MOL   H190 8562   5.156   2.224   1.705 -1.5960  1.1129 -1.5870
   27MOL   H191 8563   5.021   2.295   1.897 -2.2888  2.1486 -1.7232
   27MOL   H192 8564   5.015   2.317   2.120 -1.4851  0.3631  1.4184
   27MOL   H193 8565   5.005   2.433   2.251  2.0778 -0.7739  1.9169
   27MOL   C194 8566   5.210   2.370   2.212  0.7476 -0.1299  0.9396
   27MOL   C195 8567   5.204   2.252   2.306 -0.2289 -0.5563 -0.2586
   27MOL   C196 8568   5.277   2.134   2.280  1.0680 -0.0552 -0.5185
   27MOL  Cl197 8569   5.382   2.107   2.147 -0.1402  0.1157 -0.1791
   27MOL   C198 8570   5.259   2.023   2.368 -0.4231  0.1659 -0.5788
   27MOL   C199 8571   5.166   2.029   2.475 -0.1086 -0.0104  0.4385
   27MOL   C200 8572   5.098   2.151   2.502 -0.2432  0.0416 -0.3610
   27MOL   C201 8573   5.119   2.260   2.420 -0.0870 -0.6569  0.0343
   27MOL   C202 8574   5.294   2.485   2.276  0.4429 -0.1964 -0.3885
   27MOL   H203 8575   5.270   2.334   2.129 -0.6729 -0.7770  0.1740
   27MOL   H204 8576   5.309   1.929   2.350 -1.6409 -0.2228 -2.0163
   27MOL   H205 8577   5.145   1.946   2.541 -2.4130  1.4740  1.6667
   27MOL   H206 8578   5.033   2.152   2.588 -3.5490 -0.0683 -2.7281
   27MOL   H207 8579   5.061   2.350   2.435 -0.3433 -1.0383  1.4131
   27MOL   H208 8580   5.244   2.513   2.368 -1.4145 -2.6425 -0.5838
   27MOL   H209 8581   5.296   2.570   2.208  0.7060  0.0118 -0.1187
   27MOL   C210 8582   5.450   2.454   2.300  0.4166  1.1566 -0.0021
   27MOL   C211 8583   5.518   2.565   2.377 -0.4872 -0.3191  0.8042
   27MOL   C212 8584   5.582   2.546   2.505 -0.9772 -0.5430 -0.1254
   27MOL  Cl213 8585   5.609   2.389   2.573  0.1636  0.1886 -0.0075
   27MOL   C214 8586   5.640   2.656   2.572 -0.4423  0.1854 -0.1345
   27MOL   C215 8587   5.609   2.782   2.531  0.2428 -0.5806 -0.6059
   27MOL   C216 8588   5.545   2.808   2.406  0.1650 -0.9802  0.2401
   27MOL   C217 8589   5.505   2.692   2.328 -0.3919 -0.6511  0.5983
   27MOL   C218 8590   5.517   2.446   2.159 -0.8129  0.6166 -0.3386
   27MOL   H219 8591   5.448   2.357   2.350  0.2809  1.6392  0.9392
   27MOL   H220 8592   5.690   2.652   2.668 -1.2766 -2.0629  0.2512
   27MOL   H221 8593   5.645   2.863   2.592  0.2121 -0.8134 -0.2796
   27MOL   H222 8594   5.514   2.907   2.375  3.5347  0.4399  1.1521
   27MOL   H223 8595   5.476   2.711   2.226  0.6443 -0.6252  0.3022
   27MOL   H224 8596   5.519   2.542   2.108  1.5328  1.0415  0.4807
   27MOL   H225 8597   5.473   2.376   2.088  0.8111  0.0083 -0.7720
   27MOL   C226 8598   5.665   2.399   2.153  0.0967  0.1203 -0.4178
   27MOL   C227 8599   5.727   2.433   2.017  0.6047 -0.9069 -0.7834
   27MOL   C228 8600   5.837   2.526   1.994  1.1128 -0.0761 -0.0324
   27MOL  Cl229 8601   5.915   2.615   2.120 -0.2401 -0.2045 -0.2548
   27MOL   C230 8602   5.885   2.551   1.867  0.2921 -0.0749 -0.5888
   27MOL   C231 8603   5.830   2.490   1.759 -0.8102 -0.5020 -0.8345
   27MOL   C232 8604   5.720   2.401   1.776  0.1672 -0.3637 -0.7392
   27MOL   C233 8605   5.677   2.364   1.903 -0.5082 -0.2625  0.3407
   27MOL   C234 8606   5.699   2.259   2.199 -0.3685  0.8654 -0.4377
   27MOL   H235 8607   5.724   2.457   2.224 -0.1748 -0.7939  0.5625
   27MOL   H236 8608   5.972   2.612   1.847 -0.6682  0.5032 -3.2788
   27MOL   H237 8609   5.873   2.517   1.664 -0.6951 -0.6582 -0.8276
   27MOL   H238 8610   5.681   2.349   1.689  1.9902  0.1297 -1.8838
   27MOL   H239 8611   5.599   2.290   1.908  0.3287 -1.3447 -1.8967
   27MOL   H240 8612   5.656   2.198   2.119 -0.7976 -0.9817  1.1733
   27MOL   H241 8613   5.633   2.225   2.279 -1.7885 -0.5181 -2.1461
   27MOL   C242 8614   5.851   2.213   2.211  0.2820 -0.1750 -0.5277
   27MOL   C243 8615   5.857   2.066   2.189 -0.0088 -0.1385 -0.4044
   27MOL   C244 8616   5.939   2.009   2.090  0.4323  0.2978  0.1993
   27MOL  Cl245 8617   6.020   2.113   1.979 -0.1767 -0.1425  0.0939
   27MOL   C246 8618   5.954   1.867   2.073 -0.0885 -1.0212  0.3456
   27MOL   C247 8619   5.894   1.785   2.167 -0.0224  0.1155  0.4776
   27MOL   C248 8620   5.814   1.835   2.269 -0.1474 -0.1297 -0.0604
   27MOL   C249 8621   5.795   1.974   2.283  0.3305 -0.5100  0.3862
   27MOL   C250 8622   5.906   2.250   2.354 -0.1949  0.3603 -0.4051
   27MOL   H251 8623   5.901   2.270   2.132  0.9660 -0.1284 -0.0702
   27MOL   H252 8624   6.004   1.825   1.987 -2.2286 -2.3977 -0.2657
   27MOL   H253 8625   5.906   1.680   2.143 -2.5352  0.1060 -0.8911
   27MOL   H254 8626   5.753   1.767   2.327 -1.1551  0.1720 -0.7507
   27MOL   H255 8627   5.730   2.024   2.353  1.0074  1.5422 -0.4035
   27MOL   H256 8628   5.877   2.178   2.431  0.9028  2.4769  2.0577
   27MOL   H257 8629   5.857   2.336   2.399  0.0413  0.0147  0.5329
   27MOL   C258 8630   6.057   2.264   2.358 -0.0818 -0.1686  0.4540
   27MOL   C259 8631   6.107   2.255   2.503  0.4186  0.7609  0.3078
   27MOL   C260 8632   6.199   2.155   2.540 -0.6160 -0.1969  0.4296
   27MOL  Cl261 8633   6.248   2.037   2.423  0.2776  0.1736 -0.1484
   27MOL   C262 8634   6.249   2.151   2.674 -0.5587  0.0557 -0.6490
   27MOL   C263 8635   6.221   2.253   2.763  0.1879  0.0365  0.5307
   27MOL   C264 8636   6.135   2.353   2.727 -0.2372 -0.4217 -0.4196
   27MOL   C265 8637   6.076   2.359   2.598 -0.5687  0.5126  0.3783
   27MOL   C266 8638   6.100   2.399   2.296  0.5786  0.1184 -0.5818
   27MOL   H267 8639   6.094   2.184   2.294 -1.7136 -0.5111 -0.0714
   27MOL   H268 8640   6.327   2.086   2.709 -0.3488  1.4648  1.6069
   27MOL   H269 8641   6.263   2.252   2.863 -1.2747  0.3683  1.1714
   27MOL   H270 8642   6.114   2.430   2.800  1.2275 -0.5566  0.1697
   27MOL   H271 8643   6.009   2.440   2.573 -0.0419  1.4503  1.9334
   27MOL   H272 8644   6.049   2.486   2.336 -0.8502 -0.7514 -0.4510
   27MOL   H273 8645   6.066   2.401   2.192 -1.0572 -1.0535 -0.0924
   27MOL   C274 8646   6.251   2.424   2.282  0.2793 -0.7433 -0.0619
   27MOL   C275 8647   6.258   2.564   2.217 -0.4461  0.3643  0.1580
   27MOL   C276 8648   6.290   2.676   2.298  0.0375 -0.4696  0.4317
   27MOL  Cl277 8649   6.329   2.664   2.461  0.0259  0.3065  0.0909
   27MOL   C278 8650   6.300   2.804   2.235 -0.4499 -0.5162  0.1407
   27MOL   C279 8651   6.273   2.817   2.101 -0.2876  0.3591  0.3129
   27MOL   C280 8652   6.245   2.711   2.013 -0.3533 -0.1631  0.0981
   27MOL   C281 8653   6.244   2.581   2.075 -0.8626 -0.0098 -0.3119
   27MOL   C282 8654   6.340   2.323   2.204  0.2894 -0.5478  0.2821
   27MOL   H283 8655   6.292   2.436   2.382  0.0105 -2.3155  0.2599
   27MOL   H284 8656   6.315   2.892   2.296  0.6118 -1.6586  1.5733
   27MOL   H285 8657   6.266   2.916   2.057 -1.4282  0.0076 -0.3162
   27MOL   H286 8658   6.220   2.721   1.908 -0.5831  0.3075  0.1974
   27MOL   H287 8659   6.201   2.506   2.012  0.5135  0.4825 -1.8726
   27MOL   H288 8660   6.276   2.311   2.117 -0.0548  2.7930  0.0237
   27MOL   H289 8661   6.346   2.223   2.248 -1.1054 -0.9409 -0.3942
   27MOL   C290 8662   6.479   2.367   2.170  0.1244  0.1656 -0.4511
   27MOL   C291 8663   6.535   2.287   2.054  0.8539 -0.2338  0.4524
   27MOL   C292 8664   6.573   2.353   1.931 -0.4453 -0.6555  0.1175
   27MOL  Cl293 8665   6.575   2.528   1.912 -0.2080 -0.0139 -0.2534
   27MOL   C294 8666   6.644   2.271   1.830  0.6456  0.5171  0.0293
   27MOL   C295 8667   6.648   2.127   1.850 -0.2606  0.2263  0.2030
   27MOL   C296 8668   6.591   2.074   1.963 -0.2767 -0.1835  0.1177
   27MOL   C297 8669   6.549   2.149   2.071 -0.0733  0.2351  0.2535
   27MOL   C298 8670   6.576   2.371   2.298 -0.6718 -0.3814  0.4579
   27MOL   H299 8671   6.468   2.471   2.140 -0.7444 -0.3851 -2.0746
   27MOL   H300 8672   6.694   2.314   1.744 -0.2094 -2.1342 -1.8775
   27MOL   H301 8673   6.695   2.068   1.773 -1.1095  0.3233 -0.4054
   27MOL   H302 8674   6.584   1.966   1.963 -1.0131 -0.1960 -2.7151
   27MOL   H303 8675   6.525   2.092   2.159  1.6099 -0.6327  0.1824
   27MOL   H304 8676   6.593   2.264   2.310  2.7580 -0.2328 -1.9964
   27MOL   H305 8677   6.531   2.405   2.391  0.0340 -1.9532  1.3959
   27MOL   C306 8678   6.707   2.446   2.267  0.0551  0.7497  0.1181
   27MOL   C307 8679   6.826   2.409   2.365 -0.1101  0.3013  0.6297
   27MOL   C308 8680   6.826   2.421   2.507 -0.3282  0.8002  0.0277
   27MOL  Cl309 8681   6.677   2.464   2.590 -0.7249  0.0168  0.3592
   27MOL   C310 8682   6.939   2.403   2.586  0.0905  0.3340  0.2627
   27MOL   C311 8683   7.062   2.368   2.522  0.0403 -0.7102  0.3246
   27MOL   C312 8684   7.064   2.366   2.376  0.2248 -0.0876  0.0405
   27MOL   C313 8685   6.951   2.385   2.300  0.9132  0.7639  0.1617
   27MOL   C314 8686   6.696   2.595   2.280 -0.1371 -0.0123  0.5888
   27MOL   H315 8687   6.737   2.421   2.165 -0.8361  1.1711 -0.2478
   27MOL   H316 8688   6.934   2.424   2.692  0.9309  0.6880  0.2362
   27MOL   H317 8689   7.149   2.351   2.583 -0.2056 -1.5254  0.4505
   27MOL   H318 8690   7.153   2.338   2.321  1.0292 -0.0779  1.3165
   27MOL   H319 8691   6.955   2.348   2.199 -0.3641 -0.3908  0.5098
   27MOL   H320 8692   6.613   2.634   2.222  0.2631 -1.8075 -1.2434
   27MOL   H321 8693   6.781   2.644   2.233 -1.4948 -0.2364 -2.1892
   27MOL   H322 8694   6.687   2.632   2.382 -0.8906  0.2429  0.4308
   28MOL     C1 8695   1.549   3.140   6.680 -0.6112  0.0570  0.9003
   28MOL     C2 8696   1.610   3.171   6.542 -0.6004  0.0377 -0.5703
   28MOL     C3 8697   1.732   3.112   6.506  0.3514  0.1755  0.5816
   28MOL    Cl4 8698   1.806   2.982   6.594 -0.0978  0.1771 -0.1293
   28MOL     C5 8699   1.784   3.142   6.374 -0.0857  0.7350  0.0170
   28MOL     C6 8700   1.717   3.224   6.287  0.0478  0.4612  0.5119
   28MOL     C7 8701   1.597   3.284   6.320 -0.4988  0.7511 -0.0615
   28MOL     C8 8702   1.548   3.259   6.453  0.1116 -0.1785 -0.1272
   28MOL     C9 8703   1.544   3.270   6.767 -0.1709  0.2002 -0.0688
   28MOL    H10 8704   1.447   3.126   6.645  0.2826  1.7565 -2.5927
   28MOL    H11 8705   1.875   3.094   6.342  0.3742  0.6673  1.4224
   28MOL    H12 8706   1.762   3.243   6.191  1.6993 -0.5271  1.0749
   28MOL    H13 8707   1.550   3.358   6.256 -0.2847 -0.6336 -1.8767
   28MOL    H14 8708   1.461   3.318   6.478 -0.1429  0.2870 -1.9768
   28MOL    H15 8709   1.492   3.352   6.719 -0.1608 -1.4321 -2.9652
   28MOL    H16 8710   1.643   3.304   6.799 -0.3524  2.2169 -1.5692
   28MOL    H17 8711   1.583   3.051   6.733  0.0356  0.4208  1.0981
   28MOL    C18 8712   1.458   3.251   6.899  0.0125  0.0178 -0.7813
   28MOL    C19 8713   1.311   3.221   6.865 -0.4734 -0.4751  0.8153
   28MOL    C20 8714   1.250   3.095   6.902  0.0850  0.6065  0.1719
   28MOL   Cl21 8715   1.348   2.970   6.982 -0.3904  0.0343  0.1876
   28MOL    C22 8716   1.114   3.071   6.865 -0.1084  0.3039  0.0745
   28MOL    C23 8717   1.043   3.168   6.800  0.8022 -0.3668 -0.2051
   28MOL    C24 8718   1.100   3.295   6.772 -0.2458  0.2038 -0.8601
   28MOL    C25 8719   1.233   3.316   6.796  0.0355 -0.0224 -0.1595
   28MOL    C26 8720   1.474   3.362   7.006  0.1585  0.3108  0.3972
   28MOL    H27 8721   1.490   3.155   6.938  2.5457  0.6387 -1.2498
   28MOL    H28 8722   1.076   2.975   6.895 -1.2079  0.6194 -0.3056
   28MOL    H29 8723   0.938   3.150   6.782  1.1070 -1.6002 -0.8053
   28MOL    H30 8724   1.040   3.368   6.720 -2.4807 -0.8528  0.1482
   28MOL    H31 8725   1.273   3.414   6.777 -2.9368  0.7998 -2.4761
   28MOL    H32 8726   1.400   3.346   7.084  0.9863  0.1626  1.1571
   28MOL    H33 8727   1.447   3.458   6.963 -1.1520 -1.5757 -3.1756
   28MOL    C34 8728   1.617   3.380   7.063  0.2040 -0.1578  0.1313
   28MOL    C35 8729   1.679   3.246   7.115 -0.0074  0.0015  0.2753
   28MOL    C36 8730   1.810   3.210   7.082  0.6841  0.2667 -0.0501
   28MOL   Cl37 8731   1.907   3.316   6.986 -0.0922 -0.4408  0.4653
   28MOL    C38 8732   1.866   3.093   7.130 -0.1125  0.4207  0.0577
   28MOL    C39 8733   1.796   3.005   7.215  0.1628  0.2153  0.1158
   28MOL    C40 8734   1.663   3.039   7.246  0.9502  0.0441  0.5483
   28MOL    C41 8735   1.604   3.158   7.198 -0.1364  0.3871 -0.2131
   28MOL    C42 8736   1.610   3.484   7.178  0.9486 -0.1967  0.2551
   28MOL    H43 8737   1.675   3.429   6.985 -1.3953  0.7748 -0.5193
   28MOL    H44 8738   1.963   3.075   7.085 -1.0902  0.0809 -1.9965
   28MOL    H45 8739   1.845   2.916   7.254 -2.1711  0.1323  3.0543
   28MOL    H46 8740   1.601   2.976   7.308 -1.3543 -0.1608 -1.8886
   28MOL    H47 8741   1.505   3.183   7.232  0.3136 -1.0147  2.2562
   28MOL    H48 8742   1.567   3.440   7.269 -0.0835  0.1025 -0.0735
   28MOL    H49 8743   1.538   3.564   7.160 -0.5305 -1.4894  0.3145
   28MOL    C50 8744   1.735   3.564   7.219  0.2735  0.3491  0.4292
   28MOL    C51 8745   1.722   3.605   7.364  0.8657 -0.0720  0.5345
   28MOL    C52 8746   1.792   3.535   7.465 -0.6288 -0.1262 -0.8704
   28MOL   Cl53 8747   1.892   3.399   7.418  0.2330 -0.0584  0.2366
   28MOL    C54 8748   1.770   3.567   7.604 -0.2722  0.4294  0.0853
   28MOL    C55 8749   1.700   3.680   7.637 -1.0108 -0.3691 -0.0558
   28MOL    C56 8750   1.635   3.753   7.536  0.3853 -0.3930 -0.5451
   28MOL    C57 8751   1.636   3.710   7.399 -0.1059 -0.1008 -0.2628
   28MOL    C58 8752   1.761   3.691   7.130  0.8630 -0.4545 -0.4124
   28MOL    H59 8753   1.822   3.500   7.205  0.0829  0.1317  0.2447
   28MOL    H60 8754   1.805   3.496   7.678 -1.5469 -0.6759 -0.3473
   28MOL    H61 8755   1.687   3.708   7.740  0.8940  1.0619 -0.1849
   28MOL    H62 8756   1.571   3.836   7.561  0.2269 -0.5238 -0.5109
   28MOL    H63 8757   1.579   3.765   7.325  0.8600 -2.6722 -3.0000
   28MOL    H64 8758   1.666   3.746   7.124 -0.1807 -1.9849  1.4907
   28MOL    H65 8759   1.781   3.658   7.029 -0.0675  0.8670 -1.0451
   28MOL    C66 8760   1.872   3.792   7.172  0.1696  0.0263  0.1316
   28MOL    C67 8761   1.862   3.922   7.090  0.6393  0.6158 -0.8650
   28MOL    C68 8762   1.784   4.028   7.129 -1.3118 -0.4150 -0.8268
   28MOL   Cl69 8763   1.690   4.040   7.272  0.3180  0.1350 -0.1970
   28MOL    C70 8764   1.806   4.155   7.063 -0.2533 -0.2401  0.2248
   28MOL    C71 8765   1.887   4.170   6.948  0.6346  0.1038 -0.0880
   28MOL    C72 8766   1.953   4.061   6.899 -0.8209  0.3581 -0.7032
   28MOL    C73 8767   1.933   3.937   6.966  0.8355 -0.1450 -0.1497
   28MOL    C74 8768   2.008   3.725   7.179 -0.0491  0.9274  0.2974
   28MOL    H75 8769   1.848   3.815   7.275 -0.9204 -1.3529  0.2083
   28MOL    H76 8770   1.736   4.235   7.083 -1.1882 -0.9577 -0.1385
   28MOL    H77 8771   1.886   4.270   6.905  2.7669  1.3035  2.4994
   28MOL    H78 8772   2.000   4.071   6.803  0.3405  1.4779 -0.0336
   28MOL    H79 8773   1.983   3.849   6.928 -3.7849 -2.8870 -0.3034
   28MOL    H80 8774   2.033   3.683   7.081 -0.4227 -2.0377  1.4193
   28MOL    H81 8775   2.010   3.635   7.241  2.4302 -1.0867 -2.5170
   28MOL    C82 8776   2.126   3.816   7.220 -0.1771 -0.3852 -0.5531
   28MOL    C83 8777   2.253   3.738   7.204 -0.2127 -0.0353 -0.3430
   28MOL    C84 8778   2.327   3.731   7.080 -0.5809 -0.2787 -0.4279
   28MOL   Cl85 8779   2.273   3.816   6.940  0.1088 -0.1347  0.1155
   28MOL    C86 8780   2.446   3.653   7.069 -0.0632  0.4103  0.2872
   28MOL    C87 8781   2.497   3.591   7.183 -0.5894 -0.1226  0.4891
   28MOL    C88 8782   2.424   3.599   7.301 -0.5770  0.0644 -0.2711
   28MOL    C89 8783   2.305   3.667   7.312  0.1101  0.5454 -0.3339
   28MOL    C90 8784   2.103   3.887   7.355  0.2505  0.7902 -0.3273
   28MOL    H91 8785   2.136   3.894   7.145 -0.6928  2.2662  2.0605
   28MOL    H92 8786   2.504   3.663   6.979 -1.6358 -0.3186 -0.8171
   28MOL    H93 8787   2.589   3.535   7.172 -0.9219 -1.2344  2.9538
   28MOL    H94 8788   2.453   3.546   7.390  0.6678  1.0400 -0.0847
   28MOL    H95 8789   2.253   3.661   7.406  0.6602  3.4995  0.1961
   28MOL    H96 8790   2.106   3.810   7.433 -1.6981 -0.2723 -1.2872
   28MOL    H97 8791   2.005   3.934   7.360  0.1819  0.5371  0.8694
   28MOL    C98 8792   2.206   3.988   7.392  0.1483  0.3131  0.2123
   28MOL    C99 8793   2.206   4.013   7.543 -0.1419 -0.4055  0.7547
   28MOL   C100 8794   2.329   4.014   7.620  0.1998 -0.0478  0.7921
   28MOL  Cl101 8795   2.488   3.994   7.550 -0.0786 -0.1047  0.2259
   28MOL   C102 8796   2.316   4.015   7.762  0.1272  0.5574 -0.3499
   28MOL   C103 8797   2.189   4.002   7.824 -0.2606 -0.5033 -0.1653
   28MOL   C104 8798   2.079   4.020   7.742 -0.7274  0.0504 -0.3838
   28MOL   C105 8799   2.084   4.027   7.604 -0.1769 -0.0058  0.1750
   28MOL   C106 8800   2.177   4.118   7.318 -0.1195 -0.3142  0.1963
   28MOL   H107 8801   2.300   3.940   7.366  0.5495  0.3415  1.5594
   28MOL   H108 8802   2.401   4.018   7.830  0.2459  1.0549 -0.5183
   28MOL   H109 8803   2.173   4.001   7.931  2.6418 -0.1457  0.3097
   28MOL   H110 8804   1.984   4.014   7.793  0.9643 -2.0389  2.6206
   28MOL   H111 8805   1.999   4.039   7.538 -0.8541 -1.1676  0.8307
   28MOL   H112 8806   2.099   4.169   7.375 -0.5920 -0.7263 -0.0692
   28MOL   H113 8807   2.136   4.091   7.221  0.1550 -3.6847  0.9407
   28MOL   C114 8808   2.291   4.215   7.307 -0.3647 -0.4239 -0.0653
   28MOL   C115 8809   2.245   4.358   7.267  0.1711  0.2980 -1.1674
   28MOL   C116 8810   2.250   4.472   7.354  0.1969 -0.4267  0.4959
   28MOL  Cl117 8811   2.307   4.463   7.515 -0.0409 -0.1594  0.3827
   28MOL   C118 8812   2.221   4.604   7.311 -0.3434  0.3978 -0.2994
   28MOL   C119 8813   2.176   4.627   7.180  0.7568  0.4664  0.1149
   28MOL   C120 8814   2.165   4.514   7.093 -0.0701  0.2973  0.1087
   28MOL   C121 8815   2.204   4.383   7.137  0.5247 -0.3846 -0.1175
   28MOL   C122 8816   2.410   4.163   7.218  0.1556 -0.1161 -0.1200
   28MOL   H123 8817   2.333   4.221   7.408  2.4801  0.9620 -1.2898
   28MOL   H124 8818   2.238   4.689   7.376  1.2411  0.5125 -0.8646
   28MOL   H125 8819   2.129   4.723   7.163  1.5337  1.2833  2.4236
   28MOL   H126 8820   2.128   4.522   6.992  2.3305 -1.4169 -0.9628
   28MOL   H127 8821   2.194   4.303   7.066 -1.4843  0.1117 -0.4203
   28MOL   H128 8822   2.351   4.126   7.134  1.3423  0.5082 -1.2476
   28MOL   H129 8823   2.462   4.077   7.259  0.8754  0.5783  0.4437
   28MOL   C130 8824   2.521   4.257   7.163  0.3701 -0.1666 -0.1555
   28MOL   C131 8825   2.580   4.191   7.040  0.0369 -0.5145  0.2156
   28MOL   C132 8826   2.557   4.229   6.909  1.0040  0.7646  0.1994
   28MOL  Cl133 8827   2.446   4.353   6.862  0.0058  0.0546  0.0766
   28MOL   C134 8828   2.623   4.162   6.808  0.2985 -0.1240 -0.5634
   28MOL   C135 8829   2.710   4.050   6.838  0.2356 -0.1287  0.1726
   28MOL   C136 8830   2.729   4.011   6.972 -0.0363  0.6886  0.1599
   28MOL   C137 8831   2.658   4.077   7.073 -0.4887  0.3227 -0.2189
   28MOL   C138 8832   2.631   4.293   7.263  0.4653 -0.5055  0.3188
   28MOL   H139 8833   2.477   4.348   7.123  1.4920 -0.5400 -2.3251
   28MOL   H140 8834   2.600   4.179   6.704  0.1838  1.3693 -0.3038
   28MOL   H141 8835   2.747   3.988   6.757  0.8310  1.6807 -0.9750
   28MOL   H142 8836   2.782   3.923   7.005  1.2309  1.0670 -0.8284
   28MOL   H143 8837   2.672   4.051   7.177 -0.0713  1.2729 -0.0325
   28MOL   H144 8838   2.679   4.213   7.319  1.5888 -0.1135 -0.0704
   28MOL   H145 8839   2.578   4.354   7.336  0.6502  0.3879 -0.2788
   28MOL   C146 8840   2.740   4.409   7.223 -0.4122 -0.4019  0.0693
   28MOL   C147 8841   2.717   4.490   7.097  0.1996 -0.0135 -0.6005
   28MOL   C148 8842   2.632   4.605   7.098  0.4638  0.0911  0.2979
   28MOL  Cl149 8843   2.570   4.659   7.250 -0.5159 -0.0264  0.5252
   28MOL   C150 8844   2.598   4.672   6.974 -0.3031 -0.2584 -0.0456
   28MOL   C151 8845   2.656   4.633   6.853  0.2975  0.1281 -0.2531
   28MOL   C152 8846   2.743   4.526   6.855 -0.3648  0.9958  0.5609
   28MOL   C153 8847   2.770   4.449   6.971 -0.7716  0.7184 -0.4484
   28MOL   C154 8848   2.887   4.351   7.226  0.0734  0.2457 -0.3210
   28MOL   H155 8849   2.746   4.483   7.303 -2.3278  1.6621 -1.6100
   28MOL   H156 8850   2.530   4.756   6.968 -0.8761 -0.6130  1.2257
   28MOL   H157 8851   2.626   4.684   6.763 -0.1361 -0.0885 -0.2336
   28MOL   H158 8852   2.778   4.483   6.763 -1.7768 -0.4351  0.6660
   28MOL   H159 8853   2.842   4.369   6.960 -1.1896  0.5161 -1.6876
   28MOL   H160 8854   2.953   4.410   7.163 -0.2816  1.5724  0.5321
   28MOL   H161 8855   2.885   4.251   7.183 -0.5231 -0.8228  2.0880
   28MOL   C162 8856   2.953   4.360   7.368  1.3608  0.3856 -0.1670
   28MOL   C163 8857   3.092   4.312   7.368 -0.0909 -0.8113 -0.8153
   28MOL   C164 8858   3.201   4.397   7.398 -0.7383  0.1860 -0.0189
   28MOL  Cl165 8859   3.185   4.571   7.405 -0.0315 -0.4742  0.1139
   28MOL   C166 8860   3.333   4.343   7.401 -0.1103  0.2008  0.1164
   28MOL   C167 8861   3.357   4.210   7.367  0.0735  0.1413  0.3763
   28MOL   C168 8862   3.246   4.118   7.342  0.7070  0.5391  0.2541
   28MOL   C169 8863   3.114   4.174   7.356 -0.1311  0.5130 -0.6741
   28MOL   C170 8864   2.859   4.297   7.478 -0.0520  0.0886  0.5678
   28MOL   H171 8865   2.955   4.467   7.388  0.3830  0.0421  1.9139
   28MOL   H172 8866   3.406   4.417   7.427  1.0429 -2.0995  3.8748
   28MOL   H173 8867   3.455   4.165   7.356 -0.8862 -1.6450 -1.2042
   28MOL   H174 8868   3.266   4.017   7.307 -0.4200  0.2858  0.3059
   28MOL   H175 8869   3.032   4.105   7.349  0.3189  0.1154 -2.4366
   28MOL   H176 8870   2.847   4.192   7.452 -1.4765  0.0598  1.3430
   28MOL   H177 8871   2.758   4.338   7.485  0.7668  1.8256  2.6468
   28MOL   C178 8872   2.920   4.277   7.618  0.9914 -0.6595  0.3893
   28MOL   C179 8873   2.826   4.188   7.708  0.0670 -0.2417  0.6124
   28MOL   C180 8874   2.865   4.061   7.762 -0.2793 -0.5531  0.1031
   28MOL  Cl181 8875   3.023   3.993   7.739 -0.0206 -0.3805 -0.3885
   28MOL   C182 8876   2.783   3.995   7.851  0.0642 -0.1240 -0.1583
   28MOL   C183 8877   2.659   4.035   7.894 -0.6074  0.4441 -0.8897
   28MOL   C184 8878   2.621   4.155   7.840  0.0157  0.0903 -0.5786
   28MOL   C185 8879   2.698   4.226   7.748  0.0118 -0.0531  0.1680
   28MOL   C186 8880   2.946   4.405   7.691 -0.2068 -0.6708 -0.1489
   28MOL   H187 8881   3.020   4.233   7.619  0.9510 -0.7500  1.7027
   28MOL   H188 8882   2.814   3.898   7.887 -0.5833  0.3184  1.6624
   28MOL   H189 8883   2.598   3.971   7.956  0.1690 -1.0659 -1.6642
   28MOL   H190 8884   2.520   4.187   7.862  0.4722  1.0817  0.1034
   28MOL   H191 8885   2.656   4.321   7.719  0.6144 -0.0517 -0.7195
   28MOL   H192 8886   2.852   4.454   7.719  1.3858  2.1678  0.4400
   28MOL   H193 8887   2.989   4.479   7.623  0.7210 -0.8725  0.2240
   28MOL   C194 8888   3.047   4.398   7.809  0.4690  0.1615  0.3992
   28MOL   C195 8889   3.001   4.500   7.915  0.4176 -0.3890 -0.4270
   28MOL   C196 8890   2.950   4.466   8.038 -0.4289 -0.2886 -0.5347
   28MOL  Cl197 8891   2.919   4.300   8.088  0.3689 -0.1468  0.3176
   28MOL   C198 8892   2.925   4.569   8.130 -0.3420 -0.2697 -0.3404
   28MOL   C199 8893   2.953   4.705   8.102  0.5238  0.1045 -0.6537
   28MOL   C200 8894   2.983   4.738   7.972 -0.4997  0.2427 -0.4167
   28MOL   C201 8895   3.009   4.639   7.875 -0.4927  0.4184  0.2103
   28MOL   C202 8896   3.191   4.418   7.751  0.4563 -0.2591  0.4004
   28MOL   H203 8897   3.044   4.303   7.862  1.1167  1.4335  2.7875
   28MOL   H204 8898   2.879   4.561   8.227  0.4863  0.6921  0.1384
   28MOL   H205 8899   2.923   4.782   8.171  0.1323  0.4790 -1.2280
   28MOL   H206 8900   2.978   4.841   7.942 -1.5852 -0.1545 -1.6677
   28MOL   H207 8901   3.038   4.674   7.778  3.5736 -2.8920  0.1102
   28MOL   H208 8902   3.197   4.519   7.710  1.8545 -0.4772  0.0431
   28MOL   H209 8903   3.219   4.348   7.673 -0.2575 -0.1256  0.0136
   28MOL   C210 8904   3.300   4.412   7.867  0.0131 -0.4597  0.4534
   28MOL   C211 8905   3.430   4.487   7.821  0.1195 -0.4062  0.1820
   28MOL   C212 8906   3.465   4.610   7.884  0.2950  0.8095 -0.5632
   28MOL  Cl213 8907   3.373   4.685   8.012 -0.3258  0.1670 -0.0492
   28MOL   C214 8908   3.588   4.674   7.848 -0.0872 -0.0268  1.1590
   28MOL   C215 8909   3.660   4.622   7.741  0.2663 -0.4970  0.5733
   28MOL   C216 8910   3.622   4.510   7.665 -0.0006 -0.0030 -0.1376
   28MOL   C217 8911   3.512   4.436   7.710  0.2574  0.2271 -0.9192
   28MOL   C218 8912   3.335   4.267   7.913  0.4550 -0.1931  0.1950
   28MOL   H219 8913   3.265   4.468   7.954  0.2454  0.8394 -0.2864
   28MOL   H220 8914   3.615   4.769   7.890 -1.2019  0.9183 -0.2253
   28MOL   H221 8915   3.747   4.676   7.707 -1.1088  1.0710 -0.5635
   28MOL   H222 8916   3.675   4.486   7.574 -1.4486  1.4373 -1.3825
   28MOL   H223 8917   3.491   4.344   7.657 -0.9739  0.3653 -0.6902
   28MOL   H224 8918   3.398   4.223   7.836 -1.5403 -2.9894  0.1173
   28MOL   H225 8919   3.243   4.209   7.908 -0.9744  2.0417 -0.6088
   28MOL   C226 8920   3.400   4.250   8.053 -0.1429 -0.3951 -0.0953
   28MOL   C227 8921   3.475   4.120   8.053 -0.8220 -0.3458  1.0672
   28MOL   C228 8922   3.621   4.109   8.063  0.5521 -0.0740 -0.7207
   28MOL  Cl229 8923   3.714   4.251   8.073  0.3170  0.1084  0.2393
   28MOL   C230 8924   3.678   3.981   8.063 -0.3823 -0.1269  0.4547
   28MOL   C231 8925   3.602   3.862   8.050 -1.0286 -0.1182 -0.2508
   28MOL   C232 8926   3.463   3.876   8.044  0.4066 -0.0847  0.5377
   28MOL   C233 8927   3.398   4.003   8.040  0.3281 -0.1688  0.8174
   28MOL   C234 8928   3.301   4.260   8.172 -0.3163  0.1065  0.5602
   28MOL   H235 8929   3.468   4.335   8.053  0.7254 -1.0791 -0.2772
   28MOL   H236 8930   3.785   3.979   8.079 -0.0911 -0.1820 -1.4146
   28MOL   H237 8931   3.647   3.764   8.053  0.0408  0.4009  2.5389
   28MOL   H238 8932   3.408   3.786   8.021  0.8622 -0.3053  0.3078
   28MOL   H239 8933   3.291   4.012   8.054  0.1103  0.6514 -1.1201
   28MOL   H240 8934   3.220   4.187   8.164 -0.6253  0.6797 -2.1044
   28MOL   H241 8935   3.255   4.358   8.158  0.3921  0.2906 -0.4975
   28MOL   C242 8936   3.360   4.245   8.319 -0.6017  0.6384 -0.1975
   28MOL   C243 8937   3.254   4.231   0.012 -0.6720 -1.2138  0.0571
   28MOL   C244 8938   3.254   4.132   0.110 -0.3806 -0.1340 -0.1412
   28MOL  Cl245 8939   3.382   4.014   0.127  0.3063  0.2385  0.2928
   28MOL   C246 8940   3.138   4.111   0.192  0.1460  0.1581 -0.0676
   28MOL   C247 8941   3.025   4.194   0.183  0.0940  0.1757 -0.6403
   28MOL   C248 8942   3.034   4.307   0.092  0.2490 -0.0744 -0.0452
   28MOL   C249 8943   3.147   4.322   0.013 -0.1149 -0.2711 -0.3225
   28MOL   C250 8944   3.450   4.365   8.348 -0.1248  0.3419 -0.5056
   28MOL   H251 8945   3.428   4.159   8.319  0.5611  1.5356  1.5136
   28MOL   H252 8946   3.143   4.033   0.267  3.4717  1.2502  0.9194
   28MOL   H253 8947   2.938   4.182   0.245 -0.7345  2.3409 -1.3240
   28MOL   H254 8948   2.947   4.370   0.097  0.3773  0.0198  1.2374
   28MOL   H255 8949   3.150   4.411   8.373  0.7146  0.6274  1.0121
   28MOL   H256 8950   3.381   4.449   8.341 -0.4921  0.0189 -0.8201
   28MOL   H257 8951   3.523   4.373   8.267  1.1398  0.4925  0.6360
   28MOL   C258 8952   3.526   4.358   0.061 -0.5662 -0.9080  0.5899
   28MOL   C259 8953   3.573   4.495   0.103 -0.0306 -0.2211 -0.2289
   28MOL   C260 8954   3.531   4.556   0.223 -0.7870 -0.5946 -0.2493
   28MOL  Cl261 8955   3.408   4.493   0.327  0.1808 -0.4388  0.3308
   28MOL   C262 8956   3.576   4.690   0.253 -1.2032 -0.3692  0.3110
   28MOL   C263 8957   3.681   4.746   0.175  0.3900 -0.3646 -0.4517
   28MOL   C264 8958   3.722   4.681   0.052 -0.3731 -1.1615  0.2580
   28MOL   C265 8959   3.664   4.559   0.013  0.5183  0.5164 -0.5250
   28MOL   C266 8960   3.641   4.256   0.058 -0.5556 -0.3353 -0.0941
   28MOL   H267 8961   3.467   4.324   0.146  0.1826  0.1769  1.5599
   28MOL   H268 8962   3.554   4.740   0.346  2.9254  0.1717  1.0902
   28MOL   H269 8963   3.717   4.846   0.195 -1.2002 -0.1783  1.7373
   28MOL   H270 8964   3.792   4.732   8.408  0.5795 -0.6518  1.6795
   28MOL   H271 8965   3.686   4.516   8.337 -1.1613  0.9176 -1.1045
   28MOL   H272 8966   3.696   4.288   8.390 -0.5462  0.4095  0.1839
   28MOL   H273 8967   3.601   4.156   0.040 -1.5372 -0.1269  0.8980
   28MOL   C274 8968   3.740   4.254   0.179  0.0586 -0.2965 -0.1217
   28MOL   C275 8969   3.866   4.189   0.122 -0.8872 -0.3496 -1.3803
   28MOL   C276 8970   3.978   4.279   0.100  0.3747 -0.1380 -0.5514
   28MOL  Cl277 8971   3.981   4.443   0.148  0.0816 -0.0156  0.2781
   28MOL   C278 8972   4.094   4.226   0.039  0.3561 -0.6339  0.0051
   28MOL   C279 8973   4.101   4.087   0.008  0.0125 -0.4494 -0.0790
   28MOL   C280 8974   3.988   4.004   0.034  0.6908  0.1320  0.2887
   28MOL   C281 8975   3.869   4.056   0.083  0.6027 -0.3120  0.1973
   28MOL   C282 8976   3.687   4.165   0.301 -1.2898 -0.1219 -0.1676
   28MOL   H283 8977   3.757   4.355   0.218  1.7604 -0.6342  0.0620
   28MOL   H284 8978   4.180   4.286   0.014  0.1242 -0.9396 -1.5265
   28MOL   H285 8979   4.192   4.049   8.385  0.3232 -0.1459  0.3046
   28MOL   H286 8980   3.995   3.897   0.016  0.1510  0.3916 -1.6473
   28MOL   H287 8981   3.785   3.990   0.101  1.3314 -1.0355  0.9810
   28MOL   H288 8982   3.679   4.058   0.284 -1.2382  0.1402 -1.9453
   28MOL   H289 8983   3.580   4.172   0.321 -1.0846 -3.1840  2.4492
   28MOL   C290 8984   3.778   4.184   0.431 -0.0198  0.3010 -0.1760
   28MOL   C291 8985   3.772   4.051   0.515 -0.2345  0.2157  0.9937
   28MOL   C292 8986   3.888   3.979   0.552 -0.1649  0.3850 -0.1957
   28MOL  Cl293 8987   4.045   4.021   0.499  0.1268  0.1068 -0.1908
   28MOL   C294 8988   3.872   3.866   0.637  0.0027  0.4232 -0.2737
   28MOL   C295 8989   3.746   3.808   0.659  0.3692  0.2525  0.7657
   28MOL   C296 8990   3.632   3.879   0.616 -0.2220  0.4208  0.0706
   28MOL   C297 8991   3.645   4.002   0.552  0.3976  0.5463 -0.0711
   28MOL   C298 8992   3.724   4.306   0.508  0.1639  0.0518  1.0276
   28MOL   H299 8993   3.877   4.207   0.392  0.7584  0.4603  1.8119
   28MOL   H300 8994   3.965   3.813   0.656  1.5605  3.4469  1.0695
   28MOL   H301 8995   3.732   3.709   0.700  1.0761  0.6608  2.0185
   28MOL   H302 8996   3.530   3.844   0.614 -0.7795  2.0504 -2.1849
   28MOL   H303 8997   3.552   4.052   0.529 -0.8959 -1.9804 -0.4371
   28MOL   H304 8998   3.622   4.295   0.546 -0.2175  0.1129  0.0494
   28MOL   H305 8999   3.727   4.383   0.431  2.5710 -1.9923 -1.0147
   28MOL   C306 9000   3.823   4.333   0.624 -0.1799 -0.3443  0.6036
   28MOL   C307 9001   3.755   4.393   0.748  0.0510  0.2977  0.1618
   28MOL   C308 9002   3.669   4.505   0.756  0.5881 -0.4586 -0.2558
   28MOL  Cl309 9003   3.641   4.612   0.620  0.0409  0.0590 -0.2849
   28MOL   C310 9004   3.615   4.544   0.881  0.1914 -0.6469 -0.5936
   28MOL   C311 9005   3.653   4.479   1.002 -0.0277 -0.4986  1.0168
   28MOL   C312 9006   3.745   4.372   0.995 -0.1243  0.1476  0.1461
   28MOL   C313 9007   3.791   4.326   0.869  0.0680 -0.0513  0.1654
   28MOL   C314 9008   3.936   4.433   0.576  0.4780 -0.2632 -0.5159
   28MOL   H315 9009   3.867   4.238   0.655 -2.4334 -1.2716  1.0851
   28MOL   H316 9010   3.543   4.625   0.886  2.1527  1.1969 -1.2876
   28MOL   H317 9011   3.609   4.519   1.092 -0.6254 -1.0229  0.9604
   28MOL   H318 9012   3.768   4.317   1.085  0.0021  0.4584  0.3030
   28MOL   H319 9013   3.843   4.232   0.864 -0.0737 -0.1298  0.1780
   28MOL   H320 9014   3.998   4.402   0.492  3.0540  2.3924  0.3314
   28MOL   H321 9015   4.002   4.451   0.660  0.0592  3.1127 -0.8215
   28MOL   H322 9016   3.898   4.529   0.540  0.1087 -0.3393 -0.3383
   29MOL     C1 9017   0.931   6.620   7.661 -0.1586  0.3066  0.6008
   29MOL     C2 9018   0.891   6.677   7.523 -0.1357  0.3539  0.7398
   29MOL     C3 9019   0.812   6.795   7.512  0.1346  0.3696  0.1420
   29MOL    Cl4 9020   0.758   6.886   7.644  0.1963  0.0710 -0.0548
   29MOL     C5 9021   0.781   6.842   7.380 -0.0707  0.1762 -0.3512
   29MOL     C6 9022   0.819   6.766   7.262 -0.2636  0.0449 -0.9320
   29MOL     C7 9023   0.901   6.658   7.276 -0.4639  0.2542 -0.0105
   29MOL     C8 9024   0.932   6.614   7.405  0.1960  0.0036  0.5062
   29MOL     C9 9025   0.843   6.515   7.732  0.2895  0.3022  0.3353
   29MOL    H10 9026   1.036   6.589   7.657 -0.2538  0.2261 -2.3471
   29MOL    H11 9027   0.717   6.928   7.367  0.0245 -0.0735 -2.4992
   29MOL    H12 9028   0.789   6.795   7.162  0.9148  1.5316 -0.8775
   29MOL    H13 9029   0.918   6.599   7.187  0.9624  0.8162 -0.1232
   29MOL    H14 9030   0.987   6.522   7.421 -1.3538 -1.5204 -2.5929
   29MOL    H15 9031   0.835   6.427   7.669  0.1227  0.1496  0.5684
   29MOL    H16 9032   0.741   6.553   7.726 -0.1327 -0.7835  0.4717
   29MOL    H17 9033   0.917   6.705   7.728  1.1483  0.6883  0.4165
   29MOL    C18 9034   0.885   6.459   7.869  1.0362  0.5960 -0.3153
   29MOL    C19 9035   0.785   6.344   7.907 -0.0921 -0.9398 -0.3416
   29MOL    C20 9036   0.835   6.213   7.931  1.1209 -0.0523 -0.0399
   29MOL   Cl21 9037   1.001   6.157   7.906 -0.2252 -0.3314  0.1741
   29MOL    C22 9038   0.739   6.110   7.972 -0.4117 -0.7212  0.5817
   29MOL    C23 9039   0.603   6.141   7.989  0.3953 -0.2423  0.2284
   29MOL    C24 9040   0.555   6.268   7.950  0.1606 -0.6332 -0.1629
   29MOL    C25 9041   0.646   6.372   7.915 -0.5111  0.7162  0.0418
   29MOL    C26 9042   0.890   6.571   7.975  0.4599  0.0960 -0.3580
   29MOL    H27 9043   0.982   6.423   7.835  0.1728  0.5729 -2.8903
   29MOL    H28 9044   0.758   6.006   7.994  1.9704 -0.3351  0.4761
   29MOL    H29 9045   0.527   6.075   8.028  2.2418 -2.3193  0.4191
   29MOL    H30 9046   0.450   6.294   7.945  0.3356  0.0875 -0.1930
   29MOL    H31 9047   0.610   6.469   7.884 -1.7439  0.5533  0.9115
   29MOL    H32 9048   0.794   6.595   8.021 -0.4625 -0.3450 -2.0106
   29MOL    H33 9049   0.920   6.663   7.924  2.2604 -0.7400 -0.8784
   29MOL    C34 9050   1.006   6.567   8.074  0.5167 -0.2359 -0.0191
   29MOL    C35 9051   1.013   6.432   8.147  0.1285 -0.1055 -0.6722
   29MOL    C36 9052   1.128   6.359   8.175 -0.3140 -0.1723 -0.5606
   29MOL   Cl37 9053   1.279   6.417   8.115 -0.1715 -0.3044  0.0920
   29MOL    C38 9054   1.128   6.247   8.259  0.8219  0.4937  0.7158
   29MOL    C39 9055   1.004   6.202   8.316 -0.6375 -0.8025 -0.0077
   29MOL    C40 9056   0.891   6.275   8.284  0.2016  0.3655 -0.2458
   29MOL    C41 9057   0.893   6.388   8.204  0.5951 -0.0536 -0.4598
   29MOL    C42 9058   1.008   6.686   8.175 -0.7386  0.3224 -0.0634
   29MOL    H43 9059   1.094   6.562   8.009  0.0786 -2.7908 -0.4811
   29MOL    H44 9060   1.221   6.192   8.261  0.3040 -0.4780 -0.8433
   29MOL    H45 9061   1.007   6.109   8.370 -0.8714  1.4242  4.0889
   29MOL    H46 9062   0.794   6.233   8.307  0.4767  1.3694  3.0564
   29MOL    H47 9063   0.802   6.443   8.186  1.3956  1.2459 -0.5863
   29MOL    H48 9064   1.089   6.666   8.244 -0.7325 -1.3141 -0.5180
   29MOL    H49 9065   0.914   6.685   8.230  0.4644 -1.3757  2.0115
   29MOL    C50 9066   1.036   6.833   8.119  0.7973  0.4221  0.9527
   29MOL    C51 9067   1.162   6.844   8.036 -0.1847 -0.2562 -1.2114
   29MOL    C52 9068   1.171   6.889   7.902 -0.0535 -0.2500  0.5098
   29MOL   Cl53 9069   1.042   6.948   7.804  0.3793  0.2100 -0.2789
   29MOL    C54 9070   1.298   6.885   7.840 -0.5697 -0.0347 -1.2248
   29MOL    C55 9071   1.417   6.840   7.903 -0.4287 -0.0792 -0.1763
   29MOL    C56 9072   1.402   6.799   8.032 -0.4912 -0.4220  0.0736
   29MOL    C57 9073   1.278   6.803   8.100 -0.1084 -0.2286  0.6565
   29MOL    C58 9074   1.037   6.936   8.235  0.2092  0.9008  0.6298
   29MOL    H59 9075   0.955   6.867   8.054  0.9979  0.3177  0.6433
   29MOL    H60 9076   1.316   6.911   7.737 -2.3405  0.6016 -1.3905
   29MOL    H61 9077   1.510   6.828   7.850  0.2679 -0.8026  1.1758
   29MOL    H62 9078   1.490   6.763   8.083 -0.9222  1.7334  2.4498
   29MOL    H63 9079   1.285   6.779   8.205  2.3120  3.0665  1.3124
   29MOL    H64 9080   1.092   7.025   8.205  0.4683 -0.2042 -2.3939
   29MOL    H65 9081   1.100   6.899   8.316 -0.0716  1.3308  1.0409
   29MOL    C66 9082   0.902   6.984   8.288  0.6431  0.1703 -0.1924
   29MOL    C67 9083   0.833   7.078   8.184 -0.5965  0.3343 -0.5282
   29MOL    C68 9084   0.721   7.030   8.112 -0.5327  0.0672 -0.1169
   29MOL   Cl69 9085   0.653   6.881   8.146  0.2021  0.2626 -0.0927
   29MOL    C70 9086   0.664   7.108   8.008 -0.1883  1.0276 -0.2259
   29MOL    C71 9087   0.728   7.223   7.971  0.0985 -0.4253 -0.7759
   29MOL    C72 9088   0.840   7.270   8.042 -0.6281  0.4374  0.2481
   29MOL    C73 9089   0.897   7.195   8.145 -0.2545 -1.2785 -0.3157
   29MOL    C74 9090   0.908   7.050   0.008 -0.6270 -0.0360  0.6397
   29MOL    H75 9091   0.847   6.892   8.307  1.7035 -0.7035 -1.3014
   29MOL    H76 9092   0.578   7.075   7.952  0.1536 -2.4364  1.1143
   29MOL    H77 9093   0.694   7.275   7.883 -0.7150 -0.5134 -0.5191
   29MOL    H78 9094   0.897   7.358   8.015 -1.1749  0.6492 -0.2253
   29MOL    H79 9095   0.992   7.222   8.189 -1.3821 -0.3659  1.6543
   29MOL    H80 9096   0.971   7.138   8.414 -0.3400 -0.5395 -1.2308
   29MOL    H81 9097   0.964   6.992   0.082 -1.2029  1.5404  2.3520
   29MOL    C82 9098   0.772   7.091   0.067 -0.0329  0.2935 -0.7010
   29MOL    C83 9099   0.788   7.219   0.155  0.1700 -0.4208 -0.3510
   29MOL    C84 9100   0.747   7.350   0.110  0.8392 -0.3956 -0.3633
   29MOL   Cl85 9101   0.694   7.364   8.370 -0.1124 -0.3614 -0.1272
   29MOL    C86 9102   0.763   7.470   0.186  0.1264  0.6204  0.1484
   29MOL    C87 9103   0.800   7.456   0.317  0.9869  0.2623 -0.7300
   29MOL    C88 9104   0.849   7.333   0.368  0.7484 -0.4080 -0.0733
   29MOL    C89 9105   0.842   7.214   0.284 -0.2655 -0.0285  0.2294
   29MOL    C90 9106   0.697   6.975   0.137  0.3357 -0.0146 -0.4252
   29MOL    H91 9107   0.705   7.116   8.405 -0.4254  0.3678 -0.3642
   29MOL    H92 9108   0.743   7.566   0.142  2.0885  0.7796 -0.4420
   29MOL    H93 9109   0.814   7.551   0.367 -1.8927  0.7114 -0.7309
   29MOL    H94 9110   0.888   7.330   0.468  0.2740  1.9353  0.2048
   29MOL    H95 9111   0.874   7.119   0.322 -1.3687  0.5324  2.6563
   29MOL    H96 9112   0.759   6.900   0.185 -1.3639 -2.3678 -1.8162
   29MOL    H97 9113   0.656   6.921   0.052  0.1538  0.1992 -0.4737
   29MOL    C98 9114   0.577   7.010   0.226 -0.0097  0.5243 -0.2462
   29MOL    C99 9115   0.611   7.013   0.377  0.3556  0.3427 -0.0296
   29MOL   C100 9116   0.585   7.121   0.463  0.6773 -0.3420  0.3262
   29MOL  Cl101 9117   0.493   7.254   0.402 -0.0081  0.0366 -0.0805
   29MOL   C102 9118   0.621   7.120   0.596  0.4494 -0.0771 -0.0284
   29MOL   C103 9119   0.679   7.001   0.653 -0.1525 -0.4678  0.2510
   29MOL   C104 9120   0.720   6.897   0.571 -0.6569  0.1689 -0.0974
   29MOL   C105 9121   0.676   6.900   0.432 -0.6355 -0.2310 -0.7075
   29MOL   C106 9122   0.455   6.916   0.209 -0.5023  0.0730 -0.3312
   29MOL   H107 9123   0.546   7.112   0.205  0.2673  0.5852 -0.3557
   29MOL   H108 9124   0.591   7.204   0.657 -0.5971 -1.2654  1.1555
   29MOL   H109 9125   0.687   6.995   0.760  2.0920 -0.7233  0.0956
   29MOL   H110 9126   0.761   6.805   0.609 -0.1384  0.7678  0.8055
   29MOL   H111 9127   0.712   6.817   0.374  1.5351  1.6959 -2.2184
   29MOL   H112 9128   0.397   6.915   0.302  0.1587  0.4226  0.0935
   29MOL   H113 9129   0.503   6.818   0.197  1.2003  1.0497 -1.6963
   29MOL   C114 9130   0.362   6.952   0.097  0.6369  0.3168 -0.2774
   29MOL   C115 9131   0.320   7.102   0.097 -0.6734 -0.2031  0.4454
   29MOL   C116 9132   0.353   7.184   8.405 -0.6416  0.3378  0.2254
   29MOL  Cl117 9133   0.433   7.116   8.267  0.0414 -0.0763  0.0995
   29MOL   C118 9134   0.322   7.321   8.406 -0.0474  0.5600 -1.3656
   29MOL   C119 9135   0.260   7.382   0.096 -0.3635 -0.0652 -1.0836
   29MOL   C120 9136   0.220   7.299   0.205  0.3293  1.0318 -0.0404
   29MOL   C121 9137   0.252   7.160   0.205  0.9806 -0.4564  0.0638
   29MOL   C122 9138   0.236   6.860   0.094  0.7357  0.7588 -0.3369
   29MOL   H123 9139   0.422   6.929   0.008  1.2421  0.3773  0.1141
   29MOL   H124 9140   0.352   7.386   8.325 -2.6280  0.0766 -2.7438
   29MOL   H125 9141   0.243   7.489   0.096 -1.6541 -0.2466 -0.3938
   29MOL   H126 9142   0.162   7.350   0.281 -1.4061  1.1771 -1.4240
   29MOL   H127 9143   0.236   7.097   0.291  0.2642 -0.4587 -0.0658
   29MOL   H128 9144   0.170   6.880   0.010  1.0494  2.3812 -0.2055
   29MOL   H129 9145   0.177   6.881   0.183 -1.9920  0.1950 -1.9563
   29MOL   C130 9146   0.270   6.708   0.074 -0.0347  0.0936  0.4887
   29MOL   C131 9147   0.353   6.677   8.365 -0.6924 -0.3864  0.7479
   29MOL   C132 9148   0.463   6.586   8.359 -0.2641  1.9555 -0.4574
   29MOL  Cl133 9149   0.550   6.536   0.085 -0.2338 -0.2819  0.0294
   29MOL   C134 9150   0.515   6.541   8.231 -0.1578 -0.9267  0.9036
   29MOL   C135 9151   0.442   6.575   8.114  0.5164 -0.1008  0.8011
   29MOL   C136 9152   0.334   6.663   8.118  0.3349  0.0046 -0.0396
   29MOL   C137 9153   0.295   6.714   8.241 -0.2828 -0.3463  0.0303
   29MOL   C138 9154   0.158   6.602   0.096 -0.0474  0.1431  0.3914
   29MOL   H139 9155   0.331   6.688   0.162  1.5966 -2.2164 -1.1360
   29MOL   H140 9156   0.599   6.476   8.213  1.2491  1.0113  0.2549
   29MOL   H141 9157   0.470   6.527   8.022  1.2622  0.1768  0.8814
   29MOL   H142 9158   0.271   6.684   8.033  0.6644 -2.6021 -0.9669
   29MOL   H143 9159   0.202   6.768   8.231 -0.3546 -0.8263 -2.1717
   29MOL   H144 9160   0.179   6.505   0.054  0.6703  1.9766 -3.7010
   29MOL   H145 9161   0.066   6.632   0.045  0.9081  0.8484 -0.9530
   29MOL   C146 9162   0.135   6.572   0.252  0.1731 -0.1231  0.3143
   29MOL   C147 9163   0.212   6.456   0.298 -0.0888  0.1581  0.0773
   29MOL   C148 9164   0.322   6.465   0.390  1.0770  0.4757 -0.3589
   29MOL  Cl149 9165   0.379   6.616   0.435 -0.3948 -0.0643  0.0325
   29MOL   C150 9166   0.381   6.349   0.455  0.5674 -1.0892  0.1553
   29MOL   C151 9167   0.330   6.220   0.427 -0.3405 -1.2648 -0.2313
   29MOL   C152 9168   0.227   6.213   0.327 -0.1185  0.5413  0.4159
   29MOL   C153 9169   0.174   6.326   0.261 -0.3359 -0.0665  0.7559
   29MOL   C154 9170   8.406   6.577   0.295 -0.1908  0.0810 -0.3479
   29MOL   H155 9171   0.171   6.657   0.310 -0.0161 -0.4900  0.9730
   29MOL   H156 9172   0.453   6.363   0.534 -1.3553  0.8692  1.6320
   29MOL   H157 9173   0.366   6.130   0.476  2.9134 -1.0370 -2.0123
   29MOL   H158 9174   0.182   6.119   0.300  1.4703 -0.4597  1.1981
   29MOL   H159 9175   0.091   6.318   0.192 -0.2936  2.0872  0.4436
   29MOL   H160 9176   8.356   6.495   0.242  1.3092 -1.2177  0.2047
   29MOL   H161 9177   8.373   6.674   0.260 -0.2602  0.6728  1.3043
   29MOL   C162 9178   8.367   6.571   0.441  0.6041  0.2571 -0.8244
   29MOL   C163 9179   8.401   6.445   0.513 -0.8492 -0.7933 -0.5399
   29MOL   C164 9180   0.071   6.439   0.622 -0.1730 -0.6282  0.4218
   29MOL  Cl165 9181   0.161   6.575   0.683 -0.6132  0.0998  0.4435
   29MOL   C166 9182   0.101   6.317   0.684 -0.2926  0.6061  0.8389
   29MOL   C167 9183   0.040   6.198   0.645 -0.4951  0.5823  0.3221
   29MOL   C168 9184   8.363   6.205   0.541  0.0379 -0.7642  0.3870
   29MOL   C169 9185   8.332   6.329   0.478 -0.0088  0.6902 -0.1242
   29MOL   C170 9186   8.217   6.610   0.468  0.1116  0.1672 -0.6985
   29MOL   H171 9187   0.005   6.648   0.492  1.3885 -1.1942  0.5292
   29MOL   H172 9188   0.175   6.310   0.763  1.5956 -0.5947 -0.9828
   29MOL   H173 9189   0.060   6.109   0.702 -1.4240  0.4219  0.4056
   29MOL   H174 9190   8.300   6.120   0.516  0.4868 -0.6467 -1.2355
   29MOL   H175 9191   8.254   6.331   0.403  0.4319 -0.7382 -0.6289
   29MOL   H176 9192   8.146   6.537   0.430 -1.6715  0.5148  1.8527
   29MOL   H177 9193   8.189   6.687   0.395 -2.3894 -0.7141 -0.7070
   29MOL   C178 9194   8.176   6.649   0.619  0.0279 -0.1457  0.1376
   29MOL   C179 9195   8.022   6.631   0.630 -0.4403  0.0219  0.4050
   29MOL   C180 9196   7.960   6.525   0.703  0.2478  0.7249 -0.5475
   29MOL  Cl181 9197   8.054   6.406   0.785  0.1226 -0.1742 -0.1857
   29MOL   C182 9198   7.823   6.512   0.696 -0.1925  0.1386 -0.4994
   29MOL   C183 9199   7.745   6.599   0.622  0.5313 -0.3051  0.1456
   29MOL   C184 9200   7.807   6.708   0.559  0.1465 -0.0766 -0.5696
   29MOL   C185 9201   7.946   6.730   0.564 -0.6688  0.1299 -0.1156
   29MOL   C186 9202   8.226   6.789   0.665  0.0355  0.2207 -0.2768
   29MOL   H187 9203   8.224   6.574   0.682 -1.5989 -0.9696  0.4271
   29MOL   H188 9204   7.774   6.434   0.753  2.5562  0.4402  2.4044
   29MOL   H189 9205   7.642   6.566   0.616  0.4704 -0.2412  0.7959
   29MOL   H190 9206   7.747   6.780   0.506  1.3857  1.8127  0.5159
   29MOL   H191 9207   7.990   6.814   0.512  0.3760  1.0042  2.1040
   29MOL   H192 9208   8.165   6.874   0.635  3.9536  3.6304  0.8268
   29MOL   H193 9209   8.301   6.810   0.588  1.4768  0.2314  1.0976
   29MOL   C194 9210   8.297   6.820   0.796 -0.1080  0.4087  0.0946
   29MOL   C195 9211   8.225   6.755   0.918 -1.1427 -0.1250 -0.2428
   29MOL   C196 9212   8.282   6.659   1.006  0.2028  0.9106 -0.2286
   29MOL  Cl197 9213   0.019   6.596   0.979 -0.0805 -0.0052  0.0968
   29MOL   C198 9214   8.194   6.587   1.091 -0.6628 -0.2188  0.5168
   29MOL   C199 9215   8.058   6.618   1.103  0.2242  0.2143  0.0205
   29MOL   C200 9216   8.006   6.721   1.026 -0.3488  0.7807 -0.0390
   29MOL   C201 9217   8.087   6.786   0.928  0.1672  0.1304 -0.0802
   29MOL   C202 9218   8.310   6.974   0.832  0.0568 -0.6460  0.3214
   29MOL   H203 9219   8.395   6.773   0.796 -0.9263 -1.3798  1.2362
   29MOL   H204 9220   8.237   6.505   1.147 -1.7334 -0.9724  0.2653
   29MOL   H205 9221   7.993   6.553   1.159 -0.5932  2.0262  1.2067
   29MOL   H206 9222   7.899   6.735   1.031 -0.5501 -1.0873  1.0632
   29MOL   H207 9223   8.034   6.852   0.861 -2.9807 -1.5884  0.6391
   29MOL   H208 9224   8.335   6.983   0.938  0.5695 -0.0238  0.1524
   29MOL   H209 9225   8.207   7.008   0.819  0.1356 -0.2440  0.7183
   29MOL   C210 9226   8.389   7.060   0.731  0.4818  0.0652 -0.4638
   29MOL   C211 9227   0.116   7.016   0.743  1.0181 -0.0480 -0.2466
   29MOL   C212 9228   0.181   6.965   0.629  0.1947  0.3679 -0.5042
   29MOL  Cl213 9229   0.098   6.941   0.472 -0.2304 -0.6345  0.2858
   29MOL   C214 9230   0.314   6.920   0.637 -0.2782 -0.0139 -0.5428
   29MOL   C215 9231   0.382   6.917   0.760 -0.1265  0.6224  0.1594
   29MOL   C216 9232   0.321   6.975   0.874  0.6587  0.8174  0.3139
   29MOL   C217 9233   0.190   7.023   0.866  0.0942 -0.0058 -0.9110
   29MOL   C218 9234   8.378   7.209   0.764  0.4714 -0.1004 -0.5913
   29MOL   H219 9235   8.349   7.042   0.631 -1.5345 -0.9566  0.5126
   29MOL   H220 9236   0.360   6.888   0.544 -0.4778 -1.5338 -0.1385
   29MOL   H221 9237   0.485   6.885   0.769 -0.3374 -0.2952 -0.6101
   29MOL   H222 9238   0.383   6.981   0.963  0.5494  2.7241  0.2927
   29MOL   H223 9239   0.152   7.065   0.957  1.5641 -2.3748  0.8648
   29MOL   H224 9240   0.034   7.260   0.706  0.6271 -0.1817 -0.4552
   29MOL   H225 9241   8.390   7.225   0.871  0.5293 -0.6948 -0.5099
   29MOL   C226 9242   8.239   7.272   0.732  0.3158  0.4815  0.4651
   29MOL   C227 9243   8.191   7.229   0.587  0.3790 -0.3012  0.3386
   29MOL   C228 9244   8.082   7.142   0.558  0.0482  0.7156 -0.7613
   29MOL  Cl229 9245   7.971   7.100   0.675  0.0311  0.0218 -0.2274
   29MOL   C230 9246   8.062   7.099   0.431  0.6284  0.2309  0.0910
   29MOL   C231 9247   8.141   7.149   0.329  0.2099 -0.9257 -0.2781
   29MOL   C232 9248   8.245   7.241   0.347  0.7441  0.5367  0.2848
   29MOL   C233 9249   8.268   7.274   0.480  0.0465 -0.3665  0.3610
   29MOL   C234 9250   8.234   7.425   0.756 -0.1650  0.3776 -0.5109
   29MOL   H235 9251   8.167   7.230   0.803 -0.5159  0.8900 -0.1235
   29MOL   H236 9252   7.985   7.025   0.415  2.5324 -2.2828  2.1432
   29MOL   H237 9253   8.120   7.105   0.232  0.9396 -0.8488 -0.4768
   29MOL   H238 9254   8.306   7.276   0.266 -1.1720 -0.6669 -1.7451
   29MOL   H239 9255   8.333   7.357   0.501 -0.9065  0.6441 -0.5982
   29MOL   H240 9256   8.319   7.465   0.700 -2.8950  0.4396 -4.7552
   29MOL   H241 9257   8.247   7.445   0.863  2.7369 -3.8452  0.0790
   29MOL   C242 9258   8.110   7.500   0.708 -0.7273 -0.2958  0.0375
   29MOL   C243 9259   8.149   7.642   0.700  1.0704 -0.7059  0.7990
   29MOL   C244 9260   8.156   7.715   0.578  0.3936 -0.1971  0.6290
   29MOL  Cl245 9261   8.150   7.633   0.428 -0.0105  0.1782 -0.4194
   29MOL   C246 9262   8.183   7.855   0.581 -0.8876  0.2094 -1.0306
   29MOL   C247 9263   8.223   7.924   0.699  0.4526  0.4142 -0.0602
   29MOL   C248 9264   8.229   7.848   0.819  0.2815 -0.0285 -0.3817
   29MOL   C249 9265   8.186   7.715   0.819  0.4954  0.3639  0.1841
   29MOL   C250 9266   7.978   7.471   0.785  0.6321  0.0927 -0.4452
   29MOL   H251 9267   8.086   7.464   0.608  0.4088  1.9162 -1.0427
   29MOL   H252 9268   8.193   7.914   0.491  1.2268  0.0593 -0.9245
   29MOL   H253 9269   8.247   8.029   0.691  1.5561  0.1417 -0.4416
   29MOL   H254 9270   8.258   7.886   0.915  0.9810  0.1351 -0.6582
   29MOL   H255 9271   8.175   7.675   0.919  3.3453 -1.1303 -0.0616
   29MOL   H256 9272   7.989   7.483   0.893 -1.5731 -2.2902  0.1055
   29MOL   H257 9273   7.955   7.368   0.756  2.1914  0.0647 -1.6708
   29MOL   C258 9274   7.857   7.559   0.754  0.2451  0.1033 -0.7640
   29MOL   C259 9275   7.738   7.517   0.842  0.3750 -0.1160 -0.1930
   29MOL   C260 9276   7.689   7.599   0.948 -0.1716 -0.4217 -0.4044
   29MOL  Cl261 9277   7.767   7.754   0.975 -0.0234  0.2041  0.2079
   29MOL   C262 9278   7.586   7.547   1.027 -0.3665 -0.0404  0.8062
   29MOL   C263 9279   7.546   7.413   1.019  0.0723 -0.4141  0.7124
   29MOL   C264 9280   7.596   7.328   0.914  0.3785  0.3188 -0.1899
   29MOL   C265 9281   7.688   7.385   0.821 -0.7918 -0.0275  0.4440
   29MOL   C266 9282   7.824   7.551   0.599 -0.2358  0.1914  0.1817
   29MOL   H267 9283   7.877   7.665   0.770 -0.5455  0.4254 -1.8274
   29MOL   H268 9284   7.545   7.618   1.097 -2.5317 -2.5086  2.1311
   29MOL   H269 9285   7.466   7.376   1.082  1.2798 -1.7296  1.5114
   29MOL   H270 9286   7.552   7.231   0.898  2.3387 -0.6118 -0.0993
   29MOL   H271 9287   7.717   7.321   0.739 -2.0977  0.3294 -0.3083
   29MOL   H272 9288   7.802   7.453   0.558 -0.1955  1.4993 -3.1508
   29MOL   H273 9289   7.905   7.588   0.537 -0.1536  0.0493  0.2057
   29MOL   C274 9290   7.695   7.633   0.560 -0.9454  0.1020 -1.1297
   29MOL   C275 9291   7.673   7.603   0.408  0.3152  0.0697 -0.3538
   29MOL   C276 9292   7.572   7.519   0.362 -0.5833  0.6862 -0.0580
   29MOL  Cl277 9293   7.464   7.437   0.466 -0.2269  0.0599  0.3934
   29MOL   C278 9294   7.555   7.503   0.224  1.0659 -0.3821  0.3599
   29MOL   C279 9295   7.647   7.552   0.129 -0.1607 -0.6683  0.0670
   29MOL   C280 9296   7.757   7.627   0.173 -0.1176 -0.1459 -0.0211
   29MOL   C281 9297   7.762   7.657   0.313 -0.1703  0.7038  0.0869
   29MOL   C282 9298   7.700   7.783   0.596  0.1084 -0.1992  0.2097
   29MOL   H283 9299   7.610   7.592   0.614  2.6158 -2.9440  2.4085
   29MOL   H284 9300   7.473   7.446   0.182 -0.2104  1.5629  0.1180
   29MOL   H285 9301   7.642   7.521   0.025 -1.0747  1.8162 -0.6694
   29MOL   H286 9302   7.834   7.671   0.111  0.1703 -2.0725 -1.0601
   29MOL   H287 9303   7.847   7.717   0.344 -0.6771  2.4530 -1.7692
   29MOL   H288 9304   7.790   7.835   0.561 -0.5221 -0.1470 -1.3879
   29MOL   H289 9305   7.704   7.793   0.704 -0.7898  0.2357  0.2049
   29MOL   C290 9306   7.572   7.863   0.543 -0.2769 -0.2590  0.2617
   29MOL   C291 9307   7.611   8.011   0.509 -0.3238  0.0763  0.4545
   29MOL   C292 9308   7.591   8.064   0.378  0.3369  0.1954 -0.1727
   29MOL  Cl293 9309   7.535   7.966   0.248 -0.1495  0.4385  0.2421
   29MOL   C294 9310   7.616   8.200   0.355 -0.3290 -0.0414 -0.2727
   29MOL   C295 9311   7.658   8.288   0.459  0.1895  0.4002  0.5174
   29MOL   C296 9312   7.677   8.238   0.587 -0.3138 -0.1776 -0.2784
   29MOL   C297 9313   7.652   8.099   0.613  0.1284  0.5742  0.2004
   29MOL   C298 9314   7.446   7.863   0.640 -0.0197 -0.3484  0.2849
   29MOL   H299 9315   7.546   7.817   0.449  2.2742  1.3887 -1.3304
   29MOL   H300 9316   7.583   8.238   0.260 -1.3529  0.9185  0.4534
   29MOL   H301 9317   7.691   8.390   0.445  2.3617 -0.2175  0.8488
   29MOL   H302 9318   7.717   8.292   0.672 -2.1638 -1.1048  1.2369
   29MOL   H303 9319   7.658   8.064   0.716  0.5009  1.1371  0.3707
   29MOL   H304 9320   7.470   7.896   0.741 -2.3928  0.6340  0.5591
   29MOL   H305 9321   7.400   7.764   0.636 -2.3007  0.6114  1.6581
   29MOL   C306 9322   7.337   7.963   0.604  0.5223  0.2760  0.4393
   29MOL   C307 9323   7.252   8.007   0.725  0.1785  0.1220  0.3388
   29MOL   C308 9324   7.256   8.141   0.772 -0.9438  0.1468 -0.3751
   29MOL  Cl309 9325   7.348   8.276   0.705  0.2291 -0.4030  0.1816
   29MOL   C310 9326   7.157   8.190   0.859 -0.4775 -0.5667  0.1571
   29MOL   C311 9327   7.060   8.098   0.910 -0.3405 -0.0299 -0.6388
   29MOL   C312 9328   7.065   7.963   0.877 -0.7486 -0.0268 -0.1699
   29MOL   C313 9329   7.164   7.918   0.791 -0.1945  0.6066  0.3960
   29MOL   C314 9330   7.255   7.930   0.481 -0.5880  0.5420  0.3308
   29MOL   H315 9331   7.376   8.060   0.574  1.1876 -0.0022  0.3922
   29MOL   H316 9332   7.149   8.290   0.899  0.7571 -1.4517  2.7661
   29MOL   H317 9333   6.984   8.135   0.978  0.2852  0.8844 -0.4255
   29MOL   H318 9334   7.000   7.891   0.923  0.7508  0.1629  2.3447
   29MOL   H319 9335   7.165   7.819   0.749  0.3116  0.7993 -0.0518
   29MOL   H320 9336   7.321   7.939   0.395 -0.5409  2.5949  0.5588
   29MOL   H321 9337   7.170   7.992   0.454 -0.9182 -0.3280 -0.6863
   29MOL   H322 9338   7.231   7.823   0.477  1.5682  0.1115 -3.8251
   30MOL     C1 9339   0.668   3.829   4.730  1.2437  0.0370  0.2810
   30MOL     C2 9340   0.802   3.821   4.793  0.2067  0.6669  0.0008
   30MOL     C3 9341   0.929   3.836   4.728  0.1160 -0.1264  0.3521
   30MOL    Cl4 9342   0.930   3.825   4.554  0.0500 -0.5791  0.1810
   30MOL     C5 9343   1.052   3.831   4.798  0.4048  0.4345  0.3465
   30MOL     C6 9344   1.058   3.817   4.933 -0.6798  0.7385  0.1247
   30MOL     C7 9345   0.936   3.792   4.999 -0.2011 -1.2797 -0.0013
   30MOL     C8 9346   0.814   3.787   4.931  0.5450 -0.2801  0.2854
   30MOL     C9 9347   0.641   3.971   4.693 -0.4797  0.3967  0.4006
   30MOL    H10 9348   0.668   3.775   4.635  2.7619 -1.7163  1.2441
   30MOL    H11 9349   1.140   3.835   4.735 -0.8194 -1.1711 -1.5244
   30MOL    H12 9350   1.154   3.823   4.982 -1.2353 -0.5835  1.4046
   30MOL    H13 9351   0.946   3.775   5.105  0.6166  0.8951  0.3057
   30MOL    H14 9352   0.725   3.768   4.990  1.0011 -1.9331  0.4699
   30MOL    H15 9353   0.538   3.981   4.660  0.3593 -0.6412 -2.7466
   30MOL    H16 9354   0.704   3.979   4.604 -0.4331 -2.1536  0.1515
   30MOL    H17 9355   0.586   3.792   4.791  0.1373 -0.6456 -1.5576
   30MOL    C18 9356   0.663   4.084   4.793  0.0523 -0.0967  0.7169
   30MOL    C19 9357   0.563   4.068   4.912  0.2434  0.3367  0.0168
   30MOL    C20 9358   0.597   4.067   5.044  0.4654 -0.5311  0.1248
   30MOL   Cl21 9359   0.755   4.100   5.092 -0.0586  0.0292  0.1079
   30MOL    C22 9360   0.510   4.049   5.153  0.4543 -0.8119 -0.3812
   30MOL    C23 9361   0.374   4.028   5.125  0.2357 -0.0119  0.0492
   30MOL    C24 9362   0.329   4.035   4.991 -0.0953  0.2592  0.1448
   30MOL    C25 9363   0.423   4.044   4.881  1.0392  0.3329 -0.1394
   30MOL    C26 9364   0.652   4.214   4.724  0.7005 -0.9240 -0.6674
   30MOL    H27 9365   0.760   4.082   4.842 -0.2629 -3.1845  1.3427
   30MOL    H28 9366   0.541   4.048   5.257 -0.5734  0.3489 -0.0528
   30MOL    H29 9367   0.302   4.016   5.205  1.4179  2.7772  1.6126
   30MOL    H30 9368   0.222   4.030   4.978 -0.0616 -0.0842 -0.0229
   30MOL    H31 9369   0.384   4.050   4.780  0.7185 -0.0318 -0.0371
   30MOL    H32 9370   0.650   4.301   4.790  0.7791 -1.7548  0.4320
   30MOL    H33 9371   0.555   4.222   4.675  0.9628  0.6271 -0.9593
   30MOL    C34 9372   0.758   4.250   4.626  0.7860 -0.2700  0.1831
   30MOL    C35 9373   0.900   4.234   4.674  0.2272 -0.1833 -0.1341
   30MOL    C36 9374   1.000   4.177   4.594  0.2471 -0.2669 -0.0022
   30MOL   Cl37 9375   0.973   4.139   4.431 -0.4029  0.1463 -0.0129
   30MOL    C38 9376   1.121   4.143   4.655  0.1042  0.1887  0.0228
   30MOL    C39 9377   1.154   4.181   4.786  0.1048  0.2914 -0.1133
   30MOL    C40 9378   1.058   4.247   4.859  0.1733 -0.2689 -0.0014
   30MOL    C41 9379   0.933   4.272   4.804 -1.2949 -0.4827  0.7330
   30MOL    C42 9380   0.734   4.394   4.577 -0.4732 -0.3184 -0.6757
   30MOL    H43 9381   0.751   4.183   4.541  2.3801  0.2007 -0.3451
   30MOL    H44 9382   1.199   4.090   4.603  0.0508  0.8086 -0.6891
   30MOL    H45 9383   1.243   4.140   4.830 -0.1951 -1.3356 -0.9771
   30MOL    H46 9384   1.083   4.273   4.961 -0.6513  0.6171 -0.0188
   30MOL    H47 9385   0.861   4.326   4.864 -0.0626 -1.0430  2.7701
   30MOL    H48 9386   0.822   4.427   4.521 -0.6452 -0.2718 -0.9188
   30MOL    H49 9387   0.732   4.458   4.665 -1.6237 -0.7978 -0.3438
   30MOL    C50 9388   0.610   4.426   4.491 -0.0453  0.9223  0.2258
   30MOL    C51 9389   0.600   4.328   4.378 -0.2732  0.2536 -0.0456
   30MOL    C52 9390   0.487   4.242   4.350 -0.4243 -0.3384  0.2215
   30MOL   Cl53 9391   0.339   4.257   4.440 -0.8621 -0.7603  0.5058
   30MOL    C54 9392   0.495   4.151   4.239 -0.2028 -0.0927 -0.6343
   30MOL    C55 9393   0.611   4.139   4.162  0.3447  0.0449  0.8547
   30MOL    C56 9394   0.716   4.224   4.187 -0.9885 -0.1898  0.2059
   30MOL    C57 9395   0.713   4.318   4.294  0.1594  0.2855 -0.3198
   30MOL    C58 9396   0.591   4.580   4.455 -0.0289  0.4478 -0.1910
   30MOL    H59 9397   0.518   4.407   4.547  0.1753  0.0811  0.3019
   30MOL    H60 9398   0.406   4.091   4.224 -0.5959  0.0166  1.1749
   30MOL    H61 9399   0.620   4.066   4.083 -1.3534  0.2500  0.4418
   30MOL    H62 9400   0.811   4.200   4.142 -1.0146 -3.5514  1.7534
   30MOL    H63 9401   0.796   4.387   4.307  0.5198 -0.1733 -0.1769
   30MOL    H64 9402   0.540   4.593   4.359 -0.7231  0.4562  0.1739
   30MOL    H65 9403   0.690   4.621   4.438 -0.9946  2.8896 -0.1538
   30MOL    C66 9404   0.517   4.664   4.563  0.1759 -1.1252 -0.2768
   30MOL    C67 9405   0.359   4.639   4.568 -0.3636  0.3547 -0.2658
   30MOL    C68 9406   0.297   4.587   4.681  0.5342 -0.1654 -0.6480
   30MOL   Cl69 9407   0.383   4.565   4.825  0.2042  0.1577  0.4051
   30MOL    C70 9408   0.160   4.556   4.674  0.0803  1.0708  0.2022
   30MOL    C71 9409   0.088   4.568   4.554  0.0466  0.6293  0.8341
   30MOL    C72 9410   0.153   4.616   4.438 -0.6212 -0.5799 -0.2565
   30MOL    C73 9411   0.291   4.652   4.446 -0.8136  0.2407  0.3728
   30MOL    C74 9412   0.544   4.817   4.551  0.4706  0.0182 -0.1184
   30MOL    H75 9413   0.555   4.634   4.660  0.2158  2.0745  0.7539
   30MOL    H76 9414   0.102   4.518   4.757  0.0507 -0.1263 -0.3460
   30MOL    H77 9415   8.405   4.537   4.556 -0.2970  1.7213  0.4741
   30MOL    H78 9416   0.099   4.617   4.345  0.6523  0.4885 -1.0074
   30MOL    H79 9417   0.348   4.674   4.357 -1.3477 -2.8102 -0.7985
   30MOL    H80 9418   0.480   4.865   4.625 -2.7560 -1.2416 -1.9884
   30MOL    H81 9419   0.511   4.844   4.451 -1.0368 -1.2860  0.0030
   30MOL    C82 9420   0.682   4.882   4.576  0.2109  0.3339  0.3710
   30MOL    C83 9421   0.773   4.794   4.669 -0.1006 -1.1011 -0.4832
   30MOL    C84 9422   0.899   4.739   4.626  0.3123 -0.7103  0.2552
   30MOL   Cl85 9423   0.979   4.780   4.472 -0.1376  0.0527  0.4326
   30MOL    C86 9424   0.961   4.647   4.707  0.7739  0.5179  0.3551
   30MOL    C87 9425   0.916   4.629   4.842  0.4941  0.5434 -1.3870
   30MOL    C88 9426   0.800   4.690   4.886  0.4955  0.1025 -0.0755
   30MOL    C89 9427   0.736   4.785   4.807 -0.1198  0.2266 -0.4583
   30MOL    C90 9428   0.664   5.030   4.637 -0.6132 -0.9097  0.3167
   30MOL    H91 9429   0.730   4.897   4.479 -1.0660 -1.1145 -0.4907
   30MOL    H92 9430   1.042   4.582   4.680  0.0689 -0.7238  1.1622
   30MOL    H93 9431   0.967   4.556   4.903  0.0283  1.6958  0.4097
   30MOL    H94 9432   0.770   4.671   4.989  1.5121  1.2117  0.4356
   30MOL    H95 9433   0.650   4.833   4.852 -1.1398 -1.8401 -0.1123
   30MOL    H96 9434   0.594   5.031   4.721 -1.3344 -1.0678 -0.2817
   30MOL    H97 9435   0.623   5.096   4.561  0.1210 -1.4344 -0.5380
   30MOL    C98 9436   0.790   5.101   4.693 -0.9247 -0.2496  0.6895
   30MOL    C99 9437   0.756   5.221   4.786  0.3607  0.2998 -0.6254
   30MOL   C100 9438   0.760   5.214   4.925  0.2104 -0.3761  0.3788
   30MOL  Cl101 9439   0.777   5.071   5.018 -0.0873  0.2203 -0.0257
   30MOL   C102 9440   0.750   5.330   5.001  0.2601  0.5140 -1.1200
   30MOL   C103 9441   0.736   5.460   4.948 -0.6451  0.9297  0.3841
   30MOL   C104 9442   0.719   5.463   4.809 -0.5142 -0.0830  0.1306
   30MOL   C105 9443   0.727   5.345   4.729 -0.4526 -0.8106  0.3798
   30MOL   C106 9444   0.893   5.141   4.583  0.3083 -0.4977 -0.1551
   30MOL   H107 9445   0.846   5.036   4.761 -1.3008 -0.4079  0.8450
   30MOL   H108 9446   0.766   5.315   5.107 -0.4255 -3.7386 -1.5257
   30MOL   H109 9447   0.722   5.555   4.998  2.0855  0.0972  2.8722
   30MOL   H110 9448   0.698   5.556   4.757 -1.1168  0.2636  0.9816
   30MOL   H111 9449   0.704   5.353   4.624  3.1654 -0.5333 -0.4513
   30MOL   H112 9450   0.853   5.211   4.510 -0.9007  0.3598  1.2894
   30MOL   H113 9451   0.895   5.055   4.516  2.0744 -0.6378  0.0444
   30MOL   C114 9452   1.039   5.171   4.627  0.5064 -0.2199 -0.3832
   30MOL   C115 9453   1.113   5.256   4.525  0.0188  0.2981 -0.8069
   30MOL   C116 9454   1.189   5.364   4.569  0.3430 -0.7535 -0.9232
   30MOL  Cl117 9455   1.170   5.425   4.727  0.2284  0.0834  0.3139
   30MOL   C118 9456   1.274   5.423   4.482  0.1425 -0.0145 -0.0173
   30MOL   C119 9457   1.264   5.394   4.344  0.2375 -0.2428  0.1149
   30MOL   C120 9458   1.207   5.275   4.302 -0.0087 -0.2780  0.6158
   30MOL   C121 9459   1.131   5.207   4.400  0.3748  0.4943  0.1421
   30MOL   C122 9460   1.116   5.039   4.657 -0.9402 -0.8705  0.0636
   30MOL   H123 9461   1.027   5.227   4.719 -2.0368 -0.3956 -0.5722
   30MOL   H124 9462   1.320   5.515   4.516 -0.7407  0.8766 -1.2043
   30MOL   H125 9463   1.319   5.459   4.277 -0.2224  0.8892  0.8200
   30MOL   H126 9464   1.214   5.252   4.196  2.6534 -0.4532  0.7736
   30MOL   H127 9465   1.083   5.112   4.381  2.5950 -0.6066 -0.1740
   30MOL   H128 9466   1.155   4.997   4.565 -1.5815 -0.7048 -0.2837
   30MOL   H129 9467   1.057   4.950   4.676 -0.7314 -0.9002  0.6046
   30MOL   C130 9468   1.231   5.052   4.757 -0.3081 -0.7905  0.3437
   30MOL   C131 9469   1.343   4.952   4.734  0.0461  0.2422  0.4319
   30MOL   C132 9470   1.482   4.991   4.695 -0.1671 -0.4309 -0.5642
   30MOL  Cl133 9471   1.526   5.148   4.650 -0.0246  0.4903  0.2770
   30MOL   C134 9472   1.586   4.898   4.706  0.4685  0.2428 -0.4724
   30MOL   C135 9473   1.564   4.769   4.755  0.2315  0.1553  0.5114
   30MOL   C136 9474   1.435   4.728   4.779 -0.9357 -0.1824 -0.4127
   30MOL   C137 9475   1.323   4.814   4.760  0.2204 -0.3610 -0.1688
   30MOL   C138 9476   1.177   5.059   4.893  0.4721  0.5727  0.3742
   30MOL   H139 9477   1.284   5.146   4.739  0.5147 -1.7384 -2.5251
   30MOL   H140 9478   1.685   4.923   4.672  1.4648 -1.7810  0.8557
   30MOL   H141 9479   1.640   4.695   4.771 -0.5587 -0.5844  0.8990
   30MOL   H142 9480   1.420   4.625   4.810 -0.4739 -0.1722 -0.1501
   30MOL   H143 9481   1.222   4.784   4.781 -0.4783  3.3231  2.1365
   30MOL   H144 9482   1.110   4.974   4.910  2.4197 -1.2220 -0.6237
   30MOL   H145 9483   1.124   5.152   4.911  1.2564  1.0841  0.0596
   30MOL   C146 9484   1.275   5.051   5.013 -0.4659  0.2165  0.5946
   30MOL   C147 9485   1.204   5.033   5.143 -0.3197 -0.7726  0.1658
   30MOL   C148 9486   1.203   4.910   5.212 -0.3108 -0.7091  0.5222
   30MOL  Cl149 9487   1.286   4.773   5.147  0.1065 -0.3368 -0.0321
   30MOL   C150 9488   1.128   4.896   5.330 -0.3503 -0.7675 -0.2194
   30MOL   C151 9489   1.047   4.999   5.377 -0.7991  0.4420 -0.5954
   30MOL   C152 9490   1.049   5.121   5.312  0.6418 -0.0728 -0.3210
   30MOL   C153 9491   1.126   5.140   5.202 -0.3792 -0.1664 -0.1279
   30MOL   C154 9492   1.382   5.164   5.019 -0.7148  0.2473 -0.1426
   30MOL   H155 9493   1.328   4.959   4.987 -3.0216 -0.2055 -3.6962
   30MOL   H156 9494   1.131   4.799   5.377 -0.8822 -0.6871 -0.0260
   30MOL   H157 9495   0.996   4.991   5.472  0.3173  3.5446  0.3065
   30MOL   H158 9496   0.995   5.203   5.357 -0.5908 -1.3534  0.5328
   30MOL   H159 9497   1.134   5.236   5.154  0.5918 -0.3486 -0.3602
   30MOL   H160 9498   1.337   5.253   5.064  1.9956  0.6463  1.9227
   30MOL   H161 9499   1.432   5.190   4.926 -3.3694 -0.4839 -1.8216
   30MOL   C162 9500   1.509   5.122   5.106  0.1529  0.4085 -0.3527
   30MOL   C163 9501   1.564   5.246   5.185 -0.5187 -0.2105  0.3887
   30MOL   C164 9502   1.521   5.288   5.315 -0.3473  0.1868 -0.4544
   30MOL  Cl165 9503   1.419   5.183   5.413  0.1184  0.0336 -0.0591
   30MOL   C166 9504   1.569   5.405   5.373  0.0083 -0.5360  0.0852
   30MOL   C167 9505   1.655   5.491   5.303  0.3099 -0.4248 -0.0831
   30MOL   C168 9506   1.706   5.448   5.176  0.2412  0.2165  0.1393
   30MOL   C169 9507   1.662   5.325   5.122  0.0597  0.3174  0.2316
   30MOL   C170 9508   1.610   5.039   5.033 -0.2859 -0.3617 -0.2950
   30MOL   H171 9509   1.466   5.059   5.184  0.5464  0.2240 -0.2838
   30MOL   H172 9510   1.538   5.427   5.474  0.4392  1.5065 -0.2124
   30MOL   H173 9511   1.675   5.585   5.353  1.5851 -0.5594 -0.3452
   30MOL   H174 9512   1.773   5.514   5.123  0.9321 -1.8539 -1.6598
   30MOL   H175 9513   1.698   5.303   5.022 -2.6348  0.3588 -0.7827
   30MOL   H176 9514   1.627   5.088   4.937 -0.5078 -0.9884 -0.6551
   30MOL   H177 9515   1.563   4.944   5.009 -1.1132 -0.7353  2.5877
   30MOL   C178 9516   1.748   5.003   5.103 -0.6084  0.2460 -0.4980
   30MOL   C179 9517   1.838   4.915   5.007  0.3594 -0.2588  0.2029
   30MOL   C180 9518   1.915   4.977   4.901  0.7997 -0.3918 -0.4011
   30MOL  Cl181 9519   1.926   5.147   4.893 -0.1837 -0.2990 -0.1123
   30MOL   C182 9520   1.994   4.901   4.814  1.1188 -0.0234  0.0852
   30MOL   C183 9521   1.993   4.761   4.829 -0.1140 -1.0425  0.2123
   30MOL   C184 9522   1.913   4.696   4.929  0.4544  0.9222 -0.7514
   30MOL   C185 9523   1.834   4.773   5.021 -0.1411 -0.6456 -0.0366
   30MOL   C186 9524   1.715   4.953   5.246 -0.3217  0.1630  0.3784
   30MOL   H187 9525   1.799   5.097   5.122  0.2874 -0.6538  1.6584
   30MOL   H188 9526   2.057   4.957   4.746  2.2289 -1.3832 -0.0105
   30MOL   H189 9527   2.051   4.708   4.755 -0.0476  0.2286 -0.6563
   30MOL   H190 9528   1.926   4.589   4.928  1.0882  0.9941 -0.4447
   30MOL   H191 9529   1.771   4.731   5.099 -1.2006  0.5125 -0.2600
   30MOL   H192 9530   1.640   4.874   5.252  1.5007 -1.6699 -0.2568
   30MOL   H193 9531   1.665   5.036   5.295 -0.7053  0.7305 -0.9680
   30MOL   C194 9532   1.827   4.921   5.347 -0.5284  0.4633 -0.1821
   30MOL   C195 9533   1.942   5.025   5.361 -0.0050  0.5565 -0.1906
   30MOL   C196 9534   1.925   5.128   5.456  0.4163  0.1508  0.9683
   30MOL  Cl197 9535   1.779   5.166   5.546  0.5511 -0.4369 -0.2624
   30MOL   C198 9536   2.031   5.219   5.476  0.6737  0.4804 -0.9166
   30MOL   C199 9537   2.152   5.208   5.411  0.1489 -0.1117 -0.2648
   30MOL   C200 9538   2.167   5.101   5.321 -0.3397  0.0815  0.4276
   30MOL   C201 9539   2.059   5.011   5.288 -0.2388 -0.2742 -0.3715
   30MOL   C202 9540   1.886   4.780   5.355 -0.4227  0.9907 -0.0799
   30MOL   H203 9541   1.773   4.937   5.440 -1.8339  1.9826 -1.1663
   30MOL   H204 9542   2.009   5.293   5.550  0.8623 -1.7834  1.4682
   30MOL   H205 9543   2.230   5.272   5.447  0.5486 -0.0884 -1.1566
   30MOL   H206 9544   2.268   5.079   5.290 -0.1081  0.7362  0.7196
   30MOL   H207 9545   2.094   4.933   5.223  0.7872 -0.0990 -0.0326
   30MOL   H208 9546   1.950   4.766   5.268 -1.6543  2.1382 -1.1817
   30MOL   H209 9547   1.799   4.717   5.337  0.0948  0.4690 -0.7872
   30MOL   C210 9548   1.958   4.741   5.486  0.0447  0.9122 -0.2654
   30MOL   C211 9549   2.099   4.800   5.517  0.4212 -0.0576  0.3850
   30MOL   C212 9550   2.118   4.892   5.622 -0.2607  0.3118 -0.8162
   30MOL  Cl213 9551   1.992   4.956   5.727  0.2942  0.1492  0.0795
   30MOL   C214 9552   2.247   4.942   5.645  0.4407  0.0576  0.0867
   30MOL   C215 9553   2.362   4.911   5.568 -0.3779  0.4154  0.5535
   30MOL   C216 9554   2.346   4.817   5.464  0.1447  0.1252 -0.0429
   30MOL   C217 9555   2.215   4.759   5.447 -0.4337  0.6405  0.7420
   30MOL   C218 9556   1.953   4.589   5.510 -0.2955  1.0057  0.6439
   30MOL   H219 9557   1.895   4.788   5.561 -0.2426 -1.1629  0.8262
   30MOL   H220 9558   2.251   5.018   5.723 -3.3945  1.1424 -0.6624
   30MOL   H221 9559   2.456   4.961   5.585 -0.4029  1.3700 -1.9866
   30MOL   H222 9560   2.430   4.787   5.404 -0.5664 -0.5972 -0.6925
   30MOL   H223 9561   2.207   4.698   5.358 -0.3279  0.4455  0.8636
   30MOL   H224 9562   2.016   4.535   5.438  0.2746 -1.5191  2.9467
   30MOL   H225 9563   1.853   4.548   5.494  1.5164 -3.6606  0.3830
   30MOL   C226 9564   2.025   4.542   5.641  0.5060  0.5234 -0.2252
   30MOL   C227 9565   2.053   4.393   5.631  0.0717  0.2238 -0.6630
   30MOL   C228 9566   2.182   4.341   5.644  0.9263  0.3682 -0.0945
   30MOL  Cl229 9567   2.321   4.437   5.661  0.6364  0.2390 -0.1416
   30MOL   C230 9568   2.195   4.205   5.632  0.8589  0.2191 -0.7043
   30MOL   C231 9569   2.089   4.117   5.603  0.5498 -0.7475  0.4007
   30MOL   C232 9570   1.956   4.167   5.592 -0.3830  0.1083 -0.0906
   30MOL   C233 9571   1.941   4.304   5.604 -0.1958 -0.8711  0.3727
   30MOL   C234 9572   1.939   4.575   5.765  1.0119  0.5531 -0.4073
   30MOL   H235 9573   2.112   4.603   5.662  1.8877 -2.1627  2.2985
   30MOL   H236 9574   2.292   4.160   5.646  0.9895  0.2875 -1.3552
   30MOL   H237 9575   2.106   4.011   5.594 -2.1763 -1.2376  0.4351
   30MOL   H238 9576   1.867   4.112   5.566 -1.0433  1.5666 -0.9899
   30MOL   H239 9577   1.842   4.343   5.590  0.9481  0.6088 -4.3325
   30MOL   H240 9578   1.873   4.489   5.779 -0.2636  1.1735 -2.4015
   30MOL   H241 9579   1.872   4.652   5.727 -0.5964  0.0622  1.3683
   30MOL   C242 9580   2.004   4.626   5.898  0.5616 -0.3871 -0.7696
   30MOL   C243 9581   2.095   4.530   5.967  0.4427 -0.0152  0.0613
   30MOL   C244 9582   2.236   4.537   5.966 -0.0058 -0.0602  0.7658
   30MOL  Cl245 9583   2.321   4.668   5.884 -0.2692 -0.0312 -0.1332
   30MOL   C246 9584   2.315   4.433   6.016 -0.2804  0.2365  0.1800
   30MOL   C247 9585   2.262   4.320   6.073  0.7582 -0.4856  0.1580
   30MOL   C248 9586   2.119   4.307   6.073 -0.4932 -0.0010  0.3809
   30MOL   C249 9587   2.041   4.417   6.031  0.2420  0.4352 -0.0708
   30MOL   C250 9588   1.890   4.682   5.987  0.3702 -0.6545  0.1686
   30MOL   H251 9589   2.057   4.717   5.869 -0.7105  0.3782 -0.7320
   30MOL   H252 9590   2.422   4.432   5.998 -0.1608 -0.4741  0.9072
   30MOL   H253 9591   2.323   4.236   6.103  2.3339  0.3131 -0.7238
   30MOL   H254 9592   2.068   4.216   6.099  2.2564 -2.0874 -1.2208
   30MOL   H255 9593   1.933   4.417   6.034  0.2091  1.7253 -0.9580
   30MOL   H256 9594   1.821   4.604   6.017 -1.1130  0.3162 -0.7054
   30MOL   H257 9595   1.834   4.754   5.928  0.8161 -1.3577 -1.1349
   30MOL   C258 9596   1.934   4.751   6.116  0.0412  0.9977  0.2148
   30MOL   C259 9597   1.805   4.775   6.193  0.0465  0.5906  0.7982
   30MOL   C260 9598   1.765   4.692   6.298  0.7359  0.5908  0.2463
   30MOL  Cl261 9599   1.858   4.568   6.360  0.2281 -0.1545  0.0479
   30MOL   C262 9600   1.639   4.708   6.359  0.4115 -0.2926 -0.1663
   30MOL   C263 9601   1.546   4.810   6.318 -0.4027 -0.1109  0.1210
   30MOL   C264 9602   1.582   4.885   6.205 -0.1155 -0.4037 -0.3922
   30MOL   C265 9603   1.713   4.871   6.146 -0.0617  0.7348  0.1899
   30MOL   C266 9604   2.001   4.893   6.092 -0.1271  1.0761  0.3092
   30MOL   H267 9605   2.001   4.674   6.154 -0.6419 -1.3428 -3.0849
   30MOL   H268 9606   1.615   4.642   6.441  1.3238  0.5626  0.8012
   30MOL   H269 9607   1.450   4.817   6.369 -1.3182  3.8160 -1.9182
   30MOL   H270 9608   1.515   4.959   6.164  1.4650  0.1948 -1.9334
   30MOL   H271 9609   1.736   4.918   6.051  2.4873 -2.9761 -1.1189
   30MOL   H272 9610   1.943   4.981   6.064  1.2384  1.4780 -1.3844
   30MOL   H273 9611   2.069   4.890   6.007  0.2127 -1.0834  0.6338
   30MOL   C274 9612   2.090   4.932   6.208  1.1680  0.7728  0.5635
   30MOL   C275 9613   2.093   5.084   6.211 -0.0960 -0.4630  0.3720
   30MOL   C276 9614   2.087   5.159   6.333  0.5751 -0.3727 -0.6562
   30MOL  Cl277 9615   2.052   5.090   6.487  0.1031 -0.1642 -0.0286
   30MOL   C278 9616   2.090   5.302   6.325 -0.0431 -0.4627 -0.0706
   30MOL   C279 9617   2.112   5.369   6.203 -0.0684 -0.1802  0.1956
   30MOL   C280 9618   2.131   5.296   6.083 -0.3306  1.0432 -0.7875
   30MOL   C281 9619   2.123   5.151   6.086 -0.0850 -0.0244  0.3348
   30MOL   C282 9620   2.223   4.861   6.210 -0.3467  0.7141  0.0313
   30MOL   H283 9621   2.033   4.905   6.297  0.0392  0.3802 -0.2611
   30MOL   H284 9622   2.094   5.361   6.416 -3.8400 -1.8909  1.1560
   30MOL   H285 9623   2.129   5.475   6.192  2.5600 -0.7124 -1.1169
   30MOL   H286 9624   2.164   5.336   5.988 -0.2608 -2.5063 -2.3326
   30MOL   H287 9625   2.138   5.099   5.992  0.0833 -3.1439  2.0031
   30MOL   H288 9626   2.296   4.910   6.146  1.7465  1.4070  2.8612
   30MOL   H289 9627   2.209   4.762   6.165  2.2998 -0.5000  1.7542
   30MOL   C290 9628   2.289   4.844   6.346  0.2424 -0.1054  0.1985
   30MOL   C291 9629   2.433   4.806   6.331 -0.6069  0.1119 -0.4268
   30MOL   C292 9630   2.540   4.888   6.372 -0.1219  0.2260 -0.3431
   30MOL  Cl293 9631   2.518   5.050   6.427 -0.1722 -0.5274  0.1905
   30MOL   C294 9632   2.673   4.862   6.339  0.2420 -0.4431  0.2475
   30MOL   C295 9633   2.702   4.740   6.277 -0.4843  0.3528  0.2647
   30MOL   C296 9634   2.599   4.644   6.243 -0.0772 -0.6372 -0.5337
   30MOL   C297 9635   2.463   4.679   6.273  0.1866  0.5994  0.0588
   30MOL   C298 9636   2.206   4.738   6.433  0.3159  0.5183  0.6481
   30MOL   H299 9637   2.279   4.942   6.393  1.0579 -0.1206  0.4190
   30MOL   H300 9638   2.746   4.940   6.358 -0.8390  0.4108  0.9398
   30MOL   H301 9639   2.804   4.711   6.261 -0.0388  1.9212  0.2286
   30MOL   H302 9640   2.633   4.552   6.199 -0.0201 -0.9101  0.0674
   30MOL   H303 9641   2.381   4.619   6.236 -0.4807  0.0460  2.3536
   30MOL   H304 9642   2.188   4.647   6.376 -1.5108  0.3204  1.5021
   30MOL   H305 9643   2.106   4.777   6.455 -0.5272 -0.0015 -2.1075
   30MOL   C306 9644   2.270   4.700   6.562 -0.4276 -0.0945  0.1132
   30MOL   C307 9645   2.204   4.575   6.617 -0.5704 -0.5754 -0.0226
   30MOL   C308 9646   2.252   4.448   6.578  0.0416 -0.1146  0.3127
   30MOL  Cl309 9647   2.409   4.429   6.514  0.6183 -0.2176 -0.2818
   30MOL   C310 9648   2.166   4.331   6.601 -0.1605 -0.4555 -0.0968
   30MOL   C311 9649   2.048   4.352   6.666 -0.1471 -0.1486 -0.4668
   30MOL   C312 9650   2.004   4.476   6.710 -0.0546 -0.4141 -0.1732
   30MOL   C313 9651   2.084   4.587   6.692  0.0034 -0.0521  0.6769
   30MOL   C314 9652   2.260   4.820   6.658  0.3555  0.4767 -0.5603
   30MOL   H315 9653   2.377   4.684   6.550 -0.2395 -0.1014  1.6456
   30MOL   H316 9654   2.204   4.232   6.581  0.3771  0.0681 -1.7331
   30MOL   H317 9655   1.981   4.270   6.688 -0.8951  0.2110 -1.3223
   30MOL   H318 9656   1.903   4.478   6.748 -0.6648 -0.4538 -1.7421
   30MOL   H319 9657   2.044   4.683   6.724  0.4080 -0.4526  2.4681
   30MOL   H320 9658   2.293   4.787   6.757  0.4257 -1.0000 -1.0698
   30MOL   H321 9659   2.157   4.855   6.670  1.2804  2.8801  0.7125
   30MOL   H322 9660   2.318   4.899   6.611  1.8208  0.0890  0.5761
   31MOL     C1 9661   6.058   0.805   7.859  0.3276 -0.5850 -0.0366
   31MOL     C2 9662   6.049   0.925   7.771  0.4336  0.1087  0.2716
   31MOL     C3 9663   5.936   0.947   7.692 -0.3244 -0.3116 -0.0172
   31MOL    Cl4 9664   5.805   0.836   7.683 -0.0474  0.2953  0.1203
   31MOL     C5 9665   5.937   1.059   7.609 -0.2955 -0.3956  0.3373
   31MOL     C6 9666   6.047   1.148   7.602  0.6612 -0.9789 -0.1238
   31MOL     C7 9667   6.154   1.125   7.682  0.6551 -0.1076  0.2608
   31MOL     C8 9668   6.160   1.014   7.768 -0.2020 -0.1034 -0.6276
   31MOL     C9 9669   6.168   0.803   7.967  0.1342 -0.6813  0.0493
   31MOL    H10 9670   5.961   0.798   7.907  0.1945 -0.0512 -0.2270
   31MOL    H11 9671   5.851   1.068   7.544  0.5706 -0.0710 -0.7770
   31MOL    H12 9672   6.038   1.229   7.532  0.8921  0.6208  1.6601
   31MOL    H13 9673   6.235   1.197   7.679 -1.0957  1.8729 -3.2899
   31MOL    H14 9674   6.250   1.006   7.826 -0.7190 -0.7718  0.0904
   31MOL    H15 9675   6.177   0.892   8.029 -1.3801 -1.1906  1.0242
   31MOL    H16 9676   6.268   0.794   7.925  0.1451  0.1113 -0.1039
   31MOL    H17 9677   6.064   0.715   7.797 -0.9727  0.5690 -1.8960
   31MOL    C18 9678   6.149   0.691   8.065 -0.3536  0.9326 -0.1842
   31MOL    C19 9679   6.013   0.692   8.133 -0.2543 -0.4500  0.3310
   31MOL    C20 9680   5.916   0.593   8.110 -0.0604 -0.0279 -0.3962
   31MOL   Cl21 9681   5.944   0.459   8.008  0.0141  0.2152 -0.2318
   31MOL    C22 9682   5.790   0.600   8.174  0.4976 -0.0271 -0.5143
   31MOL    C23 9683   5.760   0.703   8.266  0.0511  0.3099  0.2902
   31MOL    C24 9684   5.857   0.799   8.299 -0.5916 -0.0624  0.2297
   31MOL    C25 9685   5.983   0.783   8.237 -0.4924 -0.0028  0.2180
   31MOL    C26 9686   6.272   0.688   8.164 -1.2956  0.1349 -0.9307
   31MOL    H27 9687   6.167   0.604   8.003  1.2106  1.3727 -0.3760
   31MOL    H28 9688   5.716   0.522   8.159 -0.2176  0.7064 -0.8772
   31MOL    H29 9689   5.669   0.705   8.326 -0.6692 -2.7316 -0.6217
   31MOL    H30 9690   5.829   0.880   8.365  0.4855  0.1015  0.5117
   31MOL    H31 9691   6.050   0.862   8.269  0.6810 -1.6766  1.9640
   31MOL    H32 9692   6.283   0.788   8.207  2.5475 -0.0956 -1.1567
   31MOL    H33 9693   6.360   0.677   8.100 -1.0818 -0.6570 -0.5017
   31MOL    C34 9694   6.259   0.594   8.288 -0.0555 -0.8488 -0.0334
   31MOL    C35 9695   6.376   0.609   8.391 -0.7507 -0.5527  0.6032
   31MOL    C36 9696   6.357   0.635   0.111  0.3859  0.8297  0.2877
   31MOL   Cl37 9697   6.200   0.646   0.191 -0.2110  0.3650  0.1004
   31MOL    C38 9698   6.471   0.650   0.192 -0.0327  0.0461 -0.2705
   31MOL    C39 9699   6.599   0.655   0.137  0.3105  0.3045 -0.1050
   31MOL    C40 9700   6.621   0.632   0.000  0.2135  0.0581  0.0267
   31MOL    C41 9701   6.510   0.600   8.337 -0.3511  0.1797 -0.0094
   31MOL    C42 9702   6.234   0.440   8.256  0.7803  0.0247 -0.1964
   31MOL    H43 9703   6.168   0.625   8.338  0.8889  0.5319  0.8589
   31MOL    H44 9704   6.453   0.661   0.298 -1.4926  2.4576 -0.7357
   31MOL    H45 9705   6.684   0.666   0.202  0.0099  1.8719  0.0337
   31MOL    H46 9706   6.721   0.634   8.382 -0.4539 -0.9844 -1.7860
   31MOL    H47 9707   6.536   0.566   8.238  0.8583 -1.5808  0.8745
   31MOL    H48 9708   6.333   0.396   8.240  0.8840 -0.7619  2.4641
   31MOL    H49 9709   6.165   0.421   8.174 -0.2193 -2.0310  1.0860
   31MOL    C50 9710   6.169   0.355   8.367 -1.0477  0.6131  0.0479
   31MOL    C51 9711   6.191   0.204   8.351  0.2046  0.4028  0.2688
   31MOL    C52 9712   6.266   0.121   0.019  0.5283  0.5467  0.5183
   31MOL   Cl53 9713   6.344   0.174   0.161  0.2822 -0.0412  0.3048
   31MOL    C54 9714   6.281   8.405   8.409 -0.0019 -0.0227 -0.1618
   31MOL    C55 9715   6.222   8.343   8.301  0.1676 -0.4548  0.1275
   31MOL    C56 9716   6.139   0.003   8.220  0.3420 -0.2039 -0.2649
   31MOL    C57 9717   6.129   0.141   8.241 -0.3006  0.1256  0.5316
   31MOL    C58 9718   6.015   0.382   8.379 -0.7978 -0.4624 -0.4574
   31MOL    H59 9719   6.220   0.377   0.040 -1.0388 -0.3511  0.2702
   31MOL    H60 9720   6.344   8.346   0.053 -0.2470 -0.0233  0.0808
   31MOL    H61 9721   6.233   8.238   8.276  0.7295 -0.5994  0.9500
   31MOL    H62 9722   6.084   8.381   8.137 -1.1738  1.9836 -0.4542
   31MOL    H63 9723   6.060   0.196   8.178 -2.0177  1.4793  3.5110
   31MOL    H64 9724   5.963   0.343   8.291 -0.8988  0.9606 -1.0533
   31MOL    H65 9725   5.989   0.487   8.369 -0.1766  0.0592  2.7745
   31MOL    C66 9726   5.942   0.341   0.088 -0.2246  0.2556  0.1510
   31MOL    C67 9727   5.975   0.200   0.151  0.8092  0.8506  0.4910
   31MOL    C68 9728   6.034   0.191   0.275 -0.2075 -0.2361 -0.1186
   31MOL   Cl69 9729   6.065   0.329   0.372 -0.3760  0.1921  0.0870
   31MOL    C70 9730   6.056   0.065   0.336 -0.3515  0.1884  0.1273
   31MOL    C71 9731   6.013   8.370   0.272 -0.4439 -0.6018 -0.1021
   31MOL    C72 9732   5.946   8.380   0.153  1.1192 -0.0674 -0.2332
   31MOL    C73 9733   5.926   0.082   0.090 -0.9480  0.2793  0.2016
   31MOL    C74 9734   5.791   0.356   0.064 -0.4517 -0.8787 -0.1279
   31MOL    H75 9735   5.971   0.424   0.152  1.1915  0.2223 -0.4226
   31MOL    H76 9736   6.110   0.056   0.429  2.6748  1.5593 -1.4169
   31MOL    H77 9737   6.031   8.275   0.322  3.9151  0.5072  0.6053
   31MOL    H78 9738   5.906   8.290   0.107  1.1554  0.4024 -1.1918
   31MOL    H79 9739   5.867   0.086   8.420 -0.7668  0.1691  0.0808
   31MOL    H80 9740   5.767   0.296   8.396 -0.6773 -1.4889  0.3450
   31MOL    H81 9741   5.753   0.453   0.030 -0.0525 -1.1825 -1.4865
   31MOL    C82 9742   5.697   0.312   0.177  0.2336  0.7500 -0.2250
   31MOL    C83 9743   5.554   0.305   0.121  0.2213  0.2087 -0.0226
   31MOL    C84 9744   5.484   0.181   0.098  0.2273  0.2047  0.5275
   31MOL   Cl85 9745   5.563   0.025   0.114  0.2241 -0.3831  0.5769
   31MOL    C86 9746   5.359   0.184   0.031  0.4306  0.0201  0.5239
   31MOL    C87 9747   5.316   0.310   8.402  0.1200  0.8116  0.3769
   31MOL    C88 9748   5.376   0.437   0.006  0.7056 -0.0919 -0.8458
   31MOL    C89 9749   5.493   0.428   0.081 -0.6052 -0.0762  0.7672
   31MOL    C90 9750   5.708   0.419   0.294  0.2823  0.1994 -0.3923
   31MOL    H91 9751   5.720   0.214   0.217 -0.4756  1.1649  1.2305
   31MOL    H92 9752   5.308   0.092   0.008 -0.0709  0.5780 -0.6515
   31MOL    H93 9753   5.236   0.306   8.330 -1.2025 -0.9251  1.8783
   31MOL    H94 9754   5.343   0.532   8.388 -2.2404 -0.9469 -0.5354
   31MOL    H95 9755   5.538   0.526   0.094 -2.9932  0.7995  3.0326
   31MOL    H96 9756   5.637   0.499   0.273  0.6673  0.2534 -1.5120
   31MOL    H97 9757   5.801   0.476   0.299  1.9443 -2.4565 -0.0907
   31MOL    C98 9758   5.691   0.360   0.436 -0.2863  0.3362 -0.4139
   31MOL    C99 9759   5.565   0.274   0.452 -0.0383 -0.8202 -0.1971
   31MOL   C100 9760   5.566   0.136   0.456 -0.0497  0.9380  0.7780
   31MOL  Cl101 9761   5.720   0.049   0.448  0.2571 -0.6446 -0.0191
   31MOL   C102 9762   5.453   0.060   0.489  0.3166  0.2377 -0.6453
   31MOL   C103 9763   5.328   0.124   0.510 -0.2885  0.0414  0.7478
   31MOL   C104 9764   5.325   0.261   0.481 -0.5118  0.3708  0.1239
   31MOL   C105 9765   5.441   0.337   0.454  0.3928 -0.2704 -0.0329
   31MOL   C106 9766   5.684   0.481   0.530 -0.3925  0.4641 -0.1100
   31MOL   H107 9767   5.777   0.308   0.477 -1.2053 -0.9648 -0.1191
   31MOL   H108 9768   5.471   8.374   0.497  2.4037  0.4922 -1.4876
   31MOL   H109 9769   5.244   0.059   0.532 -0.0791 -0.4886  0.0426
   31MOL   H110 9770   5.229   0.308   0.491 -0.8249 -0.2820  0.2377
   31MOL   H111 9771   5.434   0.444   0.447  0.6229 -0.3470 -1.4405
   31MOL   H112 9772   5.634   0.455   0.623 -0.1556  1.3972  0.2798
   31MOL   H113 9773   5.608   0.544   0.485 -1.4334 -0.4545  0.3407
   31MOL   C114 9774   5.817   0.557   0.567  0.4540  0.0981  0.3641
   31MOL   C115 9775   5.912   0.487   0.671  0.1719  0.4983  0.4732
   31MOL   C116 9776   6.051   0.503   0.657 -0.0936 -0.3879  0.0669
   31MOL  Cl117 9777   6.130   0.614   0.557  0.1388  0.2306  0.4125
   31MOL   C118 9778   6.141   0.427   0.738  0.1720 -0.0703 -0.1991
   31MOL   C119 9779   6.091   0.345   0.836 -0.3474  0.1065  0.5937
   31MOL   C120 9780   5.954   0.329   0.854 -0.2707 -0.5902 -0.9478
   31MOL   C121 9781   5.865   0.402   0.771 -0.1125  0.0714  0.3509
   31MOL   C122 9782   5.785   0.706   0.605 -0.1689 -0.6314  0.1556
   31MOL   H123 9783   5.873   0.558   0.474 -1.4558  0.0297 -0.8005
   31MOL   H124 9784   6.246   0.420   0.715  0.0737  0.9934 -1.0297
   31MOL   H125 9785   6.158   0.292   0.901  2.4858  2.0164 -0.6761
   31MOL   H126 9786   5.919   0.258   0.926 -0.5655 -0.6982 -1.1962
   31MOL   H127 9787   5.759   0.395   0.792 -0.7569 -1.4138 -3.1416
   31MOL   H128 9788   5.856   0.759   0.668 -0.8150  0.1916  0.2015
   31MOL   H129 9789   5.701   0.693   0.673 -0.3445 -0.3315 -0.0045
   31MOL   C130 9790   5.739   0.798   0.481 -0.5297  0.7413 -0.3478
   31MOL   C131 9791   5.858   0.856   0.408  0.3883 -0.1606  0.0346
   31MOL   C132 9792   5.877   0.836   0.269 -0.0581  0.2943  0.4634
   31MOL  Cl133 9793   5.786   0.716   0.178 -0.1814  0.4917 -0.2841
   31MOL   C134 9794   5.995   0.877   0.210  0.7820 -0.8207  0.5721
   31MOL   C135 9795   6.079   0.970   0.274  0.2403 -0.4079  0.4946
   31MOL   C136 9796   6.064   0.986   0.413 -0.8511 -1.7824 -0.4554
   31MOL   C137 9797   5.956   0.923   0.477  0.7935 -0.0079 -0.5739
   31MOL   C138 9798   5.635   0.907   0.526 -0.3713 -0.3330  0.5220
   31MOL   H139 9799   5.681   0.743   0.406  0.1754  0.9119 -1.0227
   31MOL   H140 9800   6.020   0.843   0.110  0.8937 -1.1652  0.7176
   31MOL   H141 9801   6.171   1.008   0.233 -0.1878 -0.6112 -0.6878
   31MOL   H142 9802   6.134   1.044   0.471 -1.4994 -0.6264 -0.8125
   31MOL   H143 9803   5.949   0.921   0.585  3.0279  0.7676 -0.3963
   31MOL   H144 9804   5.670   1.010   0.515 -2.7244  0.3439 -0.9759
   31MOL   H145 9805   5.617   0.901   0.633  0.0220 -0.0774  0.6056
   31MOL   C146 9806   5.493   0.895   0.455 -0.0022 -0.9032  0.4424
   31MOL   C147 9807   5.489   0.919   0.305 -0.3888  0.1728  0.3412
   31MOL   C148 9808   5.384   0.876   0.220 -0.4382 -0.1469 -0.1839
   31MOL  Cl149 9809   5.241   0.801   0.279 -0.0715 -0.0344  0.0590
   31MOL   C150 9810   5.384   0.895   0.085  0.1104 -0.1730  0.0259
   31MOL   C151 9811   5.493   0.957   0.024  0.4486 -0.0998  0.1865
   31MOL   C152 9812   5.605   1.001   0.103 -0.0211 -0.0295  0.1765
   31MOL   C153 9813   5.604   0.986   0.241 -0.2956  0.0305  0.0841
   31MOL   C154 9814   5.392   0.984   0.534  0.7703 -0.1889 -0.2400
   31MOL   H155 9815   5.470   0.789   0.464 -0.1303 -0.9548 -0.4472
   31MOL   H156 9816   5.320   0.843   0.016  1.2464 -1.0201 -0.4211
   31MOL   H157 9817   5.507   0.956   8.338 -0.3628  0.2527  0.0713
   31MOL   H158 9818   5.686   1.053   0.054 -0.6535  0.1026 -0.7562
   31MOL   H159 9819   5.688   1.033   0.290 -0.7910 -0.0871  1.0516
   31MOL   H160 9820   5.299   0.998   0.479 -0.5984  0.6598  2.2048
   31MOL   H161 9821   5.427   1.087   0.527  0.9962 -0.3015 -0.7771
   31MOL   C162 9822   5.349   0.934   0.673  0.4885 -0.1671  0.2812
   31MOL   C163 9823   5.268   0.808   0.667  0.0461  0.6767 -0.9147
   31MOL   C164 9824   5.311   0.686   0.733 -0.3218 -0.5243  0.0504
   31MOL  Cl165 9825   5.461   0.666   0.818 -0.0816 -0.2100 -0.2701
   31MOL   C166 9826   5.234   0.564   0.720 -0.0399 -0.0714  0.0449
   31MOL   C167 9827   5.113   0.564   0.637 -0.7011  0.3866 -0.1303
   31MOL   C168 9828   5.070   0.686   0.577  0.2352 -0.0514 -0.5176
   31MOL   C169 9829   5.144   0.799   0.598 -0.2340  0.2771  0.1346
   31MOL   C170 9830   5.290   1.053   0.753 -0.1815  0.0501  0.0964
   31MOL   H171 9831   5.439   0.906   0.728  1.7014  2.1906 -0.4270
   31MOL   H172 9832   5.279   0.473   0.755  2.3913 -0.0911 -2.9136
   31MOL   H173 9833   5.060   0.471   0.622 -0.0756 -0.3800  2.0504
   31MOL   H174 9834   4.983   0.681   0.514 -0.0865 -0.7944 -0.0265
   31MOL   H175 9835   5.097   0.891   0.568  0.5650  1.1379  1.4304
   31MOL   H176 9836   5.246   1.002   0.839  0.6889 -0.4080  0.2785
   31MOL   H177 9837   5.203   1.095   0.703 -0.9377 -0.7142  0.7476
   31MOL   C178 9838   5.391   1.167   0.808  0.6778 -0.9179  0.2818
   31MOL   C179 9839   5.526   1.105   0.845  0.2066  0.7697  0.5465
   31MOL   C180 9840   5.644   1.131   0.769  0.0582 -0.5551  0.1801
   31MOL  Cl181 9841   5.656   1.248   0.651 -0.0147 -0.0437 -0.2562
   31MOL   C182 9842   5.762   1.067   0.803 -0.2210  0.4204 -0.2360
   31MOL   C183 9843   5.772   0.973   0.903 -0.2401 -0.1128 -0.0925
   31MOL   C184 9844   5.653   0.937   0.971 -0.3627  0.6928 -0.2982
   31MOL   C185 9845   5.528   1.006   0.949  0.2985  0.1031  0.1268
   31MOL   C186 9846   5.330   1.247   0.928  0.0879 -0.2406  0.0627
   31MOL   H187 9847   5.404   1.241   0.730 -1.4620  1.3395  1.9916
   31MOL   H188 9848   5.847   1.087   0.740  0.9250 -0.9022  0.8707
   31MOL   H189 9849   5.867   0.932   0.933 -0.2642  1.2596  1.9392
   31MOL   H190 9850   5.660   0.863   1.050 -0.7330 -1.0742 -1.8933
   31MOL   H191 9851   5.430   0.989   0.992  0.2369  1.3535  0.4848
   31MOL   H192 9852   5.400   1.282   1.004 -1.6755  4.2181 -0.2515
   31MOL   H193 9853   5.266   1.182   0.987  0.7176 -0.6865  0.2686
   31MOL   C194 9854   5.246   1.377   0.913 -0.1775  0.5322  0.4048
   31MOL   C195 9855   5.324   1.487   0.840  0.0214  0.0701  0.1728
   31MOL   C196 9856   5.267   1.552   0.727 -0.0440  0.4593  0.1061
   31MOL  Cl197 9857   5.105   1.516   0.675  0.1181  0.1944 -0.4422
   31MOL   C198 9858   5.342   1.636   0.651  0.6778 -0.0905  0.1023
   31MOL   C199 9859   5.462   1.690   0.699 -0.2727 -0.0152  0.0223
   31MOL   C200 9860   5.515   1.635   0.817  0.5447  0.5135 -0.6569
   31MOL   C201 9861   5.450   1.530   0.883  0.3252  0.1320 -0.0761
   31MOL   C202 9862   5.189   1.426   1.047  0.2064 -0.0998 -0.4425
   31MOL   H203 9863   5.158   1.344   0.858 -0.0623 -0.4618  0.8058
   31MOL   H204 9864   5.303   1.670   0.556  3.5522  1.3095 -0.6194
   31MOL   H205 9865   5.511   1.769   0.644 -0.4923  0.5306  0.5953
   31MOL   H206 9866   5.618   1.658   0.841  0.7401 -0.6252 -0.3661
   31MOL   H207 9867   5.502   1.483   0.965 -2.7559 -0.6584  1.4729
   31MOL   H208 9868   5.186   1.535   1.042 -0.4303 -0.0779  0.3114
   31MOL   H209 9869   5.265   1.402   1.122  1.6380  1.7989 -1.2335
   31MOL   C210 9870   5.046   1.372   1.073 -0.2926  0.2338  0.1548
   31MOL   C211 9871   4.944   1.444   0.988 -1.0798  0.1641  0.8524
   31MOL   C212 9872   4.886   1.385   0.874 -0.9959 -0.4232  0.4747
   31MOL  Cl213 9873   4.927   1.225   0.825 -0.1095  0.0515  0.1883
   31MOL   C214 9874   4.799   1.461   0.793 -0.3373 -0.2470  0.1386
   31MOL   C215 9875   4.781   1.601   0.818  0.3556  0.4173 -0.4520
   31MOL   C216 9876   4.840   1.656   0.932 -0.3934 -0.2849  0.1765
   31MOL   C217 9877   4.921   1.576   1.017 -0.0846  0.2449 -0.5048
   31MOL   C218 9878   5.009   1.368   1.223 -0.0212  0.4572  0.4941
   31MOL   H219 9879   5.046   1.269   1.040 -2.3866  0.8121 -1.7946
   31MOL   H220 9880   4.761   1.423   0.699 -1.5953  2.4553 -0.4977
   31MOL   H221 9881   4.731   1.665   0.747  0.0086 -0.5334 -1.0777
   31MOL   H222 9882   4.848   1.763   0.947 -1.2022  0.1028 -1.9985
   31MOL   H223 9883   4.968   1.626   1.101  2.2760 -3.1526  0.3061
   31MOL   H224 9884   4.902   1.385   1.234  0.0385  1.1029  0.0788
   31MOL   H225 9885   5.060   1.443   1.284  0.0859  1.4377 -0.7717
   31MOL   C226 9886   5.034   1.224   1.280 -0.5684  0.2767  0.3878
   31MOL   C227 9887   4.932   1.119   1.223 -0.2739 -0.0768 -0.6581
   31MOL   C228 9888   4.976   1.011   1.141  0.1465 -0.8278 -0.6323
   31MOL  Cl229 9889   5.144   0.979   1.115  0.1103  0.1544 -0.1725
   31MOL   C230 9890   4.883   0.926   1.078  0.3012 -0.0028 -1.0375
   31MOL   C231 9891   4.745   0.940   1.106  0.1905  0.3079  0.1940
   31MOL   C232 9892   4.703   1.043   1.193 -0.3638 -0.3480  0.6683
   31MOL   C233 9893   4.795   1.126   1.256  0.1120 -0.1594  0.0125
   31MOL   C234 9894   5.027   1.215   1.436 -0.4110  0.2920 -0.0503
   31MOL   H235 9895   5.138   1.194   1.270 -0.6636 -0.4788  1.5576
   31MOL   H236 9896   4.911   0.842   1.015 -0.0330  0.1345 -1.3727
   31MOL   H237 9897   4.682   0.866   1.059  0.3550 -0.2113  0.7854
   31MOL   H238 9898   4.599   1.054   1.221 -1.2042 -0.4054 -2.2136
   31MOL   H239 9899   4.759   1.207   1.317 -1.3708 -1.1656  0.4907
   31MOL   H240 9900   4.926   1.242   1.467 -1.2693 -0.6142 -1.9695
   31MOL   H241 9901   5.087   1.300   1.467 -0.1180  1.1317 -2.8275
   31MOL   C242 9902   5.087   1.090   1.506  0.1966  0.3431  0.0071
   31MOL   C243 9903   4.976   0.988   1.534  0.0078 -0.5284  1.1508
   31MOL   C244 9904   4.975   0.866   1.466 -0.0683  0.2164  0.5751
   31MOL  Cl245 9905   5.107   0.808   1.376  0.6479  0.1876  0.0830
   31MOL   C246 9906   4.864   0.789   1.471 -0.1603 -0.4152  0.3536
   31MOL   C247 9907   4.750   0.819   1.554 -0.7842 -0.0260  0.2063
   31MOL   C248 9908   4.750   0.938   1.619 -0.5312 -0.2871 -0.5284
   31MOL   C249 9909   4.863   1.020   1.607 -0.8065 -0.1487 -0.7188
   31MOL   C250 9910   5.172   1.118   1.635 -0.0863 -0.6857 -0.3653
   31MOL   H251 9911   5.160   1.046   1.438 -0.5746  1.2572 -1.4535
   31MOL   H252 9912   4.871   0.704   1.404 -1.9859  0.4471 -0.9664
   31MOL   H253 9913   4.667   0.750   1.563 -0.5823 -0.1666  0.9930
   31MOL   H254 9914   4.671   0.963   1.688  0.9219 -2.1054  1.8838
   31MOL   H255 9915   4.863   1.108   1.670 -1.8625 -0.3182 -0.4824
   31MOL   H256 9916   5.181   1.025   1.690  0.2147 -1.2289 -1.3264
   31MOL   H257 9917   5.111   1.174   1.707  0.1269  1.1684 -1.5769
   31MOL   C258 9918   5.316   1.183   1.603  0.1457  0.2574  0.2104
   31MOL   C259 9919   5.394   1.096   1.497 -0.7900  0.3190 -0.7976
   31MOL   C260 9920   5.443   1.161   1.384 -0.4601 -0.1176  0.2106
   31MOL  Cl261 9921   5.404   1.324   1.334  0.0563 -0.7343 -0.2394
   31MOL   C262 9922   5.529   1.094   1.297 -0.6701 -0.0826 -0.3891
   31MOL   C263 9923   5.575   0.962   1.326 -0.2391  0.8478  0.1660
   31MOL   C264 9924   5.517   0.890   1.437 -0.2752  0.5108 -0.1688
   31MOL   C265 9925   5.429   0.958   1.521  1.1768 -0.0058  0.5868
   31MOL   C266 9926   5.401   1.195   1.733 -0.3430  0.2508  0.6831
   31MOL   H267 9927   5.295   1.286   1.573 -0.8889  1.0716  3.5531
   31MOL   H268 9928   5.563   1.142   1.206  0.8395 -1.2740 -0.4662
   31MOL   H269 9929   5.648   0.905   1.271 -0.6513  0.0202  0.4662
   31MOL   H270 9930   5.547   0.791   1.467  0.9881  1.7549  2.9709
   31MOL   H271 9931   5.400   0.901   1.608  0.1769 -1.2782 -0.5428
   31MOL   H272 9932   5.407   1.094   1.773  1.7453 -0.4261 -1.2262
   31MOL   H273 9933   5.341   1.248   1.807  0.6912  0.2028  1.5691
   31MOL   C274 9934   5.538   1.262   1.721  0.3748 -0.2048  0.3208
   31MOL   C275 9935   5.647   1.157   1.684  0.5476 -0.0159 -0.6137
   31MOL   C276 9936   5.728   1.179   1.572 -0.7140  0.6000  0.6671
   31MOL  Cl277 9937   5.721   1.329   1.489  0.2168 -0.0723 -0.1859
   31MOL   C278 9938   5.835   1.097   1.540 -0.8615 -0.3053 -0.1978
   31MOL   C279 9939   5.857   0.984   1.618  0.0084 -0.5399  1.0030
   31MOL   C280 9940   5.783   0.960   1.735 -0.3412  0.2176  0.0445
   31MOL   C281 9941   5.677   1.047   1.770  0.0126  0.1199 -0.2171
   31MOL   C282 9942   5.585   1.359   1.834  0.0271  0.0351 -0.4402
   31MOL   H283 9943   5.527   1.335   1.641  0.0286  0.6650  1.1672
   31MOL   H284 9944   5.908   1.104   1.461  2.0919 -0.6246  2.3944
   31MOL   H285 9945   5.943   0.926   1.588  0.3334 -0.0787  1.0404
   31MOL   H286 9946   5.805   0.875   1.798 -1.3349  0.6896  1.0514
   31MOL   H287 9947   5.632   1.035   1.867  1.9662  0.3311  0.7346
   31MOL   H288 9948   5.677   1.401   1.793  0.5681 -1.4865 -0.8271
   31MOL   H289 9949   5.615   1.297   1.918  3.3183  1.6245 -0.3773
   31MOL   C290 9950   5.494   1.484   1.856 -0.4690 -0.6578  0.1646
   31MOL   C291 9951   5.443   1.557   1.731  0.2736 -0.3436  0.1153
   31MOL   C292 9952   5.303   1.553   1.696 -0.4679 -0.2399 -0.1936
   31MOL  Cl293 9953   5.179   1.483   1.793 -0.0914  0.2905 -0.0611
   31MOL   C294 9954   5.261   1.628   1.585 -0.2970  0.6668 -0.2584
   31MOL   C295 9955   5.354   1.692   1.502 -0.2234  0.5326 -0.2247
   31MOL   C296 9956   5.491   1.698   1.537  0.0472  0.1859 -0.4913
   31MOL   C297 9957   5.540   1.628   1.647  0.4475 -0.9726  0.2967
   31MOL   C298 9958   5.551   1.569   1.976 -0.0409 -0.1901  0.1816
   31MOL   H299 9959   5.406   1.434   1.897 -0.1529 -1.0834  0.3234
   31MOL   H300 9960   5.160   1.618   1.546  0.0307  0.7719 -1.1388
   31MOL   H301 9961   5.316   1.732   1.410 -0.5927 -1.6569 -1.0691
   31MOL   H302 9962   5.567   1.732   1.468  3.1129 -0.5552  2.4510
   31MOL   H303 9963   5.643   1.620   1.679 -0.5692 -4.0000  3.0456
   31MOL   H304 9964   5.647   1.611   1.945 -0.5835  1.1273  0.2533
   31MOL   H305 9965   5.563   1.495   2.055 -0.1666  1.2667  1.5969
   31MOL   C306 9966   5.452   1.681   2.022 -0.2216  0.1052 -0.0308
   31MOL   C307 9967   5.466   1.808   1.940 -0.0395 -0.6276  0.5840
   31MOL   C308 9968   5.349   1.869   1.897 -0.4848 -0.1844  0.2080
   31MOL  Cl309 9969   5.194   1.810   1.934 -0.3227  0.3340 -0.0182
   31MOL   C310 9970   5.352   1.987   1.822  0.3127 -0.6562 -0.0771
   31MOL   C311 9971   5.479   2.049   1.789  0.2697  0.0876  0.8435
   31MOL   C312 9972   5.596   1.983   1.831  0.2110 -0.0105 -0.2800
   31MOL   C313 9973   5.592   1.863   1.909 -0.6467 -0.1638 -0.3110
   31MOL   C314 9974   5.461   1.712   2.181  0.4142  0.2327  0.1105
   31MOL   H315 9975   5.350   1.644   2.007  0.2314 -2.0357  1.8550
   31MOL   H316 9976   5.261   2.027   1.781  2.4027  2.5123 -1.8922
   31MOL   H317 9977   5.476   2.140   1.731  0.3795  0.6189  1.6627
   31MOL   H318 9978   5.693   2.023   1.805 -0.8761  2.1184 -1.1846
   31MOL   H319 9979   5.679   1.816   1.950  1.2035  0.6348 -3.1999
   31MOL   H320 9980   5.381   1.782   2.208  0.7443  0.8949 -0.6049
   31MOL   H321 9981   5.556   1.754   2.213  0.9928 -2.0823  1.4905
   31MOL   H322 9982   5.432   1.622   2.236 -0.2183  0.3640  0.0013
   32MOL     C1 9983   6.760   3.057   3.113  0.1908 -0.1753 -0.0055
   32MOL     C2 9984   6.709   2.943   3.029  0.1014  0.0368  1.2841
   32MOL     C3 9985   6.666   2.962   2.894 -0.3543 -0.0044  0.2360
   32MOL    Cl4 9986   6.660   3.120   2.824 -0.3759 -0.0124 -0.1839
   32MOL     C5 9987   6.628   2.846   2.818 -0.2292  0.3393  0.1867
   32MOL     C6 9988   6.642   2.713   2.869 -0.6634 -0.2633  0.6439
   32MOL     C7 9989   6.682   2.700   3.003  0.1506  0.5026  0.3039
   32MOL     C8 9990   6.718   2.813   3.076 -0.0470 -0.1452 -0.9661
   32MOL     C9 9991   6.902   3.106   3.074  0.5258 -0.1802  0.1970
   32MOL    H10 9992   6.683   3.135   3.113 -1.1019 -1.4264  0.1700
   32MOL    H11 9993   6.597   2.864   2.716  0.9112 -0.1454 -0.2578
   32MOL    H12 9994   6.627   2.621   2.815  1.3259 -0.7660  0.8858
   32MOL    H13 9995   6.723   2.605   3.034 -0.7410  0.1342  0.3458
   32MOL    H14 9996   6.741   2.787   3.178 -2.6418  0.9419 -0.0640
   32MOL    H15 9997   6.908   3.130   2.967  0.7604 -0.8325  0.0603
   32MOL    H16 9998   6.972   3.023   3.080 -0.3363 -1.0233 -1.2061
   32MOL    H17 9999   6.756   3.015   3.214 -1.0732  0.6776  0.3126
   32MOL    C1810000   6.960   3.220   3.164 -0.0003 -0.1569  0.1180
   32MOL    C1910001   6.861   3.322   3.196  0.7176 -0.1399  0.4815
   32MOL    C2010002   6.848   3.388   3.322 -0.3507 -0.5348  0.0108
   32MOL   Cl2110003   6.939   3.337   3.462  0.1687  0.1996 -0.2951
   32MOL    C2210004   6.755   3.494   3.331 -0.8511 -0.0977 -0.2802
   32MOL    C2310005   6.692   3.549   3.216 -0.8183  0.0881 -0.7060
   32MOL    C2410006   6.694   3.482   3.100 -0.1642  0.2390  1.1257
   32MOL    C2510007   6.781   3.370   3.093  0.1947  0.4756 -0.5774
   32MOL    C2610008   7.078   3.296   3.089 -0.0019  0.4088 -0.0409
   32MOL    H2710009   6.989   3.177   3.260 -2.7132  0.6543  1.3648
   32MOL    H2810010   6.748   3.541   3.427 -0.8650  0.9915 -0.8148
   32MOL    H2910011   6.620   3.630   3.223  0.7946  1.4442  0.6518
   32MOL    H3010012   6.649   3.523   3.011 -0.2307  1.2268  1.6049
   32MOL    H3110013   6.785   3.325   2.994  2.4038 -0.3776 -0.1146
   32MOL    H3210014   7.099   3.388   3.143 -0.3864 -0.4708  1.6235
   32MOL    H3310015   7.037   3.323   2.991 -0.1865  1.1326  0.2318
   32MOL    C3410016   7.201   3.216   3.066  1.0127  0.4906 -0.0380
   32MOL    C3510017   7.263   3.166   3.203  0.1640  0.5048  0.2598
   32MOL    C3610018   7.328   3.040   3.204 -0.5342 -0.1001 -0.3015
   32MOL   Cl3710019   7.334   2.948   3.065  0.2399 -0.0192  0.2410
   32MOL    C3810020   7.378   2.992   3.322  0.2401  0.5578  0.2291
   32MOL    C3910021   7.385   3.075   3.435  0.4403  0.1520  0.0342
   32MOL    C4010022   7.311   3.197   3.437  0.2890 -0.1414 -0.5550
   32MOL    C4110023   7.250   3.248   3.320 -0.2096 -0.1893  0.1546
   32MOL    C4210024   7.301   3.292   2.985 -0.3134  0.2129  0.1467
   32MOL    H4310025   7.174   3.139   2.993 -0.1921  3.2065 -2.5674
   32MOL    H4410026   7.418   2.893   3.330 -1.6225 -0.5917 -3.5407
   32MOL    H4510027   7.430   3.036   3.524  0.1996 -0.2794 -0.0319
   32MOL    H4610028   7.313   3.249   3.532  0.7815 -0.2608 -0.5002
   32MOL    H4710029   7.199   3.343   3.321 -1.1987 -0.7135  0.5796
   32MOL    H4810030   7.389   3.228   2.994 -0.2363 -0.1121 -2.3090
   32MOL    H4910031   7.319   3.388   3.032 -0.8212  0.0930  0.5873
   32MOL    C5010032   7.288   3.297   2.828  0.2706 -0.3138  0.5338
   32MOL    C5110033   7.333   3.161   2.774  0.8151 -0.4573  0.4610
   32MOL    C5210034   7.243   3.067   2.704 -0.6159 -0.7724 -0.7203
   32MOL   Cl5310035   7.075   3.090   2.707  0.1633  0.3230 -0.2392
   32MOL    C5410036   7.295   2.961   2.638 -0.8859 -0.4098  0.2511
   32MOL    C5510037   7.436   2.932   2.633 -0.1349 -0.0695 -0.0827
   32MOL    C5610038   7.520   3.018   2.708  0.4556  0.4466  0.0740
   32MOL    C5710039   7.472   3.132   2.773  0.0500 -0.3452 -0.6681
   32MOL    C5810040   7.367   3.419   2.769 -0.5516  0.0445  0.0600
   32MOL    H5910041   7.181   3.310   2.809  0.3585 -1.8765 -1.1779
   32MOL    H6010042   7.231   2.888   2.591 -1.9856 -0.4075  1.7131
   32MOL    H6110043   7.478   2.844   2.588  0.7751  0.6636 -0.6796
   32MOL    H6210044   7.623   2.985   2.715  1.1195  2.4483  0.0180
   32MOL    H6310045   7.540   3.186   2.837 -0.9730  0.2363 -0.0519
   32MOL    H6410046   7.365   3.404   2.661 -1.2574  1.5200 -0.1436
   32MOL    H6510047   7.470   3.421   2.805 -1.1454 -1.0560  1.8262
   32MOL    C6610048   7.299   3.559   2.793  0.5463 -0.2485  0.1858
   32MOL    C6710049   7.153   3.550   2.746  0.0478  0.3182  0.6730
   32MOL    C6810050   7.050   3.583   2.834 -0.7221 -0.0843 -0.2689
   32MOL   Cl6910051   7.071   3.649   2.990  0.1970  0.2574 -0.1591
   32MOL    C7010052   6.919   3.579   2.792  0.1303 -0.4353  0.1882
   32MOL    C7110053   6.885   3.545   2.660 -0.0411 -0.2021 -0.6780
   32MOL    C7210054   6.985   3.497   2.577  0.1535 -0.2878  0.5797
   32MOL    C7310055   7.120   3.499   2.617  0.6407  0.3432  0.0904
   32MOL    C7410056   7.369   3.667   2.710  0.8833  0.5169 -0.4377
   32MOL    H7510057   7.300   3.583   2.899  1.0528 -1.4019  0.4490
   32MOL    H7610058   6.848   3.617   2.864 -1.9606 -1.4717 -1.2311
   32MOL    H7710059   6.781   3.541   2.629 -0.1777 -0.4533 -0.1896
   32MOL    H7810060   6.969   3.462   2.476  0.9059  0.6992  0.1145
   32MOL    H7910061   7.191   3.469   2.541 -0.2797 -1.9204  0.0608
   32MOL    H8010062   7.368   3.639   2.605 -1.3063  2.7877 -1.0592
   32MOL    H8110063   7.471   3.670   2.747  1.2817 -1.9728 -1.2424
   32MOL    C8210064   7.302   3.810   2.698 -0.3291  0.2825  0.5638
   32MOL    C8310065   7.356   3.888   2.575 -0.5326  0.0635 -0.1155
   32MOL    C8410066   7.278   3.914   2.460 -0.1885  0.6812 -0.6173
   32MOL   Cl8510067   7.112   3.867   2.443  0.2368  0.2971  0.1276
   32MOL    C8610068   7.327   4.000   2.357 -0.2596  0.1002 -0.1603
   32MOL    C8710069   7.465   4.034   2.358 -0.2332 -0.0985  0.4173
   32MOL    C8810070   7.547   4.002   2.468 -0.1380 -0.5311 -0.1599
   32MOL    C8910071   7.493   3.927   2.575  0.1172 -0.0526 -0.7968
   32MOL    C9010072   7.306   3.891   2.827  0.7768  0.4224  0.6415
   32MOL    H9110073   7.196   3.788   2.685 -0.1319 -0.1419 -0.3682
   32MOL    H9210074   7.261   4.023   2.274 -0.0012 -2.6222 -1.1689
   32MOL    H9310075   7.512   4.080   2.272 -0.6162 -1.0284 -0.3023
   32MOL    H9410076   7.649   4.036   2.472 -0.2879  0.0607 -1.1530
   32MOL    H9510077   7.562   3.904   2.655 -1.2884  1.0113  0.7851
   32MOL    H9610078   7.408   3.892   2.865  1.1827 -1.5685 -0.3674
   32MOL    H9710079   7.262   3.827   2.903  0.9576  0.4079  0.7330
   32MOL    C9810080   7.231   4.028   2.828 -0.6700  0.4749 -0.0797
   32MOL    C9910081   7.231   4.080   2.970  0.9901 -0.0955 -0.1410
   32MOL   C10010082   7.309   4.193   3.014 -0.3986  0.2225  0.3645
   32MOL  Cl10110083   7.408   4.293   2.912  0.0677  0.2423  0.1247
   32MOL   C10210084   7.310   4.232   3.146 -0.0270 -0.4035 -0.2435
   32MOL   C10310085   7.242   4.159   3.241 -0.8010  0.2326 -0.3669
   32MOL   C10410086   7.165   4.045   3.206  0.6439  0.2409  0.3118
   32MOL   C10510087   7.164   4.002   3.071 -0.1079 -0.2378 -0.3237
   32MOL   C10610088   7.090   4.021   2.762  0.3599 -0.1731 -0.5763
   32MOL   H10710089   7.285   4.106   2.775 -0.2214  1.8865  2.3915
   32MOL   H10810090   7.368   4.317   3.178 -1.6100  1.0557 -1.1637
   32MOL   H10910091   7.255   4.189   3.344 -0.8256  1.6375 -0.7630
   32MOL   H11010092   7.121   3.986   3.286  3.1119  0.2505  1.7642
   32MOL   H11110093   7.115   3.911   3.042 -1.6901 -0.6888  3.5980
   32MOL   H11210094   7.035   3.932   2.793  0.7149  0.2839  1.3954
   32MOL   H11310095   7.098   4.005   2.654  1.6044 -0.5066 -0.4470
   32MOL   C11410096   7.000   4.148   2.778 -0.7988  0.1249  1.2144
   32MOL   C11510097   6.921   4.144   2.911  0.1436  0.0619 -0.3202
   32MOL   C11610098   6.928   4.250   3.003 -0.2395  0.0313  0.2333
   32MOL  Cl11710099   7.037   4.380   2.975  0.3306  0.2495  0.1413
   32MOL   C11810100   6.846   4.256   3.116  0.1640  0.0546 -0.4877
   32MOL   C11910101   6.750   4.154   3.137 -0.9150 -0.8313  0.0757
   32MOL   C12010102   6.748   4.041   3.056  0.3329 -0.0276  1.0953
   32MOL   C12110103   6.824   4.037   2.936  0.2519 -0.8480  0.9542
   32MOL   C12210104   6.916   4.162   2.652  0.9406  0.1340  0.4281
   32MOL   H12310105   7.062   4.237   2.766  0.4949 -0.8643  0.4297
   32MOL   H12410106   6.853   4.337   3.187 -0.4776 -0.9931  0.7705
   32MOL   H12510107   6.692   4.153   3.229 -3.0920 -1.9178 -1.2626
   32MOL   H12610108   6.675   3.965   3.082  0.5594  0.8256  4.5143
   32MOL   H12710109   6.811   3.956   2.866 -1.4876 -0.4525  0.8219
   32MOL   H12810110   6.857   4.071   2.640  0.2514  0.2606  2.6075
   32MOL   H12910111   6.978   4.174   2.564 -0.5725  0.8665 -0.5663
   32MOL   C13010112   6.805   4.274   2.670 -0.3108  0.2109 -0.3875
   32MOL   C13110113   6.706   4.280   2.547  0.8040 -0.1547 -0.9435
   32MOL   C13210114   6.578   4.350   2.566  0.5846  0.4611  0.5218
   32MOL  Cl13310115   6.516   4.402   2.723 -0.3364  0.1961  0.2397
   32MOL   C13410116   6.492   4.385   2.461  0.8192  0.5735  0.2309
   32MOL   C13510117   6.534   4.345   2.331  0.7348 -0.1095 -0.1439
   32MOL   C13610118   6.645   4.260   2.311  0.6539 -0.6503  0.7819
   32MOL   C13710119   6.735   4.240   2.415 -0.2535 -0.0826 -1.0747
   32MOL   C13810120   6.863   4.422   2.675  0.1844 -0.5683  0.2687
   32MOL   H13910121   6.733   4.258   2.750  0.0622 -1.1436 -0.3207
   32MOL   H14010122   6.397   4.434   2.474  0.1596 -1.1887  2.5050
   32MOL   H14110123   6.477   4.368   2.242  0.8347 -1.5160 -0.5797
   32MOL   H14210124   6.670   4.222   2.212  0.8011  1.1651  0.1103
   32MOL   H14310125   6.835   4.201   2.401 -0.4377 -0.6473 -0.8128
   32MOL   H14410126   6.929   4.441   2.759  0.9873  1.8318 -0.8606
   32MOL   H14510127   6.774   4.482   2.692 -1.1798 -2.2606 -0.7355
   32MOL   C14610128   6.927   4.476   2.540  0.9516  0.0928  0.2645
   32MOL   C14710129   7.065   4.421   2.506  0.0552  0.2649 -0.7476
   32MOL   C14810130   7.100   4.382   2.374  0.5322 -0.6556 -0.9635
   32MOL  Cl14910131   6.988   4.377   2.244  0.1101  0.0533  0.0835
   32MOL   C15010132   7.229   4.331   2.344 -0.2266  0.0354  0.8179
   32MOL   C15110133   7.330   4.337   2.436 -0.4823 -0.8397 -0.4913
   32MOL   C15210134   7.300   4.373   2.572  0.7173  0.2656 -0.0124
   32MOL   C15310135   7.170   4.418   2.606  0.8533  0.1072  0.1689
   32MOL   C15410136   6.942   4.629   2.554  0.3739 -0.3907 -0.0633
   32MOL   H15510137   6.862   4.463   2.453  4.1119 -1.2743 -1.9514
   32MOL   H15610138   7.249   4.286   2.247  0.3493 -1.2337  1.5226
   32MOL   H15710139   7.424   4.294   2.405 -0.0736 -1.4008  1.4772
   32MOL   H15810140   7.384   4.383   2.640 -0.7225 -2.3887  2.2474
   32MOL   H15910141   7.144   4.442   2.708 -0.4924 -2.8237  0.5485
   32MOL   H16010142   7.017   4.673   2.488  0.8454 -0.2644  0.5463
   32MOL   H16110143   6.973   4.642   2.658  1.2428 -0.5385 -0.3011
   32MOL   C16210144   6.809   4.704   2.522 -0.9780 -0.7784  0.3973
   32MOL   C16310145   6.767   4.691   2.370  0.0860  0.0519 -0.2253
   32MOL   C16410146   6.628   4.696   2.343  0.0914  0.5893 -1.0434
   32MOL  Cl16510147   6.518   4.723   2.467 -0.0203 -0.0676  0.0394
   32MOL   C16610148   6.582   4.691   2.210  0.5675 -0.4765  0.2696
   32MOL   C16710149   6.672   4.674   2.109  1.0554  0.0858 -0.3428
   32MOL   C16810150   6.813   4.669   2.129 -0.2394  0.0001 -0.1482
   32MOL   C16910151   6.859   4.674   2.264  0.7724 -1.0353 -0.1095
   32MOL   C17010152   6.805   4.851   2.573 -0.2489 -0.5959  0.0790
   32MOL   H17110153   6.725   4.658   2.576 -1.9561  0.7388  0.1944
   32MOL   H17210154   6.474   4.697   2.198  0.6597  1.8609  0.4039
   32MOL   H17310155   6.623   4.674   2.013 -1.1920  2.0503  0.7622
   32MOL   H17410156   6.875   4.656   2.041 -1.6611 -0.1791 -1.1490
   32MOL   H17510157   6.963   4.660   2.289  1.2873  0.8209 -1.0538
   32MOL   H17610158   6.713   4.895   2.534  1.1789  0.3375 -2.4319
   32MOL   H17710159   6.885   4.907   2.524  2.2893 -2.1595  2.3217
   32MOL   C17810160   6.834   4.887   2.723 -0.2040  0.7805 -0.0623
   32MOL   C17910161   6.776   4.786   2.825  0.5452 -0.1493 -0.3934
   32MOL   C18010162   6.859   4.719   2.918  0.3892 -0.1767  0.6213
   32MOL  Cl18110163   7.024   4.741   2.921 -0.3390 -0.2899 -0.2170
   32MOL   C18210164   6.800   4.624   3.003  0.1872  0.8283 -0.4375
   32MOL   C18310165   6.664   4.588   2.996  0.4400 -0.1442 -0.9445
   32MOL   C18410166   6.582   4.661   2.909 -0.4297  0.2773  0.1617
   32MOL   C18510167   6.637   4.754   2.820  0.0087  0.4434 -0.3228
   32MOL   C18610168   6.773   5.028   2.762 -0.0973 -0.0919  0.7259
   32MOL   H18710169   6.942   4.897   2.725 -0.2824  2.0508 -1.3024
   32MOL   H18810170   6.863   4.585   3.081 -0.8173  0.7267  0.3366
   32MOL   H18910171   6.621   4.514   3.062 -0.8024  2.0666  0.7699
   32MOL   H19010172   6.475   4.648   2.907 -0.7281  2.5331  0.5300
   32MOL   H19110173   6.567   4.804   2.754 -2.1538 -1.0107  0.8026
   32MOL   H19210174   6.714   5.018   2.853 -0.9925 -0.3251  0.1277
   32MOL   H19310175   6.692   5.045   2.692  0.1696 -0.2050  0.3846
   32MOL   C19410176   6.866   5.152   2.767 -0.1219  0.2921 -1.5017
   32MOL   C19510177   6.969   5.137   2.885 -0.0617 -0.6372 -0.2646
   32MOL   C19610178   7.104   5.095   2.864  0.2532  0.1749  0.0698
   32MOL  Cl19710179   7.158   5.040   2.708  0.0623 -0.3577 -0.2074
   32MOL   C19810180   7.200   5.098   2.971  0.3050  0.0028  0.7002
   32MOL   C19910181   7.160   5.130   3.107  0.4144 -0.1217  0.3404
   32MOL   C20010182   7.022   5.164   3.128  0.0701  0.4345 -0.2509
   32MOL   C20110183   6.931   5.164   3.022  0.4873 -0.0115  0.2447
   32MOL   C20210184   6.775   5.277   2.785 -0.3233 -1.0595 -0.2476
   32MOL   H20310185   6.911   5.144   2.668 -0.8756  1.5906 -1.9562
   32MOL   H20410186   7.298   5.058   2.948  0.8996  3.2956 -2.8943
   32MOL   H20510187   7.225   5.109   3.191  1.1255  1.0031  0.0819
   32MOL   H20610188   6.984   5.193   3.224 -1.6072 -1.3555 -0.3346
   32MOL   H20710189   6.829   5.195   3.037  1.1495  1.4827  1.9538
   32MOL   H20810190   6.827   5.350   2.846 -0.6691  0.2908 -1.5442
   32MOL   H20910191   6.683   5.259   2.840 -0.2527  0.9697  0.5513
   32MOL   C21010192   6.730   5.334   2.655  0.1211 -0.0010  0.7856
   32MOL   C21110193   6.853   5.384   2.572 -0.1864  1.0112 -0.1548
   32MOL   C21210194   6.897   5.319   2.453  0.1951  0.0663  0.1153
   32MOL  Cl21310195   6.813   5.183   2.386  0.1636 -0.0125 -0.3010
   32MOL   C21410196   7.012   5.366   2.395  0.1088 -0.4279  0.2476
   32MOL   C21510197   7.085   5.476   2.441  0.6205 -0.6134  0.4038
   32MOL   C21610198   7.045   5.533   2.562 -0.3237 -0.3198  0.5983
   32MOL   C21710199   6.927   5.493   2.626 -0.0896  0.5113  0.6585
   32MOL   C21810200   6.620   5.439   2.679  0.4018 -0.2637  0.4538
   32MOL   H21910201   6.685   5.249   2.603  0.3811  0.1352  0.3292
   32MOL   H22010202   7.043   5.307   2.311 -1.3866 -0.4483 -0.2924
   32MOL   H22110203   7.173   5.510   2.388  0.4595  0.3154  0.7351
   32MOL   H22210204   7.100   5.612   2.609 -2.0052  0.6396  1.0174
   32MOL   H22310205   6.894   5.533   2.720  0.7838  1.0886  0.7193
   32MOL   H22410206   6.624   5.521   2.607 -1.4936 -1.3001 -0.8574
   32MOL   H22510207   6.650   5.494   2.769 -2.2881  1.5232  0.3193
   32MOL   C22610208   6.478   5.393   2.674  0.0292  0.2483 -0.4862
   32MOL   C22710209   6.439   5.359   2.531  0.3527  0.4371 -0.5182
   32MOL   C22810210   6.429   5.224   2.489 -0.2899  0.1707 -0.0915
   32MOL  Cl22910211   6.422   5.093   2.597 -0.1025  0.1365  0.1152
   32MOL   C23010212   6.416   5.193   2.352 -0.7347  0.4229 -0.2681
   32MOL   C23110213   6.384   5.294   2.259 -0.4009 -0.1966 -0.0759
   32MOL   C23210214   6.385   5.427   2.300  0.0085  0.8234 -0.2555
   32MOL   C23310215   6.416   5.463   2.437 -0.2476 -0.6816 -0.3251
   32MOL   C23410216   6.379   5.495   2.742 -0.3729 -0.2309  0.2915
   32MOL   H23510217   6.479   5.298   2.728  2.1908 -0.2142 -1.3063
   32MOL   H23610218   6.401   5.090   2.323 -1.1868 -0.2414  2.2313
   32MOL   H23710219   6.382   5.270   2.154 -1.9030  0.8607 -0.3036
   32MOL   H23810220   6.369   5.506   2.229  1.2124  1.1891 -0.1306
   32MOL   H23910221   6.423   5.568   2.462 -1.4235 -0.5875 -0.3410
   32MOL   H24010222   6.284   5.477   2.689  0.5599  0.0703 -1.5395
   32MOL   H24110223   6.414   5.596   2.724  1.1489 -0.7637  0.2322
   32MOL   C24210224   6.355   5.467   2.880 -0.0432  0.4015 -0.3304
   32MOL   C24310225   6.305   5.324   2.907  0.7549 -0.1883 -0.1870
   32MOL   C24410226   6.374   5.236   2.996 -0.2698  0.6173 -0.2600
   32MOL  Cl24510227   6.527   5.279   3.078  0.0314 -0.1721  0.0213
   32MOL   C24610228   6.327   5.097   2.997  0.0554  0.0316 -0.5381
   32MOL   C24710229   6.207   5.058   2.933  0.3472  0.1465 -0.5961
   32MOL   C24810230   6.139   5.150   2.849  0.3810  0.1470  0.3342
   32MOL   C24910231   6.184   5.284   2.845 -0.3219 -0.4577  0.4775
   32MOL   C25010232   6.269   5.577   2.947 -0.6577  0.5857 -0.1645
   32MOL   H25110233   6.452   5.474   2.929  1.4182 -2.2305 -2.6603
   32MOL   H25210234   6.381   5.029   3.062 -1.3192 -0.6166 -0.0621
   32MOL   H25310235   6.179   4.954   2.941  1.5029 -0.2649 -1.7883
   32MOL   H25410236   6.048   5.123   2.798 -0.8756  1.2865  1.8900
   32MOL   H25510237   6.128   5.348   2.779  4.3962  1.0198 -2.2604
   32MOL   H25610238   6.257   5.558   3.054  1.6230  0.9534  0.1823
   32MOL   H25710239   6.166   5.563   2.914 -1.1357  1.8623  0.7360
   32MOL   C25810240   6.321   5.725   2.936 -0.6063 -0.3610 -0.0177
   32MOL   C25910241   6.470   5.749   2.986 -0.6247 -0.0558  0.1251
   32MOL   C26010242   6.557   5.827   2.910 -0.1442  0.3491  0.1854
   32MOL  Cl26110243   6.501   5.906   2.769 -0.1134 -0.0411  0.0023
   32MOL   C26210244   6.692   5.851   2.946  0.0742  0.2838 -1.0838
   32MOL   C26310245   6.733   5.793   3.071  0.2210 -0.4027 -0.3711
   32MOL   C26410246   6.652   5.719   3.153 -0.2605 -0.1618  0.9667
   32MOL   C26510247   6.524   5.685   3.103  0.2439  0.9048 -0.3730
   32MOL   C26610248   6.216   5.817   3.009 -0.1184 -0.1874 -0.3693
   32MOL   H26710249   6.307   5.730   2.828  0.1780 -0.1160 -0.1129
   32MOL   H26810250   6.767   5.901   2.886  0.9602 -1.5713 -1.5723
   32MOL   H26910251   6.827   5.830   3.109 -0.1570 -0.1968  0.3559
   32MOL   H27010252   6.687   5.692   3.251  0.5236 -1.8598  0.2338
   32MOL   H27110253   6.455   5.621   3.156  1.0874  2.0770  2.1963
   32MOL   H27210254   6.251   5.919   3.028 -0.3651 -0.2532  0.4567
   32MOL   H27310255   6.193   5.774   3.107  2.1632 -0.4239  0.0952
   32MOL   C27410256   6.086   5.834   2.924  0.1583  1.0117 -0.9894
   32MOL   C27510257   6.125   5.908   2.796  0.3536  0.0338  0.0222
   32MOL   C27610258   6.113   5.847   2.675  0.4329 -0.2993  0.0376
   32MOL  Cl27710259   6.069   5.681   2.659 -0.6187 -0.1646 -0.1429
   32MOL   C27810260   6.144   5.912   2.555 -0.2432 -0.3462 -0.3315
   32MOL   C27910261   6.178   6.048   2.558  0.4137 -0.6023 -0.9558
   32MOL   C28010262   6.202   6.109   2.682 -0.0801  0.4841 -0.3667
   32MOL   C28110263   6.175   6.038   2.801 -0.2533  0.1023  0.2942
   32MOL   C28210264   5.967   5.896   3.002 -0.0014 -0.1611 -0.5688
   32MOL   H28310265   6.043   5.738   2.895 -0.5161  0.8642  0.4490
   32MOL   H28410266   6.128   5.857   2.464 -1.5707 -1.2865  0.4402
   32MOL   H28510267   6.188   6.107   2.468  0.2914 -1.1310 -1.3109
   32MOL   H28610268   6.231   6.213   2.677 -3.1823  1.4749  0.7212
   32MOL   H28710269   6.183   6.087   2.897  0.2874 -0.8825  0.7542
   32MOL   H28810270   5.996   6.000   3.017 -0.1337 -0.4295  1.5988
   32MOL   H28910271   5.961   5.851   3.101  0.0297  1.6085  0.2658
   32MOL   C29010272   5.837   5.900   2.920 -0.2050  0.0608  0.3600
   32MOL   C29110273   5.742   6.010   2.968 -0.2352 -0.4151 -0.0308
   32MOL   C29210274   5.728   6.136   2.900  0.3495  1.1813  0.2322
   32MOL  Cl29310275   5.831   6.167   2.771 -0.3767  0.3580 -0.0964
   32MOL   C29410276   5.624   6.230   2.941 -0.0367  0.1352  0.2428
   32MOL   C29510277   5.557   6.202   3.057 -0.3264  0.6925 -0.9349
   32MOL   C29610278   5.581   6.085   3.132 -0.2287  0.0266  0.1948
   32MOL   C29710279   5.666   5.987   3.087 -0.1148  0.1892 -0.3244
   32MOL   C29810280   5.761   5.762   2.901 -0.0168 -0.3716 -0.0489
   32MOL   H29910281   5.862   5.930   2.818  0.9078  0.9868  0.8824
   32MOL   H30010282   5.607   6.319   2.883 -0.0988 -0.0356 -0.0051
   32MOL   H30110283   5.478   6.266   3.092  0.0100  0.2703  0.6241
   32MOL   H30210284   5.516   6.064   3.216 -2.6441  1.0836 -1.3355
   32MOL   H30310285   5.677   5.894   3.140  0.3096  0.4994  0.1315
   32MOL   H30410286   5.726   5.722   2.996 -0.7324  0.9147  0.2512
   32MOL   H30510287   5.839   5.695   2.867 -0.2483 -1.9154  2.3588
   32MOL   C30610288   5.644   5.767   2.789 -0.3954 -0.2826  0.4256
   32MOL   C30710289   5.533   5.671   2.813  0.1158 -0.0743  0.2542
   32MOL   C30810290   5.556   5.528   2.818 -0.2778 -0.3262 -0.0372
   32MOL  Cl30910291   5.706   5.455   2.788 -0.1354  0.0363  0.4180
   32MOL   C31010292   5.451   5.442   2.860  0.4230  0.8205 -0.0223
   32MOL   C31110293   5.320   5.494   2.878 -0.7634  0.3404 -0.5182
   32MOL   C31210294   5.293   5.629   2.870 -0.0368  0.3890 -0.2377
   32MOL   C31310295   5.402   5.715   2.837  0.3554  0.3816  0.6428
   32MOL   C31410296   5.697   5.773   2.640  0.0862  0.0633 -0.8551
   32MOL   H31510297   5.599   5.864   2.808 -1.2154 -0.4791 -0.4256
   32MOL   H31610298   5.473   5.337   2.870  1.2309  0.6946 -2.9288
   32MOL   H31710299   5.241   5.424   2.899  1.8736 -1.9270  2.2683
   32MOL   H31810300   5.194   5.672   2.881  0.0699  0.2339  1.4990
   32MOL   H31910301   5.386   5.821   2.820  0.6944  0.3512  0.1268
   32MOL   H32010302   5.722   5.673   2.607 -0.8930  0.6008 -3.3057
   32MOL   H32110303   5.789   5.831   2.631 -1.0583  1.7844 -1.7315
   32MOL   H32210304   5.612   5.808   2.582 -0.5839  2.5340  1.5062
   33MOL     C110305   3.000   1.295   7.382 -0.4411  0.8110  0.8293
   33MOL     C210306   3.014   1.170   7.465  0.6153 -0.3137 -0.6932
   33MOL     C310307   3.144   1.115   7.485 -0.6803  0.7639 -0.1362
   33MOL    Cl410308   3.288   1.200   7.431 -0.1161 -0.0276  0.0405
   33MOL     C510309   3.164   1.001   7.562 -0.6346 -0.7183  0.0383
   33MOL     C610310   3.052   0.943   7.630 -0.6202  0.0887 -0.1322
   33MOL     C710311   2.921   0.981   7.603  0.2672 -0.3672 -1.4189
   33MOL     C810312   2.902   1.093   7.519  0.2942 -0.6230  0.4104
   33MOL     C910313   3.011   1.430   7.458 -0.7398  0.1058  0.7919
   33MOL    H1010314   3.065   1.296   7.295 -0.6344  4.2738  0.6811
   33MOL    H1110315   3.263   0.973   7.592 -0.0960  1.1655  0.0644
   33MOL    H1210316   3.078   0.863   7.699 -0.7273 -2.9987 -3.5426
   33MOL    H1310317   2.837   0.929   7.645  1.6078 -1.2927  0.1753
   33MOL    H1410318   2.802   1.121   7.490  1.1120  0.1472 -1.7668
   33MOL    H1510319   3.108   1.435   7.508  1.4890 -0.9100 -3.2093
   33MOL    H1610320   2.939   1.420   7.539  1.0268 -0.3155  2.3382
   33MOL    H1710321   2.898   1.285   7.345 -0.2656 -1.7337  0.9420
   33MOL    C1810322   3.004   1.555   7.370 -0.3785  0.1418  0.2006
   33MOL    C1910323   3.100   1.555   7.252 -0.4635  0.5417  0.5475
   33MOL    C2010324   3.056   1.589   7.118  0.5332  0.0664 -0.5013
   33MOL   Cl2110325   2.885   1.615   7.079  0.2926 -0.4680 -0.2431
   33MOL    C2210326   3.156   1.596   7.019  0.5252 -0.0079 -0.1738
   33MOL    C2310327   3.288   1.562   7.046  0.4101  0.0291 -0.3017
   33MOL    C2410328   3.325   1.512   7.172 -0.3058  0.3750  0.6128
   33MOL    C2510329   3.236   1.522   7.280  0.6510  0.7612 -0.5197
   33MOL    C2610330   3.019   1.689   7.450 -0.6757 -0.3705 -0.6789
   33MOL    H2710331   2.901   1.559   7.336 -0.0018  1.9485 -0.8100
   33MOL    H2810332   3.131   1.615   6.915  1.0864  0.6024 -0.2001
   33MOL    H2910333   3.360   1.557   6.966 -0.4724  0.7317 -1.1416
   33MOL    H3010334   3.424   1.479   7.198 -1.0998 -1.3108  1.5196
   33MOL    H3110335   3.277   1.510   7.379  0.7707 -0.7998 -0.7473
   33MOL    H3210336   2.973   1.771   7.394  0.1313  1.5404  1.3901
   33MOL    H3310337   3.127   1.697   7.464 -0.9413 -1.2280  2.1397
   33MOL    C3410338   2.962   1.689   7.594 -0.4720 -0.1377  0.3933
   33MOL    C3510339   2.813   1.652   7.612 -0.4915 -0.5673 -0.8084
   33MOL    C3610340   2.771   1.558   7.711  0.7265  0.1953 -0.1638
   33MOL   Cl3710341   2.874   1.516   7.849 -0.0591  0.3966  0.3053
   33MOL    C3810342   2.640   1.506   7.707  1.3472  0.5660 -0.4806
   33MOL    C3910343   2.542   1.552   7.610  0.4065 -0.4249 -0.8900
   33MOL    C4010344   2.584   1.662   7.535 -0.3053  0.2427  0.0491
   33MOL    C4110345   2.717   1.705   7.526  0.4252 -0.3470  0.6316
   33MOL    C4210346   2.983   1.825   7.654 -0.1893  0.2249 -0.0530
   33MOL    H4310347   3.020   1.613   7.646 -0.3253 -0.9758 -0.9742
   33MOL    H4410348   2.613   1.426   7.774  1.5173  0.7593 -0.1824
   33MOL    H4510349   2.440   1.518   7.610  0.8940 -1.9608  0.0766
   33MOL    H4610350   2.520   1.724   7.473  0.1957 -0.8196 -1.5724
   33MOL    H4710351   2.741   1.778   7.451 -0.5196  0.7092  1.3507
   33MOL    H4810352   2.931   1.835   7.750 -1.0333 -1.2317 -0.3382
   33MOL    H4910353   2.944   1.903   7.589 -1.1099 -0.1577  0.0239
   33MOL    C5010354   3.129   1.862   7.692  0.2287  0.2944  0.0568
   33MOL    C5110355   3.207   1.761   7.779  0.2953  0.4507  0.1463
   33MOL    C5210356   3.319   1.685   7.729  0.6045  0.1565 -0.3286
   33MOL   Cl5310357   3.378   1.698   7.572  0.5216 -0.0264 -0.1843
   33MOL    C5410358   3.366   1.581   7.814 -0.0787  0.4931  0.2306
   33MOL    C5510359   3.312   1.557   7.946  0.2318 -0.2112  0.0049
   33MOL    C5610360   3.207   1.633   7.991 -0.0106  0.1590  0.2478
   33MOL    C5710361   3.157   1.737   7.913 -0.1512  1.1255 -0.1029
   33MOL    C5810362   3.136   1.995   7.763 -0.4297 -0.4667 -0.2860
   33MOL    H5910363   3.178   1.882   7.597  1.8725 -0.2458  0.7784
   33MOL    H6010364   3.442   1.512   7.783 -3.8732 -3.2189 -1.2514
   33MOL    H6110365   3.330   1.462   7.993  3.0043 -0.3846 -1.2876
   33MOL    H6210366   3.154   1.599   8.079 -0.0539  0.9492  0.5351
   33MOL    H6310367   3.066   1.789   7.939 -0.7952 -0.3209  0.5722
   33MOL    H6410368   3.241   2.018   7.785  0.0298 -0.1204 -2.7403
   33MOL    H6510369   3.084   1.983   7.858  1.8153 -0.5189  0.9841
   33MOL    C6610370   3.084   2.124   7.687  0.2084  0.0020  0.0582
   33MOL    C6710371   3.165   2.158   7.563 -0.5663 -0.3014  1.1731
   33MOL    C6810372   3.102   2.174   7.437 -0.1161 -0.8631  0.5933
   33MOL   Cl6910373   2.930   2.146   7.421  0.2974 -0.2759 -0.3311
   33MOL    C7010374   3.174   2.214   7.324  0.0017 -0.2678  0.2971
   33MOL    C7110375   3.312   2.237   7.341 -0.2510 -0.0109 -0.5201
   33MOL    C7210376   3.378   2.225   7.464  0.1421  0.0949 -0.7317
   33MOL    C7310377   3.306   2.182   7.576 -0.9554  0.3934  0.1429
   33MOL    C7410378   3.070   2.243   7.790 -0.9185  0.3709 -0.6060
   33MOL    H7510379   2.980   2.107   7.660 -0.3874 -1.2828  2.9698
   33MOL    H7610380   3.132   2.226   7.225  0.7401  2.2125  0.2422
   33MOL    H7710381   3.374   2.256   7.254 -0.6972 -1.0739 -1.0820
   33MOL    H7810382   3.481   2.254   7.472  0.5212 -1.2245 -0.7138
   33MOL    H7910383   3.354   2.175   7.673  0.0993  2.2738 -0.2205
   33MOL    H8010384   3.043   2.331   7.731 -0.8337  1.9911  1.7150
   33MOL    H8110385   3.165   2.271   7.834 -0.1720 -0.3037 -1.7575
   33MOL    C8210386   2.951   2.227   7.900  0.2087  0.0628 -0.9258
   33MOL    C8310387   2.821   2.172   7.844  0.3297  0.3216  0.3978
   33MOL    C8410388   2.767   2.046   7.883 -0.5292 -0.0595 -0.7381
   33MOL   Cl8510389   2.843   1.940   8.004 -0.0880 -0.1735 -0.2495
   33MOL    C8610390   2.655   1.997   7.812 -0.6287  0.5628 -0.6563
   33MOL    C8710391   2.605   2.064   7.701 -0.1547  0.3356  0.6016
   33MOL    C8810392   2.661   2.186   7.663 -0.2755  0.1398 -0.2772
   33MOL    C8910393   2.761   2.249   7.744  0.1548  0.2129  0.0986
   33MOL    C9010394   2.931   2.351   7.993 -0.1546  0.2256 -0.2288
   33MOL    H9110395   2.991   2.151   7.968 -1.3972  1.2632  1.4424
   33MOL    H9210396   2.603   1.906   7.835 -0.0516  0.2020 -0.7670
   33MOL    H9310397   2.535   2.008   7.641  0.4944  2.4890 -2.2954
   33MOL    H9410398   2.619   2.230   7.574 -1.4221  1.6397  0.9698
   33MOL    H9510399   2.798   2.345   7.711  1.0960 -0.2808 -0.3238
   33MOL    H9610400   2.894   2.433   7.932  2.7619  2.1176  0.4324
   33MOL    H9710401   3.022   2.399   8.029 -1.2402  0.8115  1.8693
   33MOL    C9810402   2.832   2.330   8.109 -0.6993  0.3830 -0.4780
   33MOL    C9910403   2.795   2.462   8.167 -0.5560 -0.2164 -0.4686
   33MOL   C10010404   2.660   2.507   8.146 -0.0564 -0.0459 -0.1223
   33MOL  Cl10110405   2.552   2.409   8.052  0.3275 -0.4551  0.0826
   33MOL   C10210406   2.624   2.637   8.192 -0.6145  0.5661 -0.0714
   33MOL   C10310407   2.714   2.716   8.265 -0.8147 -0.3793  0.0568
   33MOL   C10410408   2.841   2.661   8.299 -0.2359 -0.7082 -0.0584
   33MOL   C10510409   2.882   2.536   8.252  0.1051 -0.1383  0.1171
   33MOL   C10610410   2.892   2.240   8.209  0.1157  0.9424  0.5223
   33MOL   H10710411   2.747   2.271   8.074 -0.7763 -0.7164  1.5229
   33MOL   H10810412   2.529   2.680   8.166  0.3722  2.0678 -1.2427
   33MOL   H10910413   2.677   2.813   8.295 -2.6055 -0.9817 -0.1707
   33MOL   H11010414   2.914   2.717   8.356  1.0373 -1.3522 -1.0176
   33MOL   H11110415   2.982   2.500   8.274  1.2922  2.3615 -0.8822
   33MOL   H11210416   2.985   2.284   8.245  1.7419 -2.1886  0.3742
   33MOL   H11310417   2.925   2.146   8.165  1.0279  1.6541 -0.3456
   33MOL   C11410418   2.803   2.194   8.327  0.4270 -0.5354 -0.2782
   33MOL   C11510419   2.901   2.116   8.417 -0.0361  0.8587  0.0798
   33MOL   C11610420   2.943   2.171   0.121 -0.6938 -0.5428  0.3029
   33MOL  Cl11710421   2.909   2.333   0.166  0.0646 -0.0169  0.2914
   33MOL   C11810422   3.029   2.097   0.204 -0.3504 -0.3122 -0.3517
   33MOL   C11910423   3.075   1.971   0.162 -0.6645  0.6687 -0.4546
   33MOL   C12010424   3.028   1.905   0.047 -0.2135 -0.6004 -0.2873
   33MOL   C12110425   2.938   1.981   8.388 -0.4698 -0.3049  0.0746
   33MOL   C12210426   2.670   2.115   8.303  0.6434 -0.0516  0.9567
   33MOL   H12310427   2.780   2.289   8.376  2.2426 -0.8797  1.2902
   33MOL   H12410428   3.057   2.143   0.297 -1.5565 -0.2388 -0.0163
   33MOL   H12510429   3.147   1.918   0.223 -0.8324  1.6501  0.6207
   33MOL   H12610430   3.067   1.811   0.012  1.6259  0.1579 -0.3083
   33MOL   H12710431   2.898   1.935   8.299 -0.9183  3.3498 -1.6941
   33MOL   H12810432   2.696   2.012   8.277  2.7770  0.3715  1.3428
   33MOL   H12910433   2.634   2.152   8.207  0.5410 -0.0005  1.0141
   33MOL   C13010434   2.565   2.134   8.408 -0.0713  0.1162 -0.0250
   33MOL   C13110435   2.436   2.083   8.354 -0.1188 -0.3594 -0.8910
   33MOL   C13210436   2.393   1.954   8.396  0.3089  0.4458  0.1559
   33MOL  Cl13310437   2.492   1.851   0.073  0.4157  0.0020 -0.4555
   33MOL   C13410438   2.271   1.905   8.347  0.0883  0.3947 -0.4406
   33MOL   C13510439   2.193   1.982   8.256 -0.5651  0.3824  0.0061
   33MOL   C13610440   2.235   2.111   8.226  0.0136  0.4607  1.0423
   33MOL   C13710441   2.352   2.161   8.277 -0.8469 -0.7510 -0.5075
   33MOL   C13810442   2.565   2.286   0.050 -0.0400 -0.2958  0.3638
   33MOL   H13910443   2.584   2.069   0.073  0.9604 -0.5746 -0.7606
   33MOL   H14010444   2.240   1.806   8.377  0.8478  0.6089  1.1214
   33MOL   H14110445   2.102   1.946   8.209 -0.3614  2.0935 -1.7490
   33MOL   H14210446   2.180   2.179   8.163 -0.4821 -1.6109 -0.8146
   33MOL   H14310447   2.367   2.267   8.262 -1.6392 -0.7693 -1.4641
   33MOL   H14410448   2.568   2.354   8.386 -1.1013 -0.7848 -0.0816
   33MOL   H14510449   2.653   2.290   0.115 -1.2869 -0.4329  2.1064
   33MOL   C14610450   2.445   2.335   0.133  0.1117  0.4161 -0.3331
   33MOL   C14710451   2.443   2.487   0.136 -0.1427  0.3259  0.4052
   33MOL   C14810452   2.363   2.570   0.048  0.1956  0.0105 -0.2018
   33MOL  Cl14910453   2.248   2.499   8.361 -0.3212  0.0449  0.0320
   33MOL   C15010454   2.370   2.710   0.050  0.1878  0.2565  0.1525
   33MOL   C15110455   2.450   2.779   0.142 -0.0512  0.6557  0.1904
   33MOL   C15210456   2.543   2.703   0.215 -0.5664 -0.3051 -0.0084
   33MOL   C15310457   2.540   2.556   0.214 -0.1422 -0.0095 -0.2914
   33MOL   C15410458   2.436   2.274   0.265  0.0743  0.0305 -0.0120
   33MOL   H15510459   2.363   2.295   0.073  0.4402 -1.4563  0.4106
   33MOL   H15610460   2.310   2.761   8.397  0.2916  0.5515  0.2739
   33MOL   H15710461   2.466   2.883   0.118  0.4615  0.3514 -0.8367
   33MOL   H15810462   2.621   2.753   0.272 -0.0302 -0.8494 -0.2535
   33MOL   H15910463   2.610   2.498   0.272  0.8459  1.0008 -0.4624
   33MOL   H16010464   2.488   2.333   0.341 -1.1151  1.5962 -0.3910
   33MOL   H16110465   2.489   2.178   0.264  2.3375  1.2466 -1.1717
   33MOL   C16210466   2.290   2.256   0.312 -0.0185 -0.0163 -0.2013
   33MOL   C16310467   2.209   2.386   0.306 -0.4173 -0.6782 -0.3648
   33MOL   C16410468   2.090   2.403   0.231  0.2189  0.5954  0.3841
   33MOL  Cl16510469   2.026   2.265   0.145 -0.1722 -0.4558  0.3835
   33MOL   C16610470   2.009   2.521   0.238  0.3865 -0.0264  0.3961
   33MOL   C16710471   2.064   2.627   0.315  0.2893 -0.0198  0.0690
   33MOL   C16810472   2.190   2.612   0.386  0.4616  0.9272  0.3123
   33MOL   C16910473   2.263   2.490   0.382  0.0546  0.7247 -0.9413
   33MOL   C17010474   2.296   2.192   0.459  0.2043 -0.0787  0.7034
   33MOL   H17110475   2.238   2.183   0.250  1.5692 -0.8575 -0.5776
   33MOL   H17210476   1.913   2.529   0.190  0.2039 -0.7942  0.6360
   33MOL   H17310477   2.010   2.719   0.329 -1.9859 -1.2720 -0.2692
   33MOL   H17410478   2.242   2.693   0.434  1.9800 -0.2019  0.6191
   33MOL   H17510479   2.348   2.480   0.448 -1.0191 -1.6769  0.1254
   33MOL   H17610480   2.215   2.240   0.513  0.4639 -0.1531  1.1611
   33MOL   H17710481   2.380   2.228   0.519  2.4300 -1.7363 -1.2821
   33MOL   C17810482   2.270   2.040   0.460  0.1166  0.1512 -0.3643
   33MOL   C17910483   2.125   2.002   0.449 -1.2040 -0.7758 -0.5054
   33MOL   C18010484   2.075   1.927   0.342 -0.0809  0.6061  0.4075
   33MOL  Cl18110485   2.178   1.842   0.239 -0.2527  0.4000 -0.1081
   33MOL   C18210486   1.940   1.906   0.330  0.0484 -0.3539 -0.3968
   33MOL   C18310487   1.852   1.955   0.426  0.5910 -0.0229 -0.6144
   33MOL   C18410488   1.897   2.026   0.540 -0.2766 -0.0897  0.3665
   33MOL   C18510489   2.034   2.049   0.552 -0.0781 -0.4138  0.6071
   33MOL   C18610490   2.331   1.976   0.584 -0.5737 -0.5378 -0.1124
   33MOL   H18710491   2.318   2.000   0.370  0.7380 -0.3872  0.2022
   33MOL   H18810492   1.911   1.842   0.249  0.5581  0.8955 -1.5781
   33MOL   H18910493   1.749   1.932   0.406  0.3097 -0.0711  0.7962
   33MOL   H19010494   1.824   2.066   0.609 -1.4392 -0.3594 -0.6794
   33MOL   H19110495   2.058   2.113   0.635  1.1330  0.7477 -0.6040
   33MOL   H19210496   2.310   1.869   0.587  0.0033 -0.6160  2.2181
   33MOL   H19310497   2.277   2.012   0.671 -0.9510 -1.1094 -0.1060
   33MOL   C19410498   2.489   1.993   0.611 -0.2739  0.3404  0.1101
   33MOL   C19510499   2.574   1.920   0.506  0.6481 -0.0946  0.0133
   33MOL   C19610500   2.698   1.970   0.460  0.1955  0.5978 -0.1761
   33MOL  Cl19710501   2.770   2.103   0.540 -0.0500  0.2373  0.0685
   33MOL   C19810502   2.767   1.905   0.353 -0.6053  0.3149  0.6313
   33MOL   C19910503   2.709   1.781   0.306 -0.1806  0.2438  0.1940
   33MOL   C20010504   2.596   1.723   0.356 -0.4713 -0.0396 -0.0979
   33MOL   C20110505   2.522   1.795   0.450  0.0665  0.3805 -0.0041
   33MOL   C20210506   2.520   1.942   0.752  0.3760 -0.2290 -0.1619
   33MOL   H20310507   2.507   2.100   0.601  0.5326  0.1794 -0.1520
   33MOL   H20410508   2.859   1.941   0.309 -0.2096  0.0061  1.2123
   33MOL   H20510509   2.758   1.725   0.228  0.7682  0.8737  0.3288
   33MOL   H20610510   2.560   1.627   0.321  0.6279  0.1272 -1.7379
   33MOL   H20710511   2.429   1.757   0.489 -0.7657  2.8685  0.5035
   33MOL   H20810512   2.628   1.944   0.771  0.3968 -2.4157  0.0583
   33MOL   H20910513   2.490   1.840   0.775 -0.5180  0.1779  0.5005
   33MOL   C21010514   2.462   2.016   0.866  0.3328  0.0977 -0.5618
   33MOL   C21110515   2.484   2.168   0.841 -0.4381 -0.0359  0.4246
   33MOL   C21210516   2.382   2.269   0.826  0.0645 -0.4446 -0.4911
   33MOL  Cl21310517   2.222   2.222   0.831 -0.1794  0.0422 -0.1340
   33MOL   C21410518   2.413   2.406   0.813  0.4681  0.2206  0.3234
   33MOL   C21510519   2.547   2.446   0.811 -0.3344 -0.2486  0.1268
   33MOL   C21610520   2.643   2.349   0.822 -0.0667  0.3645 -1.0289
   33MOL   C21710521   2.617   2.212   0.843 -0.1360  0.4013  0.0357
   33MOL   C21810522   2.530   1.964   1.000 -0.3175  0.2490  0.7842
   33MOL   H21910523   2.355   1.996   0.867  0.4705 -0.6864  0.5656
   33MOL   H22010524   2.334   2.479   0.797  1.7412  1.1294 -2.1173
   33MOL   H22110525   2.575   2.550   0.800 -0.6323 -0.2393 -0.6040
   33MOL   H22210526   2.746   2.381   0.818 -0.1681  0.7012 -0.9591
   33MOL   H22310527   2.696   2.139   0.852 -2.3871 -1.7908  2.7184
   33MOL   H22410528   2.624   2.018   1.004  0.2933 -0.7553  0.0821
   33MOL   H22510529   2.560   1.862   0.977  3.8999  2.0249 -2.3738
   33MOL   C22610530   2.457   1.982   1.136 -0.3543 -0.5516  1.0084
   33MOL   C22710531   2.551   2.037   1.245  0.1643 -0.5125  0.4588
   33MOL   C22810532   2.572   2.178   1.258 -0.9103 -0.0749  0.5687
   33MOL  Cl22910533   2.488   2.295   1.174  0.0626  0.0788  0.0685
   33MOL   C23010534   2.678   2.224   1.339 -0.1542 -0.8782  0.6413
   33MOL   C23110535   2.758   2.138   1.410 -0.1173 -0.1660  0.4793
   33MOL   C23210536   2.736   1.997   1.401 -0.0597 -0.0333  0.2305
   33MOL   C23310537   2.635   1.949   1.317 -0.1591 -0.3239 -0.0099
   33MOL   C23410538   2.386   1.852   1.182 -0.6080  0.5988 -0.3879
   33MOL   H23510539   2.375   2.048   1.110  0.1621 -0.4545 -0.4317
   33MOL   H23610540   2.711   2.327   1.345  0.3161 -1.1012  2.1776
   33MOL   H23710541   2.843   2.177   1.464  0.5151 -1.2236  0.2627
   33MOL   H23810542   2.795   1.924   1.454  0.1808 -0.5680 -0.7519
   33MOL   H23910543   2.642   1.842   1.304  0.6247 -0.2687 -0.0949
   33MOL   H24010544   2.350   1.880   1.281  1.0468 -0.3251  0.4923
   33MOL   H24110545   2.468   1.781   1.194 -0.2296  0.9489 -0.9185
   33MOL   C24210546   2.282   1.790   1.080  0.5346  0.0156 -0.2072
   33MOL   C24310547   2.154   1.874   1.084  0.6277 -0.2609 -0.3176
   33MOL   C24410548   2.085   1.900   0.961  0.3543  0.2677 -0.1611
   33MOL  Cl24510549   2.113   1.799   0.819  0.0237  0.0453  0.1948
   33MOL   C24610550   1.989   1.994   0.956 -0.9118  0.2513 -0.1588
   33MOL   C24710551   1.959   2.064   1.073 -0.7264  0.0768 -0.1970
   33MOL   C24810552   2.012   2.028   1.195 -0.2390  0.5599 -0.0676
   33MOL   C24910553   2.112   1.935   1.201 -0.6638  0.1677  0.1851
   33MOL   C25010554   2.233   1.642   1.100 -0.6072  0.4002  0.1848
   33MOL   H25110555   2.313   1.803   0.976 -3.2399  1.4883 -1.2325
   33MOL   H25210556   1.951   2.024   0.859 -0.3701  0.5766 -0.2738
   33MOL   H25310557   1.888   2.146   1.077  1.1505  1.6672  1.8280
   33MOL   H25410558   1.988   2.084   1.284  0.3742  1.6904 -0.6111
   33MOL   H25510559   2.153   1.892   1.291 -1.2403 -1.1842 -0.1823
   33MOL   H25610560   2.157   1.619   1.025  1.1751  1.0721 -1.8901
   33MOL   H25710561   2.181   1.636   1.196 -2.4238 -2.9105 -0.9127
   33MOL   C25810562   2.345   1.537   1.083 -0.3461  0.4713 -0.3934
   33MOL   C25910563   2.442   1.545   0.964  0.1491  0.0317  0.6246
   33MOL   C26010564   2.582   1.546   0.983 -0.0238  0.2003 -0.3548
   33MOL  Cl26110565   2.652   1.525   1.140 -0.2131 -0.0387  0.3348
   33MOL   C26210566   2.669   1.549   0.870  0.1890 -0.4340  0.5002
   33MOL   C26310567   2.613   1.557   0.738  1.0168  0.0340  0.4647
   33MOL   C26410568   2.473   1.556   0.717  0.1936  0.0679  0.3949
   33MOL   C26510569   2.392   1.548   0.830 -0.0019 -0.4522  0.5404
   33MOL   C26610570   2.280   1.400   1.086  0.4793 -0.0377 -0.4424
   33MOL   H26710571   2.408   1.549   1.171  0.2892 -1.4369 -0.5823
   33MOL   H26810572   2.776   1.556   0.875  0.3230 -2.4817  0.7502
   33MOL   H26910573   2.669   1.555   0.646  0.1833 -0.2969 -0.0429
   33MOL   H27010574   2.433   1.557   0.617 -1.1075  1.1985  0.9268
   33MOL   H27110575   2.284   1.538   0.831 -0.3046  2.3249  3.1683
   33MOL   H27210576   2.207   1.396   1.006 -0.3872 -0.7637  0.3732
   33MOL   H27310577   2.221   1.397   1.178  1.1065  1.4146  0.0282
   33MOL   C27410578   2.379   1.282   1.076 -0.0136 -0.3129 -1.1644
   33MOL   C27510579   2.317   1.163   1.011 -0.3027  0.2680  0.1426
   33MOL   C27610580   2.378   1.101   0.894  0.1350 -0.4599  1.3506
   33MOL  Cl27710581   2.522   1.158   0.824 -0.0924 -0.2485  0.6755
   33MOL   C27810582   2.315   0.981   0.848  0.6784  0.7873  0.0918
   33MOL   C27910583   2.197   0.939   0.901  0.1212  0.3366  0.5902
   33MOL   C28010584   2.141   1.002   1.014  0.4794  0.1172  0.3933
   33MOL   C28110585   2.196   1.116   1.070 -0.0653 -0.1360  0.1547
   33MOL   C28210586   2.449   1.259   1.210  0.4273  0.6794 -0.4701
   33MOL   H28310587   2.456   1.305   1.002 -0.2683 -0.8696 -1.6087
   33MOL   H28410588   2.348   0.926   0.762  0.2032  0.8938 -0.1637
   33MOL   H28510589   2.152   0.853   0.853 -0.5410  0.3729  1.1472
   33MOL   H28610590   2.050   0.954   1.049 -0.0875  0.0301 -1.1732
   33MOL   H28710591   2.152   1.162   1.157 -1.5335 -2.5247  0.7282
   33MOL   H28810592   2.365   1.247   1.278  1.8686  1.4628  1.5268
   33MOL   H28910593   2.500   1.353   1.233 -1.4684  1.9088 -1.2484
   33MOL   C29010594   2.539   1.127   1.223  0.0830 -1.2680  0.3128
   33MOL   C29110595   2.538   1.083   1.365 -0.1976 -0.2309  0.2296
   33MOL   C29210596   2.447   0.980   1.409  0.8503 -0.3177  0.1894
   33MOL  Cl29310597   2.314   0.927   1.308 -0.2205  0.3454 -0.1002
   33MOL   C29410598   2.449   0.951   1.546  0.0058  0.2043  0.4882
   33MOL   C29510599   2.546   1.002   1.636  0.5191  0.0450  0.3564
   33MOL   C29610600   2.641   1.086   1.593 -0.3755  0.5983 -0.2206
   33MOL   C29710601   2.631   1.129   1.459 -0.6484 -0.5563  0.8432
   33MOL   C29810602   2.675   1.157   1.159 -0.0259 -1.0034  0.0818
   33MOL   H29910603   2.498   1.046   1.163  0.4630 -0.7261 -0.6938
   33MOL   H30010604   2.387   0.872   1.585  1.1754 -1.6980 -1.3868
   33MOL   H30110605   2.552   0.960   1.735 -2.6989 -0.1636  0.5161
   33MOL   H30210606   2.725   1.109   1.656  0.6110 -3.8865  0.2667
   33MOL   H30310607   2.694   1.215   1.439 -0.3285 -0.3572  2.6045
   33MOL   H30410608   2.723   1.237   1.216 -0.1279 -2.0398  1.6596
   33MOL   H30510609   2.662   1.189   1.056 -0.2552  2.6031  1.1380
   33MOL   C30610610   2.773   1.030   1.148 -0.0681 -0.0664  0.5291
   33MOL   C30710611   2.919   1.066   1.102  0.0626 -0.2903 -0.4196
   33MOL   C30810612   3.018   1.085   1.205 -0.2358  0.6674 -0.3534
   33MOL  Cl30910613   2.991   1.055   1.370 -0.1033 -0.2267 -0.0917
   33MOL   C31010614   3.136   1.142   1.169 -0.4629  1.0936  0.0536
   33MOL   C31110615   3.167   1.174   1.034  0.2639  0.1897 -0.0681
   33MOL   C31210616   3.081   1.124   0.929  0.0409  0.3393 -0.5782
   33MOL   C31310617   2.955   1.081   0.966  0.2807  0.2370  1.0011
   33MOL   C31410618   2.723   0.918   1.062 -0.0808 -0.1996 -0.2214
   33MOL   H31510619   2.774   0.990   1.250 -2.7258 -0.4292  0.4346
   33MOL   H31610620   3.219   1.149   1.239 -0.1354  0.1687 -0.2405
   33MOL   H31710621   3.261   1.220   1.007 -0.1930  0.4051 -1.3212
   33MOL   H31810622   3.105   1.134   0.824 -0.7297  0.4532 -0.7436
   33MOL   H31910623   2.884   1.066   0.886 -0.0117  1.4495  1.0262
   33MOL   H32010624   2.801   0.843   1.048 -1.6567 -1.7548 -0.7630
   33MOL   H32110625   2.674   0.952   0.971 -0.0993  2.4966  0.7412
   33MOL   H32210626   2.641   0.870   1.116  1.0040  1.3024  2.9012
   34MOL     C110627   8.018   6.156   4.232 -0.2949 -0.2143 -0.2246
   34MOL     C210628   8.089   6.103   4.114  0.2168  0.2178  0.8627
   34MOL     C310629   8.058   6.142   3.985 -0.5745  0.4222 -0.4647
   34MOL    Cl410630   7.931   6.245   3.945  0.2466  0.0858  0.1927
   34MOL     C510631   8.137   6.102   3.876 -0.0624  0.2576 -0.3076
   34MOL     C610632   8.242   6.007   3.902 -0.0611 -0.0075 -0.3127
   34MOL     C710633   8.272   5.968   4.032 -0.3746 -0.5435 -0.2591
   34MOL     C810634   8.194   6.013   4.138  0.3784 -0.9827 -0.6610
   34MOL     C910635   7.931   6.045   4.299 -0.2829 -1.2364  0.6158
   34MOL    H1010636   8.101   6.198   4.289 -0.8466  1.0337 -0.3008
   34MOL    H1110637   8.122   6.148   3.780  0.4481  0.7788 -0.1353
   34MOL    H1210638   8.306   5.955   3.832 -0.4640  1.4083 -1.7710
   34MOL    H1310639   8.364   5.913   4.048  0.1384  0.1376 -0.8654
   34MOL    H1410640   8.217   5.983   4.239 -0.2217  1.9526  0.3910
   34MOL    H1510641   7.985   5.952   4.316  2.8915  0.4676  0.2419
   34MOL    H1610642   7.857   6.010   4.228  0.2592 -1.1355 -0.0110
   34MOL    H1710643   7.965   6.249   4.211  0.6222  0.7215  1.4319
   34MOL    C1810644   7.887   6.093   4.437 -0.2194  0.3798 -0.8498
   34MOL    C1910645   7.803   6.218   4.441  0.0249 -0.2979  0.1914
   34MOL    C2010646   7.661   6.212   4.429 -0.2222 -0.0072  0.7732
   34MOL   Cl2110647   7.581   6.061   4.389  0.1737  0.1399 -0.2204
   34MOL    C2210648   7.586   6.327   4.442  0.0980 -1.0846  0.6138
   34MOL    C2310649   7.641   6.448   4.465 -0.5343  0.3229 -0.2752
   34MOL    C2410650   7.776   6.453   4.465 -0.4616 -0.4232  0.2918
   34MOL    C2510651   7.859   6.343   4.449  0.5575  0.2928  0.2176
   34MOL    C2610652   8.009   6.086   4.537 -0.4380  0.3592 -0.2697
   34MOL    H2710653   7.825   6.011   4.473  2.1114 -1.5052 -1.0431
   34MOL    H2810654   7.480   6.309   4.428  0.0205  0.0473 -0.2741
   34MOL    H2910655   7.585   6.539   4.478  1.0056  0.9198  2.5008
   34MOL    H3010656   7.818   6.546   4.500 -1.6356 -0.1890  1.1085
   34MOL    H3110657   7.967   6.350   4.460  0.5333  0.8191  0.1512
   34MOL    H3210658   8.092   6.144   4.498  0.0824  0.4126  0.9208
   34MOL    H3310659   8.047   5.984   4.537  1.4662  1.0573 -0.7516
   34MOL    C3410660   7.986   6.125   4.682  0.4562 -0.0412 -0.0255
   34MOL    C3510661   8.115   6.098   4.766 -0.2133  0.1090  0.4803
   34MOL    C3610662   8.205   6.202   4.794 -0.1906 -0.0384  0.4029
   34MOL   Cl3710663   8.180   6.365   4.736 -0.3794  0.3286 -0.1619
   34MOL    C3810664   8.320   6.179   4.870  0.2503 -0.0714  0.4759
   34MOL    C3910665   8.338   6.052   4.924 -0.2852  0.1394 -0.7103
   34MOL    C4010666   8.245   5.946   4.904 -0.4736  0.1950 -0.0863
   34MOL    C4110667   8.135   5.969   4.818 -0.3512  0.1528 -0.9078
   34MOL    C4210668   7.858   6.052   4.737  0.0874 -0.2782 -0.1623
   34MOL    H4310669   7.963   6.232   4.679  2.3719  0.3397 -2.2648
   34MOL    H4410670   8.390   6.261   4.883  0.1373 -0.0033  0.6481
   34MOL    H4510671   0.002   6.023   4.985 -0.5066  1.2759  0.1528
   34MOL    H4610672   8.239   5.852   4.958 -4.8629 -0.9557 -2.3120
   34MOL    H4710673   8.065   5.888   4.804  1.1402 -1.2162 -0.6146
   34MOL    H4810674   7.868   5.946   4.712  0.4160 -0.8824  2.4546
   34MOL    H4910675   7.772   6.076   4.675  0.7446  0.7899 -0.6785
   34MOL    C5010676   7.800   6.087   4.879  0.1167  0.2535 -0.9575
   34MOL    C5110677   7.842   6.218   4.935  0.3732 -0.0190  0.1541
   34MOL    C5210678   7.781   6.339   4.891  0.3641  0.5133  0.4107
   34MOL   Cl5310679   7.661   6.339   4.771  0.2075 -0.4804 -0.1042
   34MOL    C5410680   7.816   6.463   4.947 -0.6863  0.0191 -0.6554
   34MOL    C5510681   7.912   6.473   5.057  0.1499  0.1064  0.6272
   34MOL    C5610682   7.973   6.353   5.095  0.3943 -0.0057  0.0943
   34MOL    C5710683   7.943   6.232   5.031 -0.1715 -0.1567 -0.2215
   34MOL    C5810684   7.788   5.970   4.976 -0.1523 -0.1888  0.6507
   34MOL    H5910685   7.697   6.108   4.853 -0.5963 -1.6046  0.2386
   34MOL    H6010686   7.759   6.547   4.910 -1.7440  0.1977  1.3543
   34MOL    H6110687   7.951   6.564   5.101  0.0018 -0.2690  1.5528
   34MOL    H6210688   8.046   6.360   5.174  0.5082  1.4420 -0.1191
   34MOL    H6310689   7.997   6.140   5.050 -1.5652 -1.2943 -1.5890
   34MOL    H6410690   7.735   6.008   5.063 -1.7105 -1.1763  0.1630
   34MOL    H6510691   7.880   5.936   5.023  0.1757  1.0742  0.9327
   34MOL    C6610692   7.695   5.856   4.926  0.1164  0.0545  0.6122
   34MOL    C6710693   7.566   5.911   4.855  0.7041  0.1375  0.5073
   34MOL    C6810694   7.539   5.890   4.718 -0.2217  0.3184 -0.1739
   34MOL   Cl6910695   7.639   5.800   4.617  0.3025 -0.0077 -0.2785
   34MOL    C7010696   7.424   5.952   4.657  0.6190 -0.6453 -0.2720
   34MOL    C7110697   7.335   6.028   4.738  0.4851  0.0013 -0.4289
   34MOL    C7210698   7.370   6.049   4.877 -0.1642 -0.2480  0.5096
   34MOL    C7310699   7.484   5.989   4.935 -0.7007  0.3721 -0.1060
   34MOL    C7410700   7.657   5.758   5.048  0.0030  0.0644 -1.3391
   34MOL    H7510701   7.759   5.797   4.860 -1.3192 -0.9681  0.1071
   34MOL    H7610702   7.411   5.937   4.550 -0.5615 -0.8822 -0.1070
   34MOL    H7710703   7.242   6.064   4.698  1.7291  3.0289 -0.6711
   34MOL    H7810704   7.303   6.103   4.942  0.0634  0.3861  0.2142
   34MOL    H7910705   7.501   6.008   5.040  0.9188 -0.0359 -0.2838
   34MOL    H8010706   7.579   5.793   5.115  1.6244 -0.9136  1.1330
   34MOL    H8110707   7.744   5.758   5.114  0.0388 -0.0221 -1.3866
   34MOL    C8210708   7.633   5.609   5.010  0.1911 -1.1212  0.3027
   34MOL    C8310709   7.500   5.595   4.935  0.2891 -0.1275 -0.1699
   34MOL    C8410710   7.500   5.512   4.821 -0.1516 -0.5092 -0.1259
   34MOL   Cl8510711   7.642   5.429   4.763 -0.0975 -0.5630  0.2867
   34MOL    C8610712   7.389   5.515   4.739  0.4651  0.2045  0.6066
   34MOL    C8710713   7.269   5.573   4.773  0.1623 -0.9206 -0.1902
   34MOL    C8810714   7.265   5.639   4.899 -0.3594  0.0965 -0.5821
   34MOL    C8910715   7.377   5.656   4.971 -0.4456 -0.0962  0.1759
   34MOL    C9010716   7.645   5.515   5.123 -0.3928  0.3726  0.2806
   34MOL    H9110717   7.718   5.581   4.948 -0.4594 -1.5192 -0.4236
   34MOL    H9210718   7.394   5.464   4.644  0.7574  1.0233  0.1798
   34MOL    H9310719   7.183   5.558   4.709  0.8667 -0.2351 -1.3158
   34MOL    H9410720   7.174   5.680   4.939  0.1846  0.8138 -0.0552
   34MOL    H9510721   7.364   5.733   5.045 -0.5219  0.4644 -0.4186
   34MOL    H9610722   7.564   5.442   5.132  0.8354 -1.1340 -0.6691
   34MOL    H9710723   7.602   5.577   5.202  1.3857  1.0781  0.7052
   34MOL    C9810724   7.776   5.453   5.159 -0.3326 -0.4560  0.1214
   34MOL    C9910725   7.825   5.355   5.048  0.3304 -0.4222 -0.0116
   34MOL   C10010726   7.949   5.367   4.980 -0.0237  0.7487 -0.3743
   34MOL  Cl10110727   8.042   5.509   4.993 -0.1189 -0.0509  0.4423
   34MOL   C10210728   7.986   5.277   4.876 -0.3437 -0.3332 -0.1123
   34MOL   C10310729   7.905   5.169   4.841  0.9030  0.5392 -0.4800
   34MOL   C10410730   7.784   5.151   4.906  0.2862 -0.0780  0.0142
   34MOL   C10510731   7.746   5.241   5.012 -0.7261 -0.2708  0.1203
   34MOL   C10610732   7.766   5.378   5.294  0.6447  0.3963 -0.3677
   34MOL   H10710733   7.849   5.533   5.165 -1.4322  0.6191 -0.6052
   34MOL   H10810734   8.070   5.309   4.816  1.4385 -0.1243  2.4280
   34MOL   H10910735   7.938   5.126   4.747  0.8959  0.0804 -0.2680
   34MOL   H11010736   7.711   5.083   4.863  0.1442  0.9932 -1.4879
   34MOL   H11110737   7.649   5.232   5.059 -1.0688 -0.5127 -0.6255
   34MOL   H11210738   7.855   5.315   5.303 -0.4026 -0.8409  1.3934
   34MOL   H11310739   7.686   5.305   5.287  1.2877 -0.7881  3.4941
   34MOL   C11410740   7.751   5.468   5.425 -0.6498 -0.5278  0.2324
   34MOL   C11510741   7.865   5.566   5.447  0.5784 -0.6560  0.0650
   34MOL   C11610742   7.843   5.689   5.516  0.4173  0.1174 -0.8436
   34MOL  Cl11710743   7.689   5.734   5.580 -0.1722 -0.5284  0.2946
   34MOL   C11810744   7.948   5.764   5.560 -0.6431  0.4232 -0.3876
   34MOL   C11910745   8.082   5.731   5.526  0.7908 -0.5836  0.4154
   34MOL   C12010746   8.108   5.616   5.446  0.1837 -0.1693  0.3557
   34MOL   C12110747   8.000   5.536   5.406 -0.1451 -0.2271 -0.0365
   34MOL   C12210748   7.745   5.380   5.557  0.0555 -0.6096 -0.1698
   34MOL   H12310749   7.661   5.526   5.407 -0.4519 -1.3417 -4.0254
   34MOL   H12410750   7.927   5.844   5.630 -1.0556  0.5493 -0.6594
   34MOL   H12510751   8.165   5.793   5.558 -2.6983  4.0669  0.9241
   34MOL   H12610752   8.210   5.591   5.423  0.0520  0.1533 -0.5906
   34MOL   H12710753   8.029   5.445   5.355  2.7323  0.6823 -0.1161
   34MOL   H12810754   7.750   5.444   5.645  1.7944 -2.2577  0.9883
   34MOL   H12910755   7.831   5.313   5.552 -0.2425 -0.9356 -0.9160
   34MOL   C13010756   7.619   5.291   5.570 -0.0384  0.4756  0.0984
   34MOL   C13110757   7.483   5.366   5.544  0.2198  1.1925 -0.0853
   34MOL   C13210758   7.382   5.306   5.469 -0.1491  0.0069  0.4021
   34MOL  Cl13310759   7.420   5.166   5.372 -0.2862 -0.0375 -0.1383
   34MOL   C13410760   7.256   5.359   5.459 -0.5884 -0.0633  0.4678
   34MOL   C13510761   7.223   5.480   5.520 -0.1510  0.8426  0.7611
   34MOL   C13610762   7.322   5.546   5.599  0.9005 -0.6921 -0.2162
   34MOL   C13710763   7.447   5.484   5.613 -0.2206 -0.0477  0.4048
   34MOL   C13810764   7.611   5.226   5.711 -0.0457  0.1504  0.2194
   34MOL   H13910765   7.636   5.205   5.505 -2.3715 -2.6947  3.4748
   34MOL   H14010766   7.188   5.305   5.394 -0.6402  0.4406  0.0912
   34MOL   H14110767   7.121   5.511   5.502 -0.8275  0.4175  3.6007
   34MOL   H14210768   7.312   5.637   5.656  1.7322 -0.5187 -0.3302
   34MOL   H14310769   7.517   5.518   5.687  2.9377 -2.6145 -1.2722
   34MOL   H14410770   7.526   5.158   5.716  1.7395 -2.3649 -1.9137
   34MOL   H14510771   7.596   5.299   5.791  2.0731 -0.3252  1.0921
   34MOL   C14610772   7.730   5.132   5.747 -0.1255 -0.7316  0.0466
   34MOL   C14710773   7.752   5.010   5.647 -0.1922  0.4380  0.8796
   34MOL   C14810774   7.872   4.989   5.572  0.3655  0.2662 -0.2440
   34MOL  Cl14910775   7.985   5.112   5.560 -0.5864  0.0459 -0.1177
   34MOL   C15010776   7.894   4.873   5.500 -0.1924 -0.0885  0.3430
   34MOL   C15110777   7.792   4.778   5.501  0.6793 -0.4468 -0.2635
   34MOL   C15210778   7.677   4.784   5.583  0.3491  0.1979 -1.4283
   34MOL   C15310779   7.655   4.908   5.651  0.2419  0.0392  0.7601
   34MOL   C15410780   7.710   5.087   5.897 -0.0453 -0.4326 -0.6516
   34MOL   H15510781   7.823   5.188   5.736 -1.5956  1.7914  0.1093
   34MOL   H15610782   7.979   4.854   5.435 -0.6335  0.4878 -0.4202
   34MOL   H15710783   7.809   4.692   5.437  3.8880 -0.5898  0.6818
   34MOL   H15810784   7.601   4.707   5.593  1.3245 -1.0461 -3.3012
   34MOL   H15910785   7.567   4.918   5.712 -0.3893 -2.1627  0.2575
   34MOL   H16010786   7.632   5.011   5.900 -1.3175  0.8315 -1.1238
   34MOL   H16110787   7.685   5.182   5.944  0.9962  0.2026 -1.3673
   34MOL   C16210788   7.840   5.035   5.975 -0.0341 -0.5441 -0.1691
   34MOL   C16310789   7.891   4.903   5.915  0.2069  1.0048  0.2258
   34MOL   C16410790   8.022   4.892   5.860 -0.4738  0.1947 -0.7214
   34MOL  Cl16510791   8.136   5.022   5.877  0.2603 -0.3661 -0.3098
   34MOL   C16610792   8.061   4.771   5.798 -0.1168  0.5388  0.1492
   34MOL   C16710793   7.975   4.661   5.785 -0.7691  0.1329 -0.8161
   34MOL   C16810794   7.852   4.665   5.853 -0.5080 -0.6491 -0.2614
   34MOL   C16910795   7.804   4.790   5.906  0.5291  0.5708  0.5863
   34MOL   C17010796   7.821   5.036   6.128  0.2187  0.0665  0.1257
   34MOL   H17110797   7.914   5.106   5.939  0.0873 -1.4722 -1.7721
   34MOL   H17210798   8.152   4.768   5.739 -1.1987 -0.2562 -1.5176
   34MOL   H17310799   8.004   4.573   5.729  1.5512 -0.7050  1.5961
   34MOL   H17410800   7.788   4.578   5.853  0.1023 -1.1106  1.4729
   34MOL   H17510801   7.700   4.792   5.937 -0.1702  1.3284 -1.6928
   34MOL   H17610802   7.880   4.959   6.178  0.5167  0.9832  1.1991
   34MOL   H17710803   7.719   4.997   6.137  0.7260 -0.9306  1.6878
   34MOL   C17810804   7.862   5.168   6.194 -0.6913 -0.2414 -0.1261
   34MOL   C17910805   8.010   5.184   6.206  1.1058 -0.0909  0.3158
   34MOL   C18010806   8.070   5.293   6.137 -0.7271 -0.5660  0.6219
   34MOL  Cl18110807   7.993   5.420   6.054  0.1419 -0.3258  0.0458
   34MOL   C18210808   8.210   5.310   6.139  0.2682  0.7579  0.1569
   34MOL   C18310809   8.290   5.206   6.200 -0.7503  0.3912 -0.5070
   34MOL   C18410810   8.234   5.096   6.271 -0.5727 -1.0631 -0.1777
   34MOL   C18510811   8.095   5.088   6.274  0.7508  0.0274 -0.0001
   34MOL   C18610812   7.799   5.203   6.326 -0.0772  0.4054  0.6216
   34MOL   H18710813   7.828   5.241   6.121  1.0336 -0.3856 -1.0903
   34MOL   H18810814   8.256   5.387   6.079  1.1465 -0.7996 -1.2176
   34MOL   H18910815   8.398   5.213   6.192 -0.4445 -2.0444  0.8416
   34MOL   H19010816   8.292   5.024   6.328 -0.0018  1.2390  2.2452
   34MOL   H19110817   8.040   5.012   6.328 -1.8495  2.1785  0.5170
   34MOL   H19210818   7.839   5.299   6.358 -2.1778  2.0349 -1.4156
   34MOL   H19310819   7.824   5.136   6.408  0.2966  1.6020  1.4901
   34MOL   C19410820   7.645   5.227   6.321 -0.1994 -0.0996 -0.0939
   34MOL   C19510821   7.592   5.308   6.201 -0.4653  0.2447  0.5610
   34MOL   C19610822   7.484   5.259   6.121 -0.4293 -0.0082  0.0053
   34MOL  Cl19710823   7.423   5.100   6.138  0.2000 -0.2936 -0.0117
   34MOL   C19810824   7.425   5.341   6.016  0.2501  0.4827  0.0055
   34MOL   C19910825   7.490   5.465   5.991 -0.0608 -0.3475  0.3741
   34MOL   C20010826   7.609   5.505   6.063  0.1202  0.4703 -0.2366
   34MOL   C20110827   7.652   5.425   6.173 -0.0404  0.5435 -0.3660
   34MOL   C20210828   7.591   5.292   6.456 -0.3472 -0.0749  0.2154
   34MOL   H20310829   7.603   5.126   6.315 -0.5664  0.1617 -2.9857
   34MOL   H20410830   7.345   5.300   5.957  1.0668 -2.4136  0.7862
   34MOL   H20510831   7.452   5.534   5.917  1.6544  1.7453  1.3568
   34MOL   H20610832   7.644   5.604   6.037 -0.1337  0.3244 -1.1628
   34MOL   H20710833   7.738   5.453   6.232  1.1135  1.0189 -2.2126
   34MOL   H20810834   7.482   5.292   6.456 -0.3687  2.0974  0.4684
   34MOL   H20910835   7.612   5.399   6.451 -0.9465  0.1745  2.4927
   34MOL   C21010836   7.645   5.242   6.598  0.0820  0.5003  0.4616
   34MOL   C21110837   7.642   5.088   6.608  1.0060 -0.9162 -0.1100
   34MOL   C21210838   7.745   5.010   6.663  0.6588 -0.3187  0.5386
   34MOL  Cl21310839   7.894   5.086   6.704 -0.2133  0.2950 -0.1450
   34MOL   C21410840   7.739   4.876   6.670 -0.1936  0.1728 -0.1809
   34MOL   C21510841   7.626   4.808   6.625 -0.1374  0.2489 -1.2592
   34MOL   C21610842   7.514   4.877   6.581  0.3009 -0.1765 -0.2295
   34MOL   C21710843   7.524   5.016   6.577 -0.2765  0.0690  0.1067
   34MOL   C21810844   7.576   5.314   6.718 -0.0515  0.0290  0.9729
   34MOL   H21910845   7.747   5.281   6.601 -0.3222  1.6596 -0.3058
   34MOL   H22010846   7.810   4.819   6.728  0.2787  0.2634 -0.6659
   34MOL   H22110847   7.617   4.700   6.622 -1.4247  0.2120  1.7825
   34MOL   H22210848   7.425   4.822   6.555  0.7708 -0.4894 -1.2111
   34MOL   H22310849   7.437   5.066   6.537  0.9943  1.4237 -1.0244
   34MOL   H22410850   7.591   5.249   6.805  0.0269  1.1668  1.8172
   34MOL   H22510851   7.468   5.315   6.706  0.1237  1.1477 -0.7604
   34MOL   C22610852   7.606   5.463   6.748  0.1517  0.4479  0.2718
   34MOL   C22710853   7.749   5.502   6.746 -0.2054 -0.5040 -0.3237
   34MOL   C22810854   7.808   5.593   6.651  0.1814  0.1077 -0.3265
   34MOL  Cl22910855   7.711   5.676   6.536  0.3771  0.3993  0.2717
   34MOL   C23010856   7.945   5.625   6.660 -0.1475  0.4368 -0.0318
   34MOL   C23110857   8.028   5.561   6.755 -0.8921  0.0470 -0.4702
   34MOL   C23210858   7.975   5.454   6.831  0.4222 -0.5786  0.1459
   34MOL   C23310859   7.837   5.427   6.829 -0.6159  0.7277 -0.8114
   34MOL   C23410860   7.552   5.502   6.885  0.6750  0.2280  0.0852
   34MOL   H23510861   7.544   5.513   6.674  4.0158  3.6014 -0.9795
   34MOL   H23610862   7.994   5.691   6.590  1.2474  0.1233  0.6396
   34MOL   H23710863   8.131   5.595   6.758 -1.2222  1.0404 -0.2384
   34MOL   H23810864   8.042   5.400   6.897  1.6440  0.6185 -0.0719
   34MOL   H23910865   7.794   5.344   6.884  0.3402  1.6667  1.4254
   34MOL   H24010866   7.604   5.440   6.959  0.7477  0.8669  0.5761
   34MOL   H24110867   7.449   5.467   6.897  0.8463 -1.7122 -3.4162
   34MOL   C24210868   7.575   5.650   6.927 -0.7653  0.0829 -0.3134
   34MOL   C24310869   7.547   5.687   7.078  0.5804  0.1320  0.6654
   34MOL   C24410870   7.638   5.760   7.153 -0.8443  0.6718  0.0600
   34MOL  Cl24510871   7.749   5.865   7.080 -0.1611  0.2854  0.0934
   34MOL   C24610872   7.626   5.770   7.295 -1.0164 -0.2540  0.6363
   34MOL   C24710873   7.531   5.699   7.362  1.2044  0.0167 -0.2272
   34MOL   C24810874   7.436   5.626   7.289  0.3569 -0.0467 -0.1653
   34MOL   C24910875   7.445   5.623   7.150  0.2555 -0.0569 -0.2313
   34MOL   C25010876   7.509   5.756   6.838  0.0368  0.1258  0.0302
   34MOL   H25110877   7.678   5.682   6.912 -0.7425 -0.6145 -1.6702
   34MOL   H25210878   7.705   5.825   7.344 -0.9490  1.0882 -0.8987
   34MOL   H25310879   7.510   5.712   7.468 -2.7001  0.1124 -0.9219
   34MOL   H25410880   7.366   5.563   7.343  0.3227  0.0218 -0.1297
   34MOL   H25510881   7.368   5.555   7.115  0.0339 -0.5479  1.1887
   34MOL   H25610882   7.547   5.739   6.737 -0.6700  1.2316 -0.4299
   34MOL   H25710883   7.537   5.860   6.851  1.5893 -0.3701  0.7466
   34MOL   C25810884   7.352   5.766   6.853  0.2255 -0.3867  0.1010
   34MOL   C25910885   7.276   5.767   6.717 -0.6351  0.3442 -0.3502
   34MOL   C26010886   7.193   5.658   6.684 -1.0542  0.2196 -0.0380
   34MOL  Cl26110887   7.203   5.515   6.776  0.0838  0.2315  0.1952
   34MOL   C26210888   7.113   5.659   6.568 -0.3870 -0.2129 -0.4224
   34MOL   C26310889   7.120   5.769   6.480 -0.1335 -0.3146  0.4965
   34MOL   C26410890   7.198   5.880   6.518  0.5589 -0.4461  0.2279
   34MOL   C26510891   7.282   5.877   6.629 -0.4799 -0.6407 -0.0854
   34MOL   C26610892   7.323   5.897   6.938 -0.7267  0.2245 -0.9491
   34MOL   H26710893   7.316   5.692   6.925 -1.6967 -0.3709 -0.7995
   34MOL   H26810894   7.053   5.574   6.541 -0.3748 -0.6107  0.8123
   34MOL   H26910895   7.065   5.776   6.387  0.4840  0.3360  0.1751
   34MOL   H27010896   7.206   5.966   6.451 -1.3106 -0.3303  0.1329
   34MOL   H27110897   7.334   5.970   6.642 -0.3468 -0.4250 -1.9822
   34MOL   H27210898   7.327   5.991   6.884 -0.1435  0.7025 -0.0773
   34MOL   H27310899   7.412   5.905   7.002 -0.4408  2.6305 -1.6176
   34MOL   C27410900   7.187   5.892   7.008 -0.9292  0.5317 -0.4011
   34MOL   C27510901   7.087   5.993   6.955  0.0731  0.5805  0.0516
   34MOL   C27610902   6.967   5.954   6.895 -0.2837  0.4548 -0.0653
   34MOL  Cl27710903   6.920   5.790   6.867 -0.0496  0.5118 -0.2205
   34MOL   C27810904   6.862   6.051   6.879  0.6328  0.2221 -0.1327
   34MOL   C27910905   6.891   6.191   6.893 -0.3897  0.0429  0.0388
   34MOL   C28010906   7.022   6.229   6.934  0.7090  0.1832 -0.1845
   34MOL   C28110907   7.112   6.126   6.976  0.8971  0.7517 -0.2775
   34MOL   C28210908   7.220   5.914   7.160 -0.9591 -0.1645 -0.4107
   34MOL   H28310909   7.151   5.789   7.002  0.6035 -0.0159 -0.4178
   34MOL   H28410910   6.765   6.010   6.855  0.6125  1.4108 -2.1555
   34MOL   H28510911   6.811   6.259   6.869  0.2006  0.4919 -0.6680
   34MOL   H28610912   7.039   6.336   6.932  1.1397  0.0830 -1.7499
   34MOL   H28710913   7.211   6.161   7.001  0.3990  1.5712  0.5904
   34MOL   H28810914   7.268   6.012   7.172  1.5762 -1.6465  2.2493
   34MOL   H28910915   7.300   5.844   7.185 -3.5881 -3.3535 -0.6864
   34MOL   C29010916   7.106   5.913   7.265 -0.4491 -0.0033 -0.4630
   34MOL   C29110917   7.147   5.992   7.391 -0.2516  1.0672 -0.2910
   34MOL   C29210918   7.070   6.101   7.437 -0.4462 -0.0908  0.3196
   34MOL  Cl29310919   6.932   6.154   7.346  0.1942  0.1062  0.2302
   34MOL   C29410920   7.105   6.178   7.551 -0.0226  0.6371 -0.4240
   34MOL   C29510921   7.219   6.137   7.622  0.0128 -0.2606 -0.0241
   34MOL   C29610922   7.303   6.033   7.579 -0.6943 -0.3919  0.1008
   34MOL   C29710923   7.259   5.958   7.468 -0.5639 -0.6492 -0.5201
   34MOL   C29810924   7.058   5.770   7.307  0.5099 -0.1570  0.6765
   34MOL   H29910925   7.025   5.964   7.212 -0.5455 -0.6652 -0.9525
   34MOL   H30010926   7.043   6.260   7.584 -1.4022 -0.4316 -0.3142
   34MOL   H30110927   7.251   6.195   7.707 -0.3685  0.2317 -0.2109
   34MOL   H30210928   7.398   6.003   7.619 -0.0188  0.3855 -0.8918
   34MOL   H30310929   7.326   5.879   7.438  0.7456 -1.0803  3.1803
   34MOL   H30410930   7.123   5.735   7.387  0.9641 -3.0864 -0.9063
   34MOL   H30510931   7.069   5.698   7.226  1.4327  1.3160 -0.5106
   34MOL   C30610932   6.910   5.772   7.345 -0.3274 -0.5212  0.7022
   34MOL   C30710933   6.872   5.662   7.451  0.5463 -0.3923  0.4685
   34MOL   C30810934   6.866   5.684   7.596 -0.4260  0.3329  0.0669
   34MOL  Cl30910935   6.923   5.831   7.663 -0.3322  0.3630  0.1718
   34MOL   C31010936   6.814   5.587   7.686 -0.1036  0.5867 -0.2502
   34MOL   C31110937   6.782   5.460   7.635  0.3971  0.1301  0.3742
   34MOL   C31210938   6.787   5.439   7.497 -0.2325 -0.4445  0.3829
   34MOL   C31310939   6.828   5.539   7.402 -0.6882 -0.0180 -0.2755
   34MOL   C31410940   6.824   5.765   7.219  0.7086  0.1639 -0.0166
   34MOL   H31510941   6.893   5.869   7.393 -3.4698  0.2255 -1.7263
   34MOL   H31610942   6.815   5.610   7.792 -0.3802 -0.0358 -0.1098
   34MOL   H31710943   6.742   5.377   7.690  1.6347 -0.5261  0.3009
   34MOL   H31810944   6.754   5.345   7.453 -0.0225 -1.0749  1.5415
   34MOL   H31910945   6.823   5.510   7.299  0.9564 -1.4092  0.0179
   34MOL   H32010946   6.841   5.846   7.148 -1.2812 -0.9657 -1.8670
   34MOL   H32110947   6.719   5.764   7.249  0.6474 -1.3976 -0.2604
   34MOL   H32210948   6.836   5.671   7.165 -0.4332  0.3875 -0.6898
   35MOL     C110949   5.181   8.331   5.319  0.4960  0.4919  0.0152
   35MOL     C210950   5.226   0.007   5.200 -0.6521 -0.4565  0.5153
   35MOL     C310951   5.129   0.093   5.146 -0.1040  0.2047 -0.0812
   35MOL    Cl410952   4.971   0.110   5.214  0.2657  0.2858 -0.1549
   35MOL     C510953   5.167   0.172   5.031  0.4722  0.6152  0.5932
   35MOL     C610954   5.300   0.170   4.977  0.4527 -0.1936 -0.6407
   35MOL     C710955   5.399   0.085   5.032  0.7523  0.0645  0.1476
   35MOL     C810956   5.356   8.420   5.143  0.7077 -0.7363  0.0128
   35MOL     C910957   5.163   8.180   5.272 -0.2324 -0.1800  0.1790
   35MOL    H1010958   5.266   8.335   5.387  1.3116  0.9657 -1.0284
   35MOL    H1110959   5.101   0.247   4.991  0.6774  0.4804  0.0006
   35MOL    H1210960   5.316   0.241   4.897  1.9234  0.3598  0.1292
   35MOL    H1310961   5.499   0.086   4.992  0.1977 -0.9707 -1.2824
   35MOL    H1410962   5.423   8.346   5.184  0.6980 -2.1573 -2.4153
   35MOL    H1510963   5.245   8.135   5.216 -2.4167 -1.7800 -1.8452
   35MOL    H1610964   5.074   8.192   5.210 -0.8248  0.3366  1.0997
   35MOL    H1710965   5.089   8.359   5.370  0.7433 -0.5102  1.0592
   35MOL    C1810966   5.127   8.096   5.397  0.4447  0.1948  0.7241
   35MOL    C1910967   5.221   8.117   5.517 -0.1422 -0.4197  0.1063
   35MOL    C2010968   5.178   8.140   5.651  0.3933 -0.1153 -0.2432
   35MOL   Cl2110969   5.012   8.158   5.685 -0.1561  0.2095  0.3844
   35MOL    C2210970   5.268   8.168   5.755  0.2513  0.3630 -0.6585
   35MOL    C2310971   5.409   8.142   5.737  0.1678 -0.5918 -0.6666
   35MOL    C2410972   5.448   8.116   5.606 -0.7726  0.5646  0.2826
   35MOL    C2510973   5.360   8.108   5.500  0.5684 -0.2627 -0.2694
   35MOL    C2610974   5.130   7.947   5.361  0.0999 -0.4491  0.3595
   35MOL    H2710975   5.027   8.127   5.429  0.8125 -0.1707  2.2759
   35MOL    H2810976   5.234   8.193   5.854  0.7953  0.7001 -0.5509
   35MOL    H2910977   5.471   8.130   5.824 -0.9273 -3.9551 -0.2686
   35MOL    H3010978   5.549   8.098   5.573 -0.1303  0.9823  1.9297
   35MOL    H3110979   5.396   8.090   5.400  1.9148  1.0737 -0.0554
   35MOL    H3210980   5.230   7.933   5.320 -0.0225  2.6862 -1.1561
   35MOL    H3310981   5.071   7.929   5.272  1.3957 -1.4761 -0.3158
   35MOL    C3410982   5.085   7.841   5.466  0.3198  0.1859 -0.4675
   35MOL    C3510983   5.208   7.768   5.529  0.0899 -0.4813  0.6534
   35MOL    C3610984   5.292   7.687   5.453 -0.5111 -0.3351 -0.8101
   35MOL   Cl3710985   5.270   7.664   5.288 -0.1304  0.0919  0.0640
   35MOL    C3810986   5.402   7.628   5.510  0.3654 -0.0084  0.1741
   35MOL    C3910987   5.445   7.671   5.639 -0.2834 -0.1602  0.1351
   35MOL    C4010988   5.364   7.758   5.714 -0.1945 -0.4096 -0.8232
   35MOL    C4110989   5.242   7.799   5.661  0.1514  0.4394  0.4599
   35MOL    C4210990   4.984   7.736   5.407  0.2436 -0.1773 -0.5538
   35MOL    H4310991   5.034   7.886   5.551  2.4273 -2.0552  2.0717
   35MOL    H4410992   5.465   7.562   5.453  2.0122  1.5625  0.1112
   35MOL    H4510993   5.530   7.619   5.682 -1.7542 -1.6250  1.3084
   35MOL    H4610994   5.390   7.787   5.815  0.3062  2.3959 -1.7027
   35MOL    H4710995   5.182   7.865   5.722 -1.5775 -0.5018 -0.1787
   35MOL    H4810996   5.004   7.639   5.452 -0.4234  0.8576  2.0620
   35MOL    H4910997   5.000   7.718   5.301  1.4061 -1.6505 -0.1464
   35MOL    C5010998   4.829   7.770   5.414 -0.3410 -0.3139 -0.2696
   35MOL    C5110999   4.754   7.680   5.312 -0.6800 -0.3401  0.0828
   35MOL    C5211000   4.660   7.581   5.351 -0.0642 -0.6495 -0.0622
   35MOL   Cl5311001   4.620   7.547   5.514  0.3355  0.3222  0.1818
   35MOL    C5411002   4.577   7.516   5.260  0.2085 -0.4715  0.3602
   35MOL    C5511003   4.587   7.539   5.123  0.8142  0.7401 -0.0788
   35MOL    C5611004   4.681   7.635   5.081  0.3838  0.2667 -0.5070
   35MOL    C5711005   4.766   7.699   5.174 -0.1347  0.1035 -0.3627
   35MOL    C5811006   4.791   7.917   5.401  0.3589  0.1594 -0.0212
   35MOL    H5911007   4.801   7.739   5.515 -0.6511  0.4941 -0.1061
   35MOL    H6011008   4.505   7.441   5.290  0.1729 -1.0327 -1.0884
   35MOL    H6111009   4.523   7.490   5.051  0.7661 -1.8403  1.6505
   35MOL    H6211010   4.700   7.658   4.977 -1.5630 -2.7488 -1.6187
   35MOL    H6311011   4.838   7.771   5.139 -0.5238  0.6886  0.0275
   35MOL    H6411012   4.837   7.951   5.308  0.7514 -0.9955 -0.2604
   35MOL    H6511013   4.849   7.975   5.472  2.0247  0.2724 -1.4172
   35MOL    C6611014   4.643   7.962   5.402  0.6855 -0.0219 -0.6685
   35MOL    C6711015   4.640   8.100   5.335 -0.3410  0.6038  0.5300
   35MOL    C6811016   4.605   8.121   5.200 -0.3801  0.1100  0.6597
   35MOL   Cl6911017   4.567   7.982   5.104  0.2920  0.1408 -0.1354
   35MOL    C7011018   4.617   8.250   5.144 -0.0607  0.2159  0.8431
   35MOL    C7111019   4.655   8.359   5.222  1.2340  0.0545 -0.6266
   35MOL    C7211020   4.704   8.333   5.353  0.0161  0.0548  0.1385
   35MOL    C7311021   4.694   8.208   5.410  0.6477 -0.7071 -0.3948
   35MOL    C7411022   4.589   7.964   5.548  0.2262  0.0200 -0.0037
   35MOL    H7511023   4.578   7.902   5.337  1.2375 -2.0353  0.5845
   35MOL    H7611024   4.606   8.268   5.038 -1.4137 -0.3921  0.8704
   35MOL    H7711025   4.661   0.031   5.166  0.5470  0.2570 -0.3654
   35MOL    H7811026   4.756   8.415   5.401  0.1486  1.4651 -2.3085
   35MOL    H7911027   4.738   8.180   5.505 -0.7934  1.1295  0.8365
   35MOL    H8011028   4.645   8.038   5.605 -0.8229  0.0553  1.0048
   35MOL    H8111029   4.609   7.874   5.606 -0.4864 -0.3552 -0.3353
   35MOL    C8211030   4.443   8.003   5.578 -0.1505  0.2429 -0.3170
   35MOL    C8311031   4.435   8.031   5.731 -0.6672 -0.5266  0.0965
   35MOL    C8411032   4.448   8.165   5.777  0.4998 -0.4833  0.5423
   35MOL   Cl8511033   4.473   8.297   5.665 -0.2624  0.4637 -0.2009
   35MOL    C8611034   4.424   8.192   5.912 -0.3805 -0.5023 -0.3080
   35MOL    C8711035   4.394   8.093   5.999  0.1992  0.1868 -0.4488
   35MOL    C8811036   4.401   7.957   5.958 -0.5149 -0.5963  0.1869
   35MOL    C8911037   4.421   7.925   5.825  0.7766  0.1440 -0.1056
   35MOL    C9011038   4.356   7.884   5.529 -0.0224 -0.2865  0.3134
   35MOL    H9111039   4.424   8.097   5.527  0.4221  0.8195  0.5221
   35MOL    H9211040   4.417   8.296   5.939 -1.4582 -0.6426 -0.0374
   35MOL    H9311041   4.379   8.113   6.104  2.5973  0.1849 -0.0877
   35MOL    H9411042   4.398   7.871   6.023  0.2076 -1.0311 -0.3400
   35MOL    H9511043   4.410   7.822   5.794  2.3892  0.9585 -3.6114
   35MOL    H9611044   4.362   7.799   5.597 -0.7215 -0.0509  0.6674
   35MOL    H9711045   4.404   7.837   5.443 -1.1766  0.5485 -0.7870
   35MOL    C9811046   4.213   7.917   5.485  0.7140 -0.4886 -0.0858
   35MOL    C9911047   4.133   7.782   5.463  0.0956  0.1823 -0.2625
   35MOL   C10011048   4.027   7.748   5.548  0.4402 -0.0447 -0.3484
   35MOL  Cl10111049   3.945   7.871   5.641  0.4010  0.2722 -0.3925
   35MOL   C10211050   3.972   7.617   5.542 -0.6089  0.3058  0.4919
   35MOL   C10311051   4.036   7.518   5.453  0.0197 -0.7722  0.5669
   35MOL   C10411052   4.133   7.562   5.363 -0.4724  0.2911  0.2145
   35MOL   C10511053   4.184   7.690   5.372 -0.0663 -0.4464  0.1184
   35MOL   C10611054   4.224   7.996   5.355 -0.0465  0.1371 -0.0987
   35MOL   H10711055   4.156   7.977   5.556  0.2409 -1.5343  0.4197
   35MOL   H10811056   3.889   7.589   5.605  0.1953 -2.2457  0.4978
   35MOL   H10911057   4.005   7.415   5.461 -2.3281 -0.2736 -1.3968
   35MOL   H11011058   4.187   7.494   5.299  1.4107  3.2334 -1.4311
   35MOL   H11111059   4.271   7.711   5.311  0.4057 -0.4794  0.7736
   35MOL   H11211060   4.168   7.948   5.275  1.0259 -0.0993 -0.7141
   35MOL   H11311061   4.326   7.994   5.316 -0.3293  2.7561 -1.1275
   35MOL   C11411062   4.183   8.144   5.364  0.4444 -1.0009 -0.8503
   35MOL   C11511063   4.034   8.150   5.399 -0.4448 -0.0571  0.0056
   35MOL   C11611064   3.986   8.221   5.505 -0.3788  0.5066  0.5385
   35MOL  Cl11711065   4.087   8.295   5.616 -0.1559 -0.0474  0.0408
   35MOL   C11811066   3.849   8.239   5.525  0.0698 -1.0956  0.1008
   35MOL   C11911067   3.756   8.179   5.439  0.3739  0.4250 -0.5045
   35MOL   C12011068   3.800   8.100   5.330 -0.3375  0.4311  0.0569
   35MOL   C12111069   3.937   8.089   5.309 -0.3892  0.0161  0.2399
   35MOL   C12211070   4.207   8.228   5.238 -0.5307  0.3464 -0.2899
   35MOL   H12311071   4.249   8.181   5.443 -2.4619  0.5936  0.9216
   35MOL   H12411072   3.816   8.294   5.612  2.9593 -1.3845  1.4337
   35MOL   H12511073   3.654   8.184   5.473  0.9015 -2.5434  1.7994
   35MOL   H12611074   3.729   8.066   5.256  0.6351 -1.6253  0.0367
   35MOL   H12711075   3.968   8.037   5.220 -0.0212 -2.9960  2.0572
   35MOL   H12811076   4.156   8.170   5.160 -1.6501  0.5391  0.2926
   35MOL   H12911077   4.313   8.223   5.211 -0.5219  1.6016 -0.5363
   35MOL   C13011078   4.168   8.376   5.242 -0.0418 -0.1362  0.0586
   35MOL   C13111079   4.152   0.004   5.099 -0.2867 -0.5527 -0.2448
   35MOL   C13211080   4.020   0.019   5.046 -0.4715  0.7395 -0.4174
   35MOL  Cl13311081   3.878   8.382   5.125  0.0912 -0.0916  0.4950
   35MOL   C13411082   3.997   0.055   4.909  0.0996 -0.4506  0.7259
   35MOL   C13511083   4.113   0.067   4.827  0.6250  0.4352  0.1536
   35MOL   C13611084   4.245   0.050   4.880 -0.0390 -0.6979  0.5284
   35MOL   C13711085   4.267   0.016   5.019 -0.1059  0.2855  0.1658
   35MOL   C13811086   4.279   0.034   5.330 -0.4528 -0.4347 -0.6772
   35MOL   H13911087   4.075   8.395   5.297 -1.3161  0.8536 -2.3568
   35MOL   H14011088   3.898   0.062   4.866  0.7519 -0.1226 -0.7298
   35MOL   H14111089   4.094   0.084   4.722 -2.5285  0.4255  0.6547
   35MOL   H14211090   4.321   0.069   4.805 -1.5991  1.3140 -0.6112
   35MOL   H14311091   4.367   0.006   5.056  0.3555  0.0774 -1.0987
   35MOL   H14411092   4.378   8.415   5.308  0.8054  2.2099 -0.0319
   35MOL   H14511093   4.271   0.001   5.433  1.3425  0.2669 -0.2859
   35MOL   C14611094   4.291   0.192   5.326 -0.2135 -0.0197 -0.1781
   35MOL   C14711095   4.438   0.227   5.367 -0.5603  0.8448  0.3644
   35MOL   C14811096   4.532   0.281   5.270  0.1891  0.4889 -0.4307
   35MOL  Cl14911097   4.485   0.297   5.106 -0.4934  0.1792 -0.1257
   35MOL   C15011098   4.663   0.300   5.296 -0.5311  0.5478  0.1790
   35MOL   C15111099   4.706   0.275   5.429 -0.8276 -1.7435  0.3240
   35MOL   C15211100   4.621   0.221   5.525  0.2160 -0.0353 -0.1069
   35MOL   C15311101   4.482   0.212   5.498 -0.1805  0.7484  0.4732
   35MOL   C15411102   4.187   0.254   5.422 -0.7589  0.3783  0.3196
   35MOL   H15511103   4.265   0.222   5.224 -0.3385 -1.8305 -0.6935
   35MOL   H15611104   4.736   0.325   5.220 -0.7167 -1.0287 -0.5268
   35MOL   H15711105   4.810   0.284   5.456 -1.0354  2.0883  0.1138
   35MOL   H15811106   4.649   0.189   5.624 -2.7563 -1.9463  0.1779
   35MOL   H15911107   4.421   0.165   5.574 -2.5317  2.0561 -0.5897
   35MOL   H16011108   4.195   0.203   5.518 -0.1723  0.1177  0.1368
   35MOL   H16111109   4.087   0.235   5.384 -1.2381  0.9830  1.2749
   35MOL   C16211110   4.187   0.410   5.444  0.4800 -0.3237  1.0162
   35MOL   C16311111   4.296   0.448   5.549  0.9866 -0.4870  0.5554
   35MOL   C16411112   4.405   0.537   5.521  1.0473 -0.7563  0.1816
   35MOL  Cl16511113   4.433   0.606   5.361  0.3161 -0.0399  0.2068
   35MOL   C16611114   4.493   0.571   5.630  0.1063 -0.5294  0.2650
   35MOL   C16711115   4.466   0.528   5.762  0.5812  0.9890 -0.2343
   35MOL   C16811116   4.363   0.432   5.784  0.3070 -0.0517 -0.7210
   35MOL   C16911117   4.274   0.408   5.679  0.0775 -0.1831 -0.0066
   35MOL   C17011118   4.048   0.462   5.476  0.2402  0.0875  0.0173
   35MOL   H17111119   4.215   0.452   5.348  0.0675 -1.7298  0.2671
   35MOL   H17211120   4.572   0.640   5.606  0.8323  0.0176  3.9233
   35MOL   H17311121   4.527   0.550   5.848 -1.4399  1.8547  1.0122
   35MOL   H17411122   4.348   0.394   5.884  2.4500 -2.3693 -1.2229
   35MOL   H17511123   4.191   0.340   5.689 -0.9331  0.9721 -0.3764
   35MOL   H17611124   4.001   0.387   5.540 -1.0220  0.5991 -0.3072
   35MOL   H17711125   3.986   0.463   5.386  0.6218 -0.1224 -0.2496
   35MOL   C17811126   4.033   0.608   5.533  0.5857  0.0337  0.9725
   35MOL   C17911127   3.897   0.630   5.598  0.7214  0.1694  0.0634
   35MOL   C18011128   3.889   0.623   5.740 -0.4714 -0.1420 -0.5351
   35MOL  Cl18111129   4.026   0.592   5.844 -0.0676  0.0445  0.0403
   35MOL   C18211130   3.760   0.652   5.799 -0.4222 -0.2433  0.0333
   35MOL   C18311131   3.641   0.680   5.727 -0.0959 -0.2220  0.7911
   35MOL   C18411132   3.650   0.690   5.585 -0.6363 -0.3669 -0.0057
   35MOL   C18511133   3.776   0.658   5.528  0.5859 -0.5576 -0.3086
   35MOL   C18611134   4.060   0.725   5.443  0.2937  0.4912 -0.3324
   35MOL   H18711135   4.107   0.614   5.613 -0.1205 -2.8725  1.9087
   35MOL   H18811136   3.753   0.649   5.906 -1.0470  1.8400  0.0790
   35MOL   H18911137   3.552   0.704   5.783 -0.4399  1.4489 -0.4448
   35MOL   H19011138   3.564   0.715   5.524 -0.2963  1.9172  0.3932
   35MOL   H19111139   3.786   0.676   5.423 -1.2706  2.4643 -0.0215
   35MOL   H19211140   3.971   0.732   5.381  0.1755  0.2198 -0.1932
   35MOL   H19311141   4.142   0.696   5.377 -0.5797 -0.3422 -1.0692
   35MOL   C19411142   4.075   0.858   5.518  0.1235  0.2181 -0.5204
   35MOL   C19511143   4.008   0.978   5.456 -1.1479 -0.6857 -0.0325
   35MOL   C19611144   3.910   1.045   5.532 -0.1775  0.2162 -0.0656
   35MOL  Cl19711145   3.842   0.995   5.684  0.0476  0.5204 -0.2982
   35MOL   C19811146   3.844   1.159   5.472  0.1352  0.0866  0.3773
   35MOL   C19911147   3.887   1.209   5.352 -1.1857 -0.3213 -0.4719
   35MOL   C20011148   3.976   1.137   5.271 -0.4259  0.2019 -0.6383
   35MOL   C20111149   4.041   1.022   5.322  0.3951  0.7210  0.4494
   35MOL   C20211150   4.226   0.895   5.531  0.3721  0.2541 -0.2617
   35MOL   H20311151   4.038   0.852   5.621 -1.8750  0.0730 -1.2300
   35MOL   H20411152   3.751   1.196   5.513  0.2908  0.5204  0.3396
   35MOL   H20511153   3.827   1.287   5.308 -0.3739  0.9041  0.5610
   35MOL   H20611154   4.004   1.169   5.172 -1.4595  2.0387 -0.3519
   35MOL   H20711155   4.111   0.970   5.259  0.6013  0.8690  0.5559
   35MOL   H20811156   4.259   0.954   5.446 -0.7129 -0.2554 -1.0410
   35MOL   H20911157   4.290   0.807   5.521  0.6320  0.4938 -0.7227
   35MOL   C21011158   4.251   0.970   5.669  0.0711  0.0488 -0.4899
   35MOL   C21111159   4.381   1.064   5.647  0.5837  0.5994  0.2440
   35MOL   C21211160   4.401   1.181   5.724 -0.3522  0.2767 -0.2478
   35MOL  Cl21311161   4.268   1.246   5.815  0.0190  0.0523 -0.0781
   35MOL   C21411162   4.527   1.248   5.715  0.8017  0.3951 -0.2143
   35MOL   C21511163   4.632   1.189   5.631 -0.5193 -0.0208 -0.1652
   35MOL   C21611164   4.608   1.073   5.559  0.4427 -0.2196 -0.0179
   35MOL   C21711165   4.484   1.013   5.565  0.2714 -0.0598  0.1583
   35MOL   C21811166   4.283   0.868   5.785  0.3046  0.2137 -0.4971
   35MOL   H21911167   4.165   1.035   5.687  0.1554 -0.2775  1.2217
   35MOL   H22011168   4.550   1.339   5.769  0.6152 -0.7713  1.8674
   35MOL   H22111169   4.736   1.220   5.633 -0.5174  0.1054 -2.0879
   35MOL   H22211170   4.693   1.032   5.507  1.2914  1.5522 -0.0615
   35MOL   H22311171   4.472   0.918   5.514 -1.2932  0.3263 -0.2146
   35MOL   H22411172   4.387   0.839   5.794 -0.2801 -1.7456  0.3156
   35MOL   H22511173   4.222   0.779   5.767  1.7326 -1.0751  0.9092
   35MOL   C22611174   4.248   0.902   5.936 -0.1725  0.0765 -0.4327
   35MOL   C22711175   4.330   0.806   6.028  0.5542 -0.5670  0.9022
   35MOL   C22811176   4.461   0.843   6.077  0.2126  0.3206  0.0880
   35MOL  Cl22911177   4.525   1.003   6.049  0.0241 -0.1792 -0.1256
   35MOL   C23011178   4.534   0.754   6.162 -0.6276  0.3392 -0.0724
   35MOL   C23111179   4.478   0.625   6.192  0.0294 -0.1042  0.2170
   35MOL   C23211180   4.340   0.593   6.154 -0.7384 -0.2302 -0.3103
   35MOL   C23311181   4.277   0.679   6.057 -0.2787  0.5363 -0.5481
   35MOL   C23411182   4.094   0.919   5.966 -0.4929 -0.1298 -0.3007
   35MOL   H23511183   4.284   1.004   5.949  1.6741 -0.3859 -1.7543
   35MOL   H23611184   4.639   0.774   6.181  0.3489 -2.0872 -2.6279
   35MOL   H23711185   4.530   0.546   6.244 -1.7864 -3.4312 -2.7737
   35MOL   H23811186   4.292   0.500   6.178 -0.4816 -0.5003 -0.8264
   35MOL   H23911187   4.180   0.652   6.018 -0.5941  2.3603 -1.0817
   35MOL   H24011188   4.050   0.822   5.942  0.9260 -0.2317 -2.7026
   35MOL   H24111189   4.040   0.984   5.896 -0.6097  1.8160  1.5659
   35MOL   C24211190   4.063   0.951   6.118  0.8600  0.7275  0.3380
   35MOL   C24311191   3.917   0.964   6.140  0.3637  0.8105 -1.1464
   35MOL   C24411192   3.838   0.861   6.191  0.2599  0.2498  0.0613
   35MOL  Cl24511193   3.901   0.710   6.248 -0.0789  0.0861 -0.0381
   35MOL   C24611194   3.705   0.871   6.209  0.4286 -0.4230  0.1013
   35MOL   C24711195   3.640   0.987   6.168 -0.0439  0.0270  0.8601
   35MOL   C24811196   3.713   1.095   6.108 -0.0493 -0.4254  0.4174
   35MOL   C24911197   3.854   1.086   6.102 -0.2461  0.0929 -0.2553
   35MOL   C25011198   4.145   1.068   6.171  0.3220  0.7416 -0.4696
   35MOL   H25111199   4.092   0.859   6.168  0.1936  0.4682  0.2502
   35MOL   H25211200   3.639   0.793   6.243 -0.6337 -0.5186 -2.0839
   35MOL   H25311201   3.533   0.990   6.184 -0.0839 -3.1482  1.6374
   35MOL   H25411202   3.660   1.186   6.083  0.3332  0.4682  2.6986
   35MOL   H25511203   3.909   1.163   6.051  0.4497  0.0524  0.4134
   35MOL   H25611204   4.134   1.155   6.106 -1.7086 -1.1986 -2.8390
   35MOL   H25711205   4.247   1.029   6.173 -0.1015 -0.4425 -1.3379
   35MOL   C25811206   4.108   1.110   6.317 -1.0583 -0.4030 -0.0433
   35MOL   C25911207   4.179   1.237   6.357  0.5010  1.1508 -0.0363
   35MOL   C26011208   4.100   1.347   6.402 -0.8866 -0.2415  0.4985
   35MOL  Cl26111209   3.929   1.353   6.415  0.2068  0.1937 -0.1605
   35MOL   C26211210   4.165   1.463   6.450 -0.2350 -0.2905 -0.5167
   35MOL   C26311211   4.306   1.473   6.445 -0.6609  0.4266 -0.5606
   35MOL   C26411212   4.380   1.365   6.408 -0.1511  0.3328 -0.2210
   35MOL   C26511213   4.319   1.251   6.356  0.0103  0.0300 -0.4625
   35MOL   C26611214   4.140   0.994   6.416  0.2450  0.0677  0.5055
   35MOL   H26711215   4.002   1.138   6.323 -0.3581  2.1176  1.4408
   35MOL   H26811216   4.104   1.537   6.500  1.5977  1.8996 -1.4241
   35MOL   H26911217   4.345   1.570   6.473 -2.5870  2.2202 -3.7194
   35MOL   H27011218   4.488   1.366   6.409 -0.1091 -1.9023  1.0894
   35MOL   H27111219   4.384   1.171   6.326  0.0743 -0.2551  0.4253
   35MOL   H27211220   4.249   0.989   6.420  0.1665 -0.0792  3.1718
   35MOL   H27311221   4.093   0.904   6.376 -0.9526 -0.1726  2.4023
   35MOL   C27411222   4.072   1.023   6.556 -0.2141  0.8253 -0.3710
   35MOL   C27511223   4.135   0.936   6.662  0.2768  0.5911 -0.6156
   35MOL   C27611224   4.201   0.984   6.782  0.3125 -0.1599  0.1775
   35MOL  Cl27711225   4.235   1.152   6.808 -0.5195  0.1042  0.0843
   35MOL   C27811226   4.265   0.897   6.867 -0.5112  0.5650 -0.9649
   35MOL   C27911227   4.257   0.759   6.843 -0.3399  0.3171 -0.1317
   35MOL   C28011228   4.203   0.706   6.728 -0.3901 -0.0047 -0.1522
   35MOL   C28111229   4.131   0.794   6.644  1.0719 -0.4041  0.1839
   35MOL   C28211230   3.915   1.006   6.554 -0.1848 -0.0525 -0.3069
   35MOL   H28311231   4.088   1.127   6.584 -2.6330  0.7399  1.5284
   35MOL   H28411232   4.320   0.943   6.948 -1.6815 -0.8009  0.6379
   35MOL   H28511233   4.317   0.696   6.908  0.7695  1.8404  0.3696
   35MOL   H28611234   4.205   0.600   6.703 -3.0499  0.1381 -1.2058
   35MOL   H28711235   4.070   0.769   6.558  2.7547 -0.6925 -0.9658
   35MOL   H28811236   3.875   0.907   6.534 -0.3335 -0.5079  2.0770
   35MOL   H28911237   3.874   1.067   6.473  1.9938 -0.9962 -2.1774
   35MOL   C29011238   3.851   1.050   6.689 -0.3465 -0.2417 -0.2404
   35MOL   C29111239   3.829   0.944   6.797 -0.1800 -0.1779  0.4825
   35MOL   C29211240   3.878   0.951   6.931 -0.0446 -0.1519 -0.2408
   35MOL  Cl29311241   3.962   1.090   7.003 -0.1326  0.0743 -0.0121
   35MOL   C29411242   3.845   0.849   7.019  0.3395 -0.5322 -0.2625
   35MOL   C29511243   3.776   0.736   6.983  0.7498 -0.0121 -0.1180
   35MOL   C29611244   3.734   0.724   6.846  0.1919 -0.2280  0.3839
   35MOL   C29711245   3.763   0.829   6.755 -0.2590 -0.7772 -0.0763
   35MOL   C29811246   3.723   1.117   6.661 -0.0685 -0.2712 -0.1453
   35MOL   H29911247   3.907   1.131   6.735 -1.5670  0.6798 -0.3287
   35MOL   H30011248   3.881   0.835   7.120 -0.7331  0.9255  0.3312
   35MOL   H30111249   3.754   0.656   7.052  1.3623 -1.4272 -1.5377
   35MOL   H30211250   3.674   0.639   6.819 -1.7974  0.3749  2.6719
   35MOL   H30311251   3.725   0.838   6.654 -1.1706  0.8106  0.3974
   35MOL   H30411252   3.667   1.061   6.587 -0.3273 -0.5608  0.2696
   35MOL   H30511253   3.734   1.210   6.605  0.3315 -0.0477  0.2873
   35MOL   C30611254   3.628   1.166   6.774  0.0961  0.0144 -0.1409
   35MOL   C30711255   3.489   1.202   6.719  0.2028 -0.3994  0.2925
   35MOL   C30811256   3.385   1.097   6.698 -0.1450  0.3447 -0.6974
   35MOL  Cl30911257   3.421   0.930   6.724  0.2968 -0.3103 -0.2170
   35MOL   C31011258   3.266   1.127   6.641  0.7312  0.2814  0.5812
   35MOL   C31111259   3.227   1.258   6.617 -0.2045 -0.0858  0.5983
   35MOL   C31211260   3.321   1.360   6.630  0.6980  0.1413  1.2685
   35MOL   C31311261   3.452   1.328   6.670 -0.2156  0.1359  0.3395
   35MOL   C31411262   3.685   1.288   6.842 -0.3382  0.4476  0.0709
   35MOL   H31511263   3.606   1.078   6.834  1.1838 -0.2528 -0.1139
   35MOL   H31611264   3.189   1.052   6.630  2.0503 -0.9774 -0.2237
   35MOL   H31711265   3.123   1.270   6.594  0.1396 -1.1288 -1.5705
   35MOL   H31811266   3.288   1.458   6.599 -0.2537 -0.3332  0.7704
   35MOL   H31911267   3.522   1.410   6.663  2.6865 -2.3119 -0.8250
   35MOL   H32011268   3.709   1.374   6.779 -1.7227 -0.8275 -2.2704
   35MOL   H32111269   3.780   1.264   6.889  0.1520  1.0637 -0.5820
   35MOL   H32211270   3.620   1.337   6.914  0.2754 -0.0566  0.9635
   36MOL     C111271   0.745   7.431   1.817 -1.0318  0.3373  0.7370
   36MOL     C211272   0.726   7.277   1.821 -0.4470  0.2622  0.0285
   36MOL     C311273   0.739   7.208   1.700  1.4382 -0.0919  0.4686
   36MOL    Cl411274   0.783   7.291   1.553  0.0791  0.1112 -0.2284
   36MOL     C511275   0.707   7.066   1.696 -0.3175 -0.0812  0.6159
   36MOL     C611276   0.680   7.002   1.819  0.5287  0.1038 -0.1425
   36MOL     C711277   0.677   7.071   1.939 -0.3545 -0.0203  0.9698
   36MOL     C811278   0.707   7.208   1.936 -0.1162 -0.0529 -0.2279
   36MOL     C911279   0.885   7.480   1.858 -0.2697 -0.1742  0.5333
   36MOL    H1011280   0.710   7.478   1.725  1.6300  2.5547  0.7788
   36MOL    H1111281   0.698   7.020   1.599 -1.9089 -2.5111  1.8531
   36MOL    H1211282   0.654   6.897   1.815 -0.4155  0.3260  0.0644
   36MOL    H1311283   0.666   7.024   2.036 -1.8995 -2.5133 -0.3677
   36MOL    H1411284   0.712   7.256   2.033  1.8127  0.6086 -0.6234
   36MOL    H1511285   0.956   7.435   1.789 -1.0006 -1.0412  0.3353
   36MOL    H1611286   0.898   7.438   1.957  0.3825 -0.3403  0.3791
   36MOL    H1711287   0.678   7.480   1.888 -1.2054  0.9607  0.1521
   36MOL    C1811288   0.893   7.639   1.871  0.3907  0.3334  0.5879
   36MOL    C1911289   0.885   7.705   1.733  0.6930 -0.2531 -0.9011
   36MOL    C2011290   0.788   7.806   1.704  0.1062 -0.0955 -0.2004
   36MOL   Cl2111291   0.653   7.834   1.807 -0.0202 -0.2093  0.0041
   36MOL    C2211292   0.794   7.872   1.582  0.3633  0.1392 -0.3636
   36MOL    C2311293   0.899   7.848   1.496 -0.1464  0.5437  0.2388
   36MOL    C2411294   0.989   7.740   1.508  0.1672  0.8236 -0.1014
   36MOL    C2511295   0.982   7.672   1.633  0.4783 -0.2600 -0.0025
   36MOL    C2611296   1.006   7.686   1.960  0.5835 -0.2499 -0.1568
   36MOL    H2711297   0.801   7.649   1.929 -1.5022 -0.3861 -2.1950
   36MOL    H2811298   0.722   7.950   1.560  0.7448  0.5150 -0.2817
   36MOL    H2911299   0.907   7.898   1.401  0.0233 -1.4266 -0.8061
   36MOL    H3011300   1.053   7.707   1.428 -0.4443 -0.6528  0.0070
   36MOL    H3111301   1.036   7.580   1.652  0.0319 -0.1768  1.7876
   36MOL    H3211302   1.098   7.687   1.902 -0.1671  0.6198 -1.3364
   36MOL    H3311303   1.017   7.608   2.035 -1.5101  1.0164  1.5146
   36MOL    C3411304   0.985   7.827   2.021 -0.2395 -0.0562 -0.4222
   36MOL    C3511305   1.107   7.910   1.987 -0.2332 -0.8055  0.3936
   36MOL    C3611306   1.098   8.020   1.903  0.2558 -0.5449 -0.2322
   36MOL   Cl3711307   0.947   8.062   1.833 -0.2527  0.2848  0.0460
   36MOL    C3811308   1.210   8.089   1.857  0.1363  0.9195 -0.4486
   36MOL    C3911309   1.338   8.036   1.894  0.4687  0.0744 -0.3584
   36MOL    C4011310   1.351   7.926   1.988 -0.2888 -0.4953  0.4628
   36MOL    C4111311   1.236   7.868   2.031 -0.0846  0.3653 -0.5098
   36MOL    C4211312   0.964   7.836   2.169 -0.2846  0.4061 -0.4369
   36MOL    H4311313   0.901   7.862   1.961  0.0034  0.1900 -0.6200
   36MOL    H4411314   1.195   8.171   1.788 -1.5927  0.6817 -0.3756
   36MOL    H4511315   1.424   8.088   1.855 -1.6335  1.8647 -2.8053
   36MOL    H4611316   1.448   7.887   2.013  1.1907  1.7869 -1.4568
   36MOL    H4711317   1.247   7.788   2.103 -1.8931  1.5920  1.1959
   36MOL    H4811318   0.966   7.941   2.199 -2.9988  0.4137 -0.1711
   36MOL    H4911319   1.052   7.791   2.214 -1.6824 -0.4003  1.6060
   36MOL    C5011320   0.831   7.774   2.228 -0.2185  0.0681 -0.2362
   36MOL    C5111321   0.705   7.832   2.166 -0.1180 -0.8647 -0.2297
   36MOL    C5211322   0.587   7.758   2.148 -0.1359  0.0271  0.1457
   36MOL   Cl5311323   0.569   7.590   2.196 -0.1508 -0.1719 -0.0885
   36MOL    C5411324   0.472   7.826   2.097 -0.0138 -0.1339  0.5286
   36MOL    C5511325   0.480   7.959   2.055 -0.2453  0.5163 -0.1691
   36MOL    C5611326   0.600   8.033   2.073  0.6197  0.7268 -0.4128
   36MOL    C5711327   0.710   7.970   2.129  0.6355 -0.3653 -0.1598
   36MOL    C5811328   0.818   7.799   2.377  0.0152 -0.5006  0.0751
   36MOL    H5911329   0.828   7.666   2.213  4.0149  0.0707 -1.9229
   36MOL    H6011330   0.387   7.763   2.078  1.6976 -2.6461  0.9161
   36MOL    H6111331   0.402   8.010   2.001  0.2931 -0.9465 -2.3682
   36MOL    H6211332   0.615   8.132   2.032 -0.2788  1.2174  0.4247
   36MOL    H6311333   0.797   8.029   2.155 -0.0727  0.4487  0.3697
   36MOL    H6411334   0.714   7.790   2.406 -0.1661  1.6136  0.1471
   36MOL    H6511335   0.851   7.902   2.391 -0.7664 -0.0735 -1.2062
   36MOL    C6611336   0.898   7.706   2.477 -0.3980 -0.0601  0.8188
   36MOL    C6711337   0.873   7.560   2.477 -0.4395  0.0309  0.2579
   36MOL    C6811338   0.959   7.461   2.413  0.0384  1.2775  0.8758
   36MOL   Cl6911339   1.095   7.519   2.319 -0.2085 -0.0091 -0.2402
   36MOL    C7011340   0.935   7.321   2.419 -0.1315 -0.1657 -0.5914
   36MOL    C7111341   0.821   7.283   2.489  0.2336  0.0788  0.0100
   36MOL    C7211342   0.735   7.374   2.554  0.2398  0.2210 -0.0633
   36MOL    C7311343   0.762   7.511   2.552  1.0012 -0.2384  0.4528
   36MOL    C7411344   0.907   7.770   2.622  0.4094  1.0800  0.8091
   36MOL    H7511345   0.998   7.722   2.436 -0.7827 -1.7101 -0.8046
   36MOL    H7611346   1.001   7.248   2.376  0.4581  0.1752 -0.2772
   36MOL    H7711347   0.802   7.177   2.492 -0.8257  0.2732  0.1083
   36MOL    H7811348   0.643   7.350   2.605 -0.7918 -2.1194 -2.9155
   36MOL    H7911349   0.696   7.577   2.605 -0.8946 -2.1956  0.6099
   36MOL    H8011350   0.955   7.694   2.683  1.3128  0.0001 -1.1919
   36MOL    H8111351   0.804   7.780   2.656 -0.0359 -2.3091  0.6792
   36MOL    C8211352   0.989   7.900   2.643  0.2588 -0.5118 -0.4318
   36MOL    C8311353   1.112   7.919   2.553 -0.4094  0.7969 -0.0682
   36MOL    C8411354   1.126   8.027   2.462 -0.9102  0.6484 -0.3553
   36MOL   Cl8511355   1.001   8.147   2.430  0.2667 -0.0767  0.1350
   36MOL    C8611356   1.239   8.025   2.375 -0.0022 -0.0415  0.2506
   36MOL    C8711357   1.344   7.928   2.393 -0.3870  0.2090  0.4038
   36MOL    C8811358   1.337   7.833   2.494  0.3651 -0.4644  0.1880
   36MOL    C8911359   1.214   7.823   2.561  0.1420  0.6346 -0.3492
   36MOL    C9011360   1.039   7.907   2.790 -0.5689  0.3354 -0.5963
   36MOL    H9111361   0.923   7.986   2.630  3.1835  1.5405 -2.3803
   36MOL    H9211362   1.256   8.110   2.311  2.4749 -0.4724  0.2767
   36MOL    H9311363   1.429   7.945   2.328 -0.5563  2.5430  0.7353
   36MOL    H9411364   1.408   7.753   2.508 -1.2302 -1.6092  2.1099
   36MOL    H9511365   1.205   7.733   2.620  1.9477  0.8022  0.2036
   36MOL    H9611366   1.089   8.004   2.790 -1.9146  1.0385 -1.5420
   36MOL    H9711367   1.119   7.835   2.811  1.5447  2.6128 -0.4870
   36MOL    C9811368   0.936   7.918   2.893  0.6041 -0.0417  0.0339
   36MOL    C9911369   0.846   8.046   2.887 -0.5892 -0.2767 -0.0824
   36MOL   C10011370   0.705   8.040   2.864 -0.3094 -0.1892 -0.2617
   36MOL  Cl10111371   0.620   7.895   2.816 -0.3263 -0.5466 -0.2092
   36MOL   C10211372   0.626   8.164   2.872 -0.0688 -0.1814  0.4365
   36MOL   C10311373   0.691   8.282   2.903 -0.9116  0.1277 -0.7225
   36MOL   C10411374   0.830   8.292   2.909 -0.2580 -0.4425  0.5959
   36MOL   C10511375   0.905   8.174   2.907 -1.1854  0.7279  0.3277
   36MOL   C10611376   0.992   7.880   3.032 -0.2217  0.3854 -0.2449
   36MOL   H10711377   0.868   7.837   2.869  2.1760 -1.3315 -0.1162
   36MOL   H10811378   0.518   8.169   2.866  0.0809  0.3357 -2.3703
   36MOL   H10911379   0.629   8.370   2.909  0.9284  1.3607  0.9948
   36MOL   H11011380   0.878   8.387   2.924  1.4402 -1.0897 -0.5268
   36MOL   H11111381   1.013   8.186   2.914 -0.9101 -1.3623 -0.0897
   36MOL   H11211382   1.071   7.946   3.069  1.6126  0.0436 -3.3630
   36MOL   H11311383   1.047   7.787   3.016 -0.0616  0.2515  0.9862
   36MOL   C11411384   0.882   7.839   3.143 -0.9696  0.3909 -0.1676
   36MOL   C11511385   0.802   7.956   3.206 -0.5186  0.0526  1.1463
   36MOL   C11611386   0.670   7.942   3.244 -0.4405 -0.3029  0.6234
   36MOL  Cl11711387   0.577   7.806   3.194 -0.2930 -0.2416 -0.0185
   36MOL   C11811388   0.607   8.035   3.324 -0.3505 -0.0703  0.8276
   36MOL   C11911389   0.677   8.152   3.362  0.1819 -0.4518 -0.3408
   36MOL   C12011390   0.813   8.161   3.328 -0.7115 -0.2235 -0.6308
   36MOL   C12111391   0.879   8.068   3.250 -0.7771  0.6413 -0.1019
   36MOL   C12211392   0.957   7.765   3.261 -0.2609  1.4313  0.1707
   36MOL   H12311393   0.816   7.768   3.094 -1.5938 -0.4439  1.8372
   36MOL   H12411394   0.501   8.023   3.343 -0.3345  0.2024  1.0926
   36MOL   H12511395   0.639   8.230   3.427  0.0169  0.1681 -1.1849
   36MOL   H12611396   0.863   8.244   3.377  0.3193 -1.7808  1.0258
   36MOL   H12711397   0.987   8.078   3.247 -0.7415  0.4711  0.4939
   36MOL   H12811398   0.987   7.847   3.327  0.7526  0.2510  1.2031
   36MOL   H12911399   1.056   7.731   3.230 -0.8797  0.5653 -0.8780
   36MOL   C13011400   0.887   7.653   3.332  0.3039 -0.1286 -0.3170
   36MOL   C13111401   0.901   7.675   3.480 -0.4472 -0.0706  0.3942
   36MOL   C13211402   0.786   7.704   3.554 -0.3533 -0.5541 -0.4694
   36MOL  Cl13311403   0.623   7.711   3.507  0.3165 -0.2882 -0.0175
   36MOL   C13411404   0.808   7.733   3.692 -0.3783  0.1656 -0.4581
   36MOL   C13511405   0.935   7.733   3.752 -0.8256  0.0383  0.5217
   36MOL   C13611406   1.044   7.690   3.669  0.8082  0.2293 -0.0708
   36MOL   C13711407   1.024   7.667   3.533  0.2111 -0.7378  0.4106
   36MOL   C13811408   0.928   7.505   3.302  0.6731 -0.5548  0.4183
   36MOL   H13911409   0.785   7.676   3.300  0.3456  0.1684 -0.2363
   36MOL   H14011410   0.722   7.754   3.753 -0.1490  0.6972 -0.3090
   36MOL   H14111411   0.942   7.749   3.858 -1.7739 -2.5877  1.0282
   36MOL   H14211412   1.145   7.677   3.706 -0.2966 -0.3019  2.8694
   36MOL   H14311413   1.103   7.644   3.464 -1.7291 -0.7575 -1.8734
   36MOL   H14411414   0.908   7.438   3.386 -1.9448  0.5150  0.7007
   36MOL   H14511415   1.035   7.507   3.322  0.8703  3.2559 -0.5487
   36MOL   C14611416   0.882   7.440   3.166 -0.3400 -0.3223 -0.5866
   36MOL   C14711417   0.733   7.422   3.148 -0.1039 -0.8344 -0.4425
   36MOL   C14811418   0.666   7.483   3.045  0.1968  0.1058  0.7566
   36MOL  Cl14911419   0.751   7.564   2.916  0.1785 -0.3810 -0.0539
   36MOL   C15011420   0.527   7.454   3.030  0.5192  0.2680  0.6687
   36MOL   C15111421   0.465   7.378   3.128 -0.3774 -0.0313 -0.0954
   36MOL   C15211422   0.534   7.325   3.236  0.6319  0.2592  0.4996
   36MOL   C15311423   0.669   7.339   3.243 -0.0489  0.1173 -0.4394
   36MOL   C15411424   0.946   7.298   3.151 -0.5397 -0.6668  0.4260
   36MOL   H15511425   0.923   7.498   3.084  1.6783  1.2635  1.4767
   36MOL   H15611426   0.464   7.493   2.951  0.4089  0.3958  0.8196
   36MOL   H15711427   0.358   7.359   3.120 -0.1437 -0.7606 -1.7935
   36MOL   H15811428   0.478   7.271   3.311 -1.7006  1.6184 -0.2213
   36MOL   H15911429   0.733   7.299   3.320 -1.2506 -0.6621  0.1676
   36MOL   H16011430   0.884   7.244   3.080 -1.3235  0.8990 -0.0957
   36MOL   H16111431   0.941   7.241   3.244  0.3424 -1.5988 -0.0760
   36MOL   C16211432   1.099   7.291   3.121  0.6323  0.6380 -0.0097
   36MOL   C16311433   1.154   7.393   3.017 -0.3522  0.6199 -0.4064
   36MOL   C16411434   1.252   7.488   3.055 -0.2642 -0.4945  0.6893
   36MOL  Cl16511435   1.316   7.513   3.217  0.0491 -0.3635 -0.1446
   36MOL   C16611436   1.322   7.560   2.956  0.5926 -0.2066 -1.2625
   36MOL   C16711437   1.286   7.554   2.823 -0.0814 -0.4048 -0.1331
   36MOL   C16811438   1.173   7.478   2.787 -0.5543 -0.2127 -0.2401
   36MOL   C16911439   1.112   7.396   2.882  0.0083  0.8616 -0.5763
   36MOL   C17011440   1.128   7.145   3.079  0.0141 -1.0232  0.1797
   36MOL   H17111441   1.158   7.305   3.211 -0.1400 -0.8927  0.7532
   36MOL   H17211442   1.399   7.630   2.984  0.9518 -1.3165  0.6314
   36MOL   H17311443   1.324   7.622   2.749  1.9591  0.9281  2.0879
   36MOL   H17411444   1.139   7.462   2.686 -1.4515 -1.4478  0.2476
   36MOL   H17511445   1.030   7.329   2.858 -0.4312  1.5063 -0.8893
   36MOL   H17611446   1.223   7.153   3.025 -0.3877  1.6378 -0.1900
   36MOL   H17711447   1.061   7.112   2.999 -0.8571 -3.4251  1.8653
   36MOL   C17811448   1.134   7.038   3.184 -0.2641 -0.2923 -0.1043
   36MOL   C17911449   1.223   7.073   3.302  0.0514  0.4362  0.4141
   36MOL   C18011450   1.203   7.026   3.435  0.5749  0.0159  0.1263
   36MOL  Cl18111451   1.063   6.923   3.475 -0.2989 -0.0805  0.0436
   36MOL   C18211452   1.284   7.060   3.542  0.5660  0.3550  0.2936
   36MOL   C18311453   1.389   7.149   3.525 -0.4874  0.5057  0.1327
   36MOL   C18411454   1.428   7.186   3.392  0.0777  0.3057  0.5348
   36MOL   C18511455   1.350   7.144   3.283  1.2789 -0.3727  0.4882
   36MOL   C18611456   1.173   6.892   3.138  0.3172 -0.6028  0.0199
   36MOL   H18711457   1.033   7.040   3.225 -0.6261 -2.8738 -0.7609
   36MOL   H18811458   1.256   7.023   3.639 -0.2440  1.1140  0.3635
   36MOL   H18911459   1.445   7.189   3.608 -2.6522  2.1865  0.8352
   36MOL   H19011460   1.524   7.233   3.379  0.7158 -0.9557  0.6111
   36MOL   H19111461   1.389   7.151   3.183  1.3657  0.8176  0.5964
   36MOL   H19211462   1.157   6.844   3.235  0.3406  0.5557  0.6115
   36MOL   H19311463   1.279   6.902   3.116  0.0801 -0.9492 -1.3084
   36MOL   C19411464   1.085   6.828   3.028  0.1043  0.2925 -0.3084
   36MOL   C19511465   0.948   6.794   3.079  0.1768 -0.3268 -0.2760
   36MOL   C19611466   0.831   6.860   3.026 -0.5787 -0.1578  1.2673
   36MOL  Cl19711467   0.846   6.989   2.912  0.4681 -0.0551  0.1559
   36MOL   C19811468   0.706   6.818   3.064 -0.1368  0.5213 -0.8108
   36MOL   C19911469   0.692   6.714   3.157  0.6103  0.2834  0.6326
   36MOL   C20011470   0.803   6.656   3.222 -0.3927 -0.4412  0.0381
   36MOL   C20111471   0.930   6.691   3.175  0.0050  0.6362  0.3322
   36MOL   C20211472   1.145   6.701   2.964  0.3353 -0.5146 -0.6687
   36MOL   H20311473   1.080   6.911   2.957  0.3814  2.2170  1.8541
   36MOL   H20411474   0.621   6.858   3.012 -0.7675  1.3949  0.8501
   36MOL   H20511475   0.595   6.676   3.183 -0.6259  1.6131 -1.8960
   36MOL   H20611476   0.775   6.584   3.297  0.0388 -1.0926 -0.4207
   36MOL   H20711477   1.017   6.641   3.214 -0.2902 -0.2814 -0.1888
   36MOL   H20811478   1.067   6.664   2.897  1.9879  2.3798 -4.4056
   36MOL   H20911479   1.153   6.617   3.032 -1.1384  0.1065  0.2888
   36MOL   C21011480   1.278   6.715   2.895  0.0135 -0.9736 -0.1106
   36MOL   C21111481   1.265   6.803   2.771  0.2735  0.1698  0.1085
   36MOL   C21211482   1.327   6.930   2.766  0.6454 -0.4289 -0.2876
   36MOL  Cl21311483   1.440   6.991   2.887 -0.1174  0.3688 -0.3301
   36MOL   C21411484   1.299   7.023   2.663  0.0973 -0.0359 -0.7191
   36MOL   C21511485   1.201   6.992   2.565 -0.2864  0.2772 -0.4876
   36MOL   C21611486   1.140   6.865   2.565  0.2997  0.3813 -0.3305
   36MOL   C21711487   1.178   6.766   2.661 -0.5689  0.0086  0.0544
   36MOL   C21811488   1.348   6.573   2.877 -0.0219 -0.7217  0.0179
   36MOL   H21911489   1.337   6.775   2.964  1.3544 -1.7624 -0.5515
   36MOL   H22011490   1.355   7.115   2.659 -1.2048  0.9161  1.9666
   36MOL   H22111491   1.184   7.061   2.484 -3.5202 -0.7740 -0.7903
   36MOL   H22211492   1.077   6.834   2.484 -0.1562  1.6177 -0.4628
   36MOL   H22311493   1.134   6.668   2.649 -1.7659  0.6367 -0.7819
   36MOL   H22411494   1.427   6.597   2.806  0.6589  2.0713  1.6043
   36MOL   H22511495   1.277   6.518   2.816 -1.6012  1.5476 -0.2750
   36MOL   C22611496   1.422   6.510   2.999  0.3068  0.1060  0.4571
   36MOL   C22711497   1.527   6.603   3.052  0.0912  0.7996 -0.1152
   36MOL   C22811498   1.497   6.676   3.174 -0.3376 -0.3049 -0.3867
   36MOL  Cl22911499   1.354   6.672   3.261  0.3791 -0.0830 -0.1747
   36MOL   C23011500   1.597   6.759   3.222 -1.0852  0.1940  1.0637
   36MOL   C23111501   1.716   6.784   3.154 -0.3952 -0.2350 -0.1630
   36MOL   C23211502   1.745   6.717   3.036  0.5542  0.2258 -0.5707
   36MOL   C23311503   1.645   6.633   2.977  0.3301  0.0763  0.1598
   36MOL   C23411504   1.475   6.364   2.984 -0.4883  0.0721  0.4053
   36MOL   H23511505   1.344   6.498   3.074  0.4880 -0.2100  0.5995
   36MOL   H23611506   1.584   6.800   3.321 -3.0457 -1.2097  1.4174
   36MOL   H23711507   1.787   6.856   3.192 -0.3849 -1.1698  1.6350
   36MOL   H23811508   1.844   6.731   2.997 -0.1365  1.5917 -1.9015
   36MOL   H23911509   1.666   6.581   2.884 -0.1366  2.0356 -1.0794
   36MOL   H24011510   1.567   6.352   3.042  0.2565  1.6703 -0.4038
   36MOL   H24111511   1.518   6.356   2.884 -1.4029  0.2148 -0.0029
   36MOL   C24211512   1.367   6.252   3.010  0.1402 -0.3581 -0.0251
   36MOL   C24311513   1.317   6.265   3.157  0.1372 -0.0760  0.1284
   36MOL   C24411514   1.186   6.301   3.191  0.1461 -0.3751 -0.8307
   36MOL  Cl24511515   1.076   6.357   3.073  0.3467 -0.0184  0.0207
   36MOL   C24611516   1.143   6.293   3.326  0.3200 -0.4037  0.6814
   36MOL   C24711517   1.227   6.264   3.421 -0.1626  0.8638 -0.4133
   36MOL   C24811518   1.361   6.228   3.394  0.4567 -0.1287  0.4812
   36MOL   C24911519   1.401   6.220   3.257  0.0497  0.2462  0.0579
   36MOL   C25011520   1.416   6.118   2.964 -0.3635 -0.3603 -0.1382
   36MOL   H25111521   1.281   6.274   2.946  0.4358  0.6572 -0.0796
   36MOL   H25211522   1.044   6.323   3.359  0.5410  2.3944 -1.0301
   36MOL   H25311523   1.190   6.266   3.523 -2.5605 -0.9474 -1.2077
   36MOL   H25411524   1.425   6.197   3.475  1.1379 -1.7207 -0.6421
   36MOL   H25511525   1.500   6.189   3.226  0.0511  1.5322 -1.2267
   36MOL   H25611526   1.354   6.037   3.000  1.2471 -1.1629  0.8836
   36MOL   H25711527   1.508   6.096   3.019  0.3867  1.1691 -0.7379
   36MOL   C25811528   1.443   6.096   2.814 -0.6457  0.0812  0.2353
   36MOL   C25911529   1.325   6.134   2.723  0.4660  0.1059 -0.0142
   36MOL   C26011530   1.336   6.221   2.611 -0.1822  0.0346 -0.2609
   36MOL  Cl26111531   1.480   6.303   2.577 -0.3670 -0.0638 -0.4509
   36MOL   C26211532   1.229   6.243   2.522  0.0568  0.2602 -0.3898
   36MOL   C26311533   1.108   6.171   2.545 -0.0183 -0.8417 -0.6623
   36MOL   C26411534   1.095   6.086   2.657 -0.3722 -0.1258  0.1308
   36MOL   C26511535   1.201   6.072   2.748 -0.3733 -0.9010 -0.0720
   36MOL   C26611536   1.481   5.947   2.788  0.4940 -0.3866 -0.3793
   36MOL   H26711537   1.526   6.154   2.775  0.3997 -1.4189  0.1728
   36MOL   H26811538   1.252   6.296   2.431  0.3284 -0.4482 -0.7428
   36MOL   H26911539   1.035   6.174   2.466  0.2180  2.2109 -0.8561
   36MOL   H27011540   1.002   6.035   2.672 -0.4499  0.0926  0.3951
   36MOL   H27111541   1.192   6.000   2.828 -0.1324 -0.3826  0.4188
   36MOL   H27211542   1.453   5.912   2.689 -1.7740  0.2362  0.0199
   36MOL   H27311543   1.427   5.873   2.847 -0.0498 -0.1681 -0.6027
   36MOL   C27411544   1.636   5.924   2.805 -0.1454  0.0653 -0.0467
   36MOL   C27511545   1.723   5.982   2.695  0.1300  0.0093  0.5748
   36MOL   C27611546   1.797   6.102   2.711 -1.0069  0.3670 -0.1706
   36MOL  Cl27711547   1.818   6.175   2.869 -0.2358 -0.1085  0.0236
   36MOL   C27811548   1.860   6.162   2.597 -0.2854  0.3284 -0.1301
   36MOL   C27911549   1.854   6.108   2.474 -0.7734  0.0078 -0.6674
   36MOL   C28011550   1.789   5.989   2.457  0.2805 -0.4691  0.0238
   36MOL   C28111551   1.719   5.924   2.562 -0.2284 -0.1322 -0.8108
   36MOL   C28211552   1.657   5.775   2.856  0.0313 -0.0037 -0.3797
   36MOL   H28311553   1.660   5.987   2.890  0.8514 -0.1565 -0.1535
   36MOL   H28411554   1.922   6.250   2.609  0.8786 -0.7211  1.9329
   36MOL   H28511555   1.895   6.164   2.391  0.0826 -1.6320 -1.3771
   36MOL   H28611556   1.783   5.947   2.358 -0.2033  1.7856 -0.9308
   36MOL   H28711557   1.655   5.838   2.549 -2.4348  1.0929  1.5841
   36MOL   H28811558   1.680   5.700   2.780  0.0439 -2.5818  2.0466
   36MOL   H28911559   1.567   5.731   2.900 -0.5267 -0.5664 -2.0585
   36MOL   C29011560   1.776   5.764   2.952 -0.1517  0.1537  0.5049
   36MOL   C29111561   1.797   5.614   3.000  0.0933 -0.0461 -0.4950
   36MOL   C29211562   1.910   5.532   2.964  0.4091 -0.5015  0.4358
   36MOL  Cl29311563   2.042   5.602   2.882 -0.2234  0.3302  0.1700
   36MOL   C29411564   1.915   5.403   3.007 -0.0463  0.3633 -0.7759
   36MOL   C29511565   1.801   5.338   3.070  0.2866 -0.6547  0.7477
   36MOL   C29611566   1.689   5.416   3.096 -0.1271  0.0999  0.1353
   36MOL   C29711567   1.691   5.552   3.070  0.4895 -0.0836 -0.3139
   36MOL   C29811568   1.776   5.863   3.078  0.6513 -0.2646  0.2271
   36MOL   H29911569   1.860   5.789   2.886 -0.2755  0.0337  0.3015
   36MOL   H30011570   2.011   5.354   3.001  0.0967  0.2055  2.2506
   36MOL   H30111571   1.805   5.236   3.106  2.0502 -0.9555 -0.2654
   36MOL   H30211572   1.604   5.366   3.139 -1.2682  1.8043 -0.1184
   36MOL   H30311573   1.602   5.609   3.093  0.1276 -0.0769 -1.7172
   36MOL   H30411574   1.692   5.843   3.144 -0.2825  2.5344 -0.0391
   36MOL   H30511575   1.769   5.968   3.048  0.7148 -0.4910 -0.5914
   36MOL   C30611576   1.886   5.867   3.181  0.6626  0.6803 -0.2170
   36MOL   C30711577   1.845   5.931   3.316 -0.4386 -0.3051 -0.3202
   36MOL   C30811578   1.802   5.865   3.426  0.3355 -0.0192  0.6169
   36MOL  Cl30911579   1.790   5.699   3.414 -0.0206 -0.0455  0.2064
   36MOL   C31011580   1.750   5.930   3.544 -0.1774  0.4024  0.0587
   36MOL   C31111581   1.736   6.070   3.548 -0.5453 -0.4069 -0.0376
   36MOL   C31211582   1.777   6.140   3.433  0.1936  0.3873 -0.0706
   36MOL   C31311583   1.830   6.073   3.321  0.5227  0.5106 -0.5340
   36MOL   C31411584   2.014   5.928   3.126 -0.3052 -0.4496 -0.4169
   36MOL   H31511585   1.912   5.764   3.203  1.2817  0.4292 -2.0424
   36MOL   H31611586   1.735   5.870   3.632 -1.4244  2.8329  1.5367
   36MOL   H31711587   1.702   6.127   3.633  2.0393 -0.2173  0.9283
   36MOL   H31811588   1.771   6.248   3.432 -1.8387  0.2962 -0.2538
   36MOL   H31911589   1.842   6.137   3.234  1.1282  0.4008 -0.5320
   36MOL   H32011590   1.996   6.029   3.090  1.2528 -0.0171 -0.0318
   36MOL   H32111591   2.043   5.885   3.031 -1.7769  1.3844 -1.7317
   36MOL   H32211592   2.101   5.921   3.192  0.3113  0.4843 -1.1238
   37MOL     C111593   4.605   4.820   3.120 -0.5842 -0.3669 -0.2469
   37MOL     C211594   4.590   4.677   3.079  0.3310 -0.3839  0.6347
   37MOL     C311595   4.569   4.572   3.165 -0.7497 -0.1066  0.5037
   37MOL    Cl411596   4.570   4.601   3.341  0.2454 -0.0643 -0.3550
   37MOL     C511597   4.552   4.438   3.116 -0.1160  0.4929  0.0288
   37MOL     C611598   4.552   4.414   2.980 -0.4394  0.2733  0.5857
   37MOL     C711599   4.583   4.517   2.889 -0.2377  0.2994 -0.2493
   37MOL     C811600   4.599   4.647   2.939  0.0984 -0.0755 -1.0998
   37MOL     C911601   4.478   4.897   3.110  0.5954 -0.2391 -0.2086
   37MOL    H1011602   4.647   4.837   3.219 -0.3222 -1.0893 -0.2331
   37MOL    H1111603   4.525   4.356   3.182 -0.6848 -0.1629 -1.0038
   37MOL    H1211604   4.520   4.319   2.941 -0.0253  1.0726 -1.7691
   37MOL    H1311605   4.595   4.508   2.782  0.9970  0.0491 -0.1024
   37MOL    H1411606   4.618   4.729   2.871  1.1617 -0.3924 -1.1992
   37MOL    H1511607   4.407   4.846   3.176 -0.8676  2.8217  0.7206
   37MOL    H1611608   4.431   4.898   3.012  0.3650 -1.5011 -0.1120
   37MOL    H1711609   4.683   4.866   3.058 -1.5039  0.9956 -0.4136
   37MOL    C1811610   4.503   5.046   3.156 -0.2719  0.5009  0.0956
   37MOL    C1911611   4.570   5.060   3.291 -0.4201  0.0070 -0.3063
   37MOL    C2011612   4.700   5.104   3.304  0.6618 -0.4697  0.3932
   37MOL   Cl2111613   4.809   5.141   3.172  0.2406  0.4640 -0.1231
   37MOL    C2211614   4.760   5.116   3.431  0.2468  0.0590 -0.1842
   37MOL    C2311615   4.680   5.096   3.547 -0.2477  0.1289 -0.7005
   37MOL    C2411616   4.553   5.040   3.536 -0.1955 -0.0689  0.1953
   37MOL    C2511617   4.499   5.024   3.408  0.2507  0.1108 -0.1944
   37MOL    C2611618   4.369   5.124   3.149 -0.5294  0.1468  0.6652
   37MOL    H2711619   4.565   5.087   3.076 -1.1844  1.4526 -0.1460
   37MOL    H2811620   4.865   5.141   3.441  1.5189 -4.2315 -1.5950
   37MOL    H2911621   4.715   5.104   3.649 -0.7513  4.2440 -0.7766
   37MOL    H3011622   4.484   5.020   3.617 -1.2569 -0.3909 -0.7599
   37MOL    H3111623   4.408   4.969   3.390 -0.2593  1.6371 -2.5386
   37MOL    H3211624   4.379   5.214   3.209 -2.0536 -0.2295  1.4969
   37MOL    H3311625   4.287   5.065   3.189 -1.3076  1.3057  0.7819
   37MOL    C3411626   4.327   5.180   3.009 -0.1123  0.5020  0.9298
   37MOL    C3511627   4.439   5.257   2.949 -0.4786  0.0127 -0.9126
   37MOL    C3611628   4.494   5.221   2.827 -0.9056  0.4880  0.7088
   37MOL   Cl3711629   4.428   5.097   2.725  0.1029 -0.0649  0.3215
   37MOL    C3811630   4.605   5.300   2.777 -0.3386 -0.2818  0.3643
   37MOL    C3911631   4.659   5.404   2.851 -1.0671 -0.5796 -0.0285
   37MOL    C4011632   4.605   5.439   2.972  0.2817  0.5732  0.1496
   37MOL    C4111633   4.498   5.361   3.022 -0.2248  0.6799 -0.0160
   37MOL    C4211634   4.196   5.269   3.001 -0.2646 -0.1063 -0.4825
   37MOL    H4311635   4.310   5.092   2.948  0.7719  0.9917 -0.0458
   37MOL    H4411636   4.641   5.270   2.680  2.3967  0.5586  1.0885
   37MOL    H4511637   4.748   5.451   2.812 -2.2062  0.6461 -1.2195
   37MOL    H4611638   4.653   5.513   3.035  1.8933  0.3271 -0.7500
   37MOL    H4711639   4.451   5.388   3.115  0.7357  2.5365 -0.0313
   37MOL    H4811640   4.212   5.343   2.923 -0.0047  1.1104  0.7080
   37MOL    H4911641   4.193   5.322   3.097  2.2137  0.5665 -0.7577
   37MOL    C5011642   4.069   5.191   2.966  0.3959 -0.1223 -0.6597
   37MOL    C5111643   4.063   5.139   2.818 -0.1874 -0.2720 -0.3241
   37MOL    C5211644   4.061   5.000   2.787 -0.6717  0.4373  0.1288
   37MOL   Cl5311645   4.071   4.884   2.914  0.1399 -0.2034  0.1462
   37MOL    C5411646   4.078   4.957   2.652  0.3045 -0.8148 -0.3934
   37MOL    C5511647   4.076   5.051   2.547 -0.8292 -0.0758 -0.1604
   37MOL    C5611648   4.075   5.188   2.575 -0.2882 -0.1747  0.6452
   37MOL    C5711649   4.068   5.232   2.711  0.0227 -0.5449 -0.1382
   37MOL    C5811650   3.944   5.268   2.993 -0.6643 -0.1527  0.4506
   37MOL    H5911651   4.073   5.106   3.034  1.7353  1.3431  1.1025
   37MOL    H6011652   4.071   4.854   2.619  1.6382 -0.3703 -2.1624
   37MOL    H6111653   4.084   5.016   2.445  1.3465 -1.0951  0.3259
   37MOL    H6211654   4.062   5.258   2.494  0.7220 -1.3128 -0.5127
   37MOL    H6311655   4.061   5.337   2.734  1.3164 -0.6726  0.9179
   37MOL    H6411656   3.870   5.189   2.983  1.1556 -1.9544  0.8778
   37MOL    H6511657   3.936   5.345   2.916 -0.5517 -0.3824  0.2075
   37MOL    C6611658   3.939   5.322   3.136 -0.4084  0.7666 -0.4081
   37MOL    C6711659   3.962   5.214   3.240 -0.4280  0.2834 -0.1992
   37MOL    C6811660   4.062   5.219   3.344  0.2762 -0.0243  0.2850
   37MOL   Cl6911661   4.157   5.358   3.379 -0.3248  0.5959 -0.1236
   37MOL    C7011662   4.077   5.107   3.425 -0.2406  0.4039  0.5367
   37MOL    C7111663   4.004   4.989   3.412  0.3747  0.4294 -0.1294
   37MOL    C7211664   3.911   4.983   3.309 -0.5904  0.9815  0.0288
   37MOL    C7311665   3.890   5.092   3.226  0.3607 -0.1331  0.0472
   37MOL    C7411666   3.804   5.384   3.158  0.0118  0.0377  0.6708
   37MOL    H7511667   4.015   5.398   3.151 -0.7085  0.9943 -0.0421
   37MOL    H7611668   4.146   5.111   3.508  0.2346 -0.7179  0.1979
   37MOL    H7711669   4.028   4.907   3.479  2.0374 -0.0202 -1.2574
   37MOL    H7811670   3.864   4.889   3.286 -0.6015  1.5516 -2.4294
   37MOL    H7911671   3.817   5.076   3.148  1.3558 -3.9564 -0.1679
   37MOL    H8011672   3.721   5.315   3.142  0.6988 -0.4742 -0.8567
   37MOL    H8111673   3.787   5.459   3.080  0.4320  1.2464  1.7314
   37MOL    C8211674   3.797   5.474   3.284  0.0251 -0.2346  0.0437
   37MOL    C8311675   3.730   5.394   3.404  0.3860  0.7119  0.9365
   37MOL    C8411676   3.785   5.416   3.535  0.2646  0.4779  0.1782
   37MOL   Cl8511677   3.928   5.509   3.576 -0.1334  0.1660  0.3350
   37MOL    C8611678   3.720   5.344   3.644  0.3119 -0.7532  0.8397
   37MOL    C8711679   3.610   5.264   3.624 -0.4203 -0.2727  0.0536
   37MOL    C8811680   3.554   5.259   3.492 -0.0889  0.3412  0.5312
   37MOL    C8911681   3.612   5.323   3.388 -0.0234  0.1778 -0.0749
   37MOL    C9011682   3.734   5.614   3.261 -0.4734  0.2930 -0.1724
   37MOL    H9111683   3.901   5.486   3.316 -0.1045  0.0358  0.3641
   37MOL    H9211684   3.762   5.365   3.741  2.6224  3.0393 -0.8371
   37MOL    H9311685   3.574   5.204   3.707 -1.8424  0.2109 -0.2031
   37MOL    H9411686   3.456   5.216   3.480 -0.4058  1.2106 -0.0409
   37MOL    H9511687   3.562   5.325   3.292  0.5458 -3.6993 -0.5344
   37MOL    H9611688   3.712   5.657   3.359  1.0573  2.1559 -0.6408
   37MOL    H9711689   3.639   5.601   3.208 -0.2872 -1.5538 -0.1077
   37MOL    C9811690   3.811   5.711   3.177  0.4521 -0.7629 -0.4812
   37MOL    C9911691   3.962   5.711   3.208  0.0313 -0.6298  0.1582
   37MOL   C10011692   4.056   5.686   3.105 -0.2911  0.6907 -0.3090
   37MOL  Cl10111693   4.006   5.660   2.941 -0.0730 -0.3020 -0.4205
   37MOL   C10211694   4.192   5.674   3.144  0.0577 -0.2885 -1.0409
   37MOL   C10311695   4.236   5.702   3.277  0.4133  0.7004  1.1548
   37MOL   C10411696   4.137   5.730   3.370  0.3565  0.2942 -0.2704
   37MOL   C10511697   3.998   5.733   3.338  0.4090  0.2621  0.3467
   37MOL   C10611698   3.764   5.862   3.187  0.9572 -0.0570  0.1620
   37MOL   H10711699   3.796   5.686   3.072  0.6465 -2.1766 -0.1773
   37MOL   H10811700   4.260   5.636   3.069  0.6640 -1.7586  0.2438
   37MOL   H10911701   4.341   5.694   3.301  0.5868  2.1668  0.9008
   37MOL   H11011702   4.168   5.750   3.472 -1.4283  0.9184  0.1708
   37MOL   H11111703   3.916   5.760   3.403  1.0905  0.9395  0.9430
   37MOL   H11211704   3.827   5.926   3.125 -0.2574  0.5670 -0.4513
   37MOL   H11311705   3.796   5.909   3.280  1.9422  0.3439 -0.3736
   37MOL   C11411706   3.615   5.887   3.150 -1.0713  0.0512  0.5845
   37MOL   C11511707   3.584   5.853   3.005 -0.6008 -0.5491 -0.3999
   37MOL   C11611708   3.489   5.758   2.969 -0.9549 -0.4905  0.0942
   37MOL  Cl11711709   3.400   5.665   3.084 -0.0286 -0.0924  0.0754
   37MOL   C11811710   3.457   5.734   2.831  0.1228 -0.3016 -0.7384
   37MOL   C11911711   3.519   5.814   2.731 -0.0353 -0.6041  0.2587
   37MOL   C12011712   3.619   5.906   2.772 -0.3401 -0.5286 -0.4656
   37MOL   C12111713   3.652   5.929   2.903 -1.2153 -0.2413  0.7352
   37MOL   C12211714   3.579   6.042   3.168  0.3862  0.3664 -0.5569
   37MOL   H12311715   3.556   5.821   3.213 -0.0074 -1.4342  0.0450
   37MOL   H12411716   3.389   5.658   2.797 -0.7553  0.3876 -0.5528
   37MOL   H12511717   3.493   5.807   2.626  0.8484 -0.8302  0.0523
   37MOL   H12611718   3.668   5.964   2.695  0.8108 -2.3532 -1.1532
   37MOL   H12711719   3.720   6.009   2.927 -0.9911 -0.5629  1.1802
   37MOL   H12811720   3.642   6.102   3.103  0.9900 -1.2207 -1.4800
   37MOL   H12911721   3.631   6.064   3.261  2.5353 -2.7650 -0.9410
   37MOL   C13011722   3.424   6.063   3.174  0.4028 -0.5308 -0.0655
   37MOL   C13111723   3.376   6.128   3.044  0.6366  0.2598 -0.0638
   37MOL   C13211724   3.262   6.075   2.979 -0.1864  0.0313  0.1545
   37MOL  Cl13311725   3.168   5.946   3.045  0.3363  0.3040  0.1989
   37MOL   C13411726   3.219   6.130   2.853  0.4032  0.2332 -0.1059
   37MOL   C13511727   3.274   6.253   2.805 -0.1343 -0.0992 -0.3645
   37MOL   C13611728   3.385   6.309   2.874 -0.4345  0.2322 -0.3732
   37MOL   C13711729   3.429   6.247   2.994 -0.0520 -0.1594 -1.1467
   37MOL   C13811730   3.367   6.146   3.292 -0.0743  0.5123 -0.0556
   37MOL   H13911731   3.377   5.965   3.170  0.0296 -0.3769  0.4443
   37MOL   H14011732   3.129   6.088   2.810 -0.6020  1.8439  0.3922
   37MOL   H14111733   3.227   6.300   2.720 -1.7537  0.6564  0.9164
   37MOL   H14211734   3.431   6.400   2.839  1.5438  1.0175  3.8878
   37MOL   H14311735   3.517   6.286   3.043  1.0240 -2.1413 -1.4561
   37MOL   H14411736   3.262   6.170   3.273 -0.4423 -0.7809  0.2742
   37MOL   H14511737   3.418   6.242   3.288  0.0303  0.4672  0.1687
   37MOL   C14611738   3.412   6.083   3.430  0.0199 -0.4645 -0.2987
   37MOL   C14711739   3.387   5.933   3.442  0.2056 -0.1669  0.2479
   37MOL   C14811740   3.491   5.847   3.498  0.0772  0.1150 -0.5882
   37MOL  Cl14911741   3.638   5.909   3.569 -0.4020 -0.0594 -0.2556
   37MOL   C15011742   3.470   5.710   3.486  0.5623  0.8021  0.3573
   37MOL   C15111743   3.353   5.653   3.424 -0.2797  0.3289 -0.5989
   37MOL   C15211744   3.247   5.733   3.389  0.0736  0.3408 -0.1962
   37MOL   C15311745   3.266   5.874   3.397  0.3437  0.4487  0.0397
   37MOL   C15411746   3.323   6.144   3.542  0.0007 -0.4416  0.8534
   37MOL   H15511747   3.515   6.093   3.462  0.2101  0.8992 -1.2885
   37MOL   H15611748   3.547   5.649   3.530 -0.3907 -0.8674 -0.2329
   37MOL   H15711749   3.336   5.549   3.400 -1.1168  0.8293 -2.3501
   37MOL   H15811750   3.157   5.701   3.339 -1.1937 -0.1660  2.3355
   37MOL   H15911751   3.188   5.936   3.356  0.1849 -0.4308 -1.0203
   37MOL   H16011752   3.341   6.096   3.638 -1.8897 -1.1431  0.8781
   37MOL   H16111753   3.216   6.125   3.533  0.0293  0.0962 -0.7180
   37MOL   C16211754   3.332   6.299   3.566  0.9212 -0.9587  0.3495
   37MOL   C16311755   3.409   6.331   3.690 -0.3130 -0.7486 -0.3299
   37MOL   C16411756   3.541   6.384   3.691  0.0329 -0.5353 -0.6021
   37MOL  Cl16511757   3.613   6.429   3.543 -0.1128 -0.0731 -0.1351
   37MOL   C16611758   3.614   6.409   3.808  0.1145 -0.4050  0.3321
   37MOL   C16711759   3.554   6.391   3.933 -0.1938  0.4058 -0.8476
   37MOL   C16811760   3.430   6.328   3.939 -0.1021  0.5594  0.0010
   37MOL   C16911761   3.357   6.297   3.821  0.5027  0.3515 -0.6942
   37MOL   C17011762   3.191   6.364   3.567  0.2890  0.3568  0.0652
   37MOL   H17111763   3.383   6.345   3.481  3.9769  0.0689  2.6452
   37MOL   H17211764   3.710   6.456   3.791  0.3156 -0.8742  0.1442
   37MOL   H17311765   3.600   6.426   4.024 -1.6321 -1.7126  0.7237
   37MOL   H17411766   3.386   6.304   4.034  1.1481 -1.7699  0.0154
   37MOL   H17511767   3.269   6.236   3.833  1.0456 -0.6730 -1.9081
   37MOL   H17611768   3.190   6.441   3.644 -0.8322 -1.6604  2.1687
   37MOL   H17711769   3.115   6.289   3.593  0.9612 -0.4649 -0.3151
   37MOL   C17811770   3.139   6.415   3.431 -0.3686 -0.5601 -0.0745
   37MOL   C17911771   3.220   6.526   3.367 -0.7309 -0.2811  0.0285
   37MOL   C18011772   3.226   6.527   3.227 -0.3260 -0.5621  0.1339
   37MOL  Cl18111773   3.140   6.421   3.116  0.2732 -0.2791  0.4647
   37MOL   C18211774   3.308   6.622   3.168 -1.3199 -0.1689 -0.0807
   37MOL   C18311775   3.380   6.721   3.236  0.6627  0.2138  0.8512
   37MOL   C18411776   3.375   6.727   3.376  0.5825  0.0937  0.3240
   37MOL   C18511777   3.308   6.616   3.438 -0.5212 -0.4349  0.1161
   37MOL   C18611778   2.995   6.475   3.445 -0.6071  0.8955  0.6405
   37MOL   H18711779   3.128   6.332   3.362  0.7993 -0.8492  0.0716
   37MOL   H18811780   3.329   6.618   3.062 -0.9807  0.9484 -0.0563
   37MOL   H18911781   3.436   6.798   3.186 -1.4995  1.1350 -0.2407
   37MOL   H19011782   3.425   6.805   3.431  0.5066  1.0436 -0.9170
   37MOL   H19111783   3.301   6.609   3.545 -0.2218  2.1261  0.3390
   37MOL   H19211784   2.981   6.523   3.348  0.7766 -0.5145 -0.2613
   37MOL   H19311785   3.000   6.555   3.520 -2.5102 -0.2684  2.0661
   37MOL   C19411786   2.881   6.374   3.478  0.4546 -0.4072  0.1889
   37MOL   C19511787   2.876   6.257   3.378 -0.2642 -0.5349 -1.0842
   37MOL   C19611788   2.896   6.121   3.417  0.1303  0.0459  0.3807
   37MOL  Cl19711789   2.917   6.070   3.581  0.2678 -0.0381  0.3108
   37MOL   C19811790   2.873   6.021   3.327  0.0423 -0.4588  0.0033
   37MOL   C19911791   2.854   6.047   3.191 -0.9661 -0.2432  0.1305
   37MOL   C20011792   2.838   6.183   3.150  0.6795 -0.4199  0.2039
   37MOL   C20111793   2.846   6.287   3.247  0.2061 -0.2885  0.2329
   37MOL   C20211794   2.751   6.454   3.473  0.3154  0.2751 -0.3591
   37MOL   H20311795   2.894   6.339   3.581 -0.7777  2.6254  1.4475
   37MOL   H20411796   2.876   5.917   3.358  1.5320 -1.1134 -2.1929
   37MOL   H20511797   2.849   5.966   3.120 -0.5607 -0.6731  0.5902
   37MOL   H20611798   2.808   6.214   3.051  0.2994 -0.3597  0.3367
   37MOL   H20711799   2.827   6.389   3.215  0.3799 -0.6909 -1.1672
   37MOL   H20811800   2.667   6.395   3.436 -0.0515 -0.0924  1.0233
   37MOL   H20911801   2.765   6.527   3.393 -2.5221  1.9738  0.6017
   37MOL   C21011802   2.712   6.519   3.609  0.1170 -0.4433  0.4236
   37MOL   C21111803   2.689   6.425   3.727 -0.0623 -0.0134 -0.4145
   37MOL   C21211804   2.704   6.469   3.863  0.0835  0.4472  0.6205
   37MOL  Cl21311805   2.769   6.629   3.906  0.0232 -0.2251  0.0572
   37MOL   C21411806   2.678   6.381   3.968 -0.1681  0.3763 -0.4286
   37MOL   C21511807   2.640   6.248   3.945  0.1377 -0.1708  0.3775
   37MOL   C21611808   2.631   6.205   3.813  0.2887  0.1996  0.1943
   37MOL   C21711809   2.657   6.291   3.701  0.2795 -1.1070  0.5597
   37MOL   C21811810   2.597   6.617   3.595  0.0477 -0.7720 -0.1751
   37MOL   H21911811   2.799   6.579   3.637  0.2912  0.4756 -1.9619
   37MOL   H22011812   2.682   6.414   4.070 -0.2201 -0.6715 -0.0797
   37MOL   H22111813   2.618   6.175   4.021 -0.6405 -0.5016 -0.1554
   37MOL   H22211814   2.604   6.103   3.789  0.5732 -0.1528  1.3230
   37MOL   H22311815   2.650   6.258   3.599  0.0228  1.0838 -0.1510
   37MOL   H22411816   2.556   6.638   3.694  2.2419  2.3423  0.1799
   37MOL   H22511817   2.512   6.570   3.547  1.6332 -2.8230 -1.0607
   37MOL   C22611818   2.630   6.749   3.519  0.1554 -0.3034  0.4804
   37MOL   C22711819   2.692   6.851   3.612 -0.2139 -0.1023 -0.0927
   37MOL   C22811820   2.830   6.886   3.599  0.3603 -0.2812 -0.2097
   37MOL  Cl22911821   2.930   6.844   3.466 -0.0456  0.0642 -0.3485
   37MOL   C23011822   2.884   6.965   3.699 -0.2784 -0.3533 -0.1136
   37MOL   C23111823   2.803   7.025   3.800 -0.3476  0.5487 -0.2962
   37MOL   C23211824   2.664   6.992   3.813 -0.6734 -0.1506  0.2680
   37MOL   C23311825   2.611   6.907   3.711  0.0381 -0.0979 -0.2786
   37MOL   C23411826   2.510   6.793   3.436 -0.2884 -0.1480 -0.1290
   37MOL   H23511827   2.711   6.736   3.448  0.0020 -0.3960  0.3207
   37MOL   H23611828   2.990   6.982   3.691 -0.3873 -0.5136 -1.9828
   37MOL   H23711829   2.833   7.090   3.881 -1.2334  1.8422 -1.0052
   37MOL   H23811830   2.613   7.045   3.891  1.6752 -0.4664  2.1074
   37MOL   H23911831   2.509   6.873   3.718  0.3447 -0.4552  2.7909
   37MOL   H24011832   2.529   6.898   3.413  1.0827 -0.5488 -0.8367
   37MOL   H24111833   2.428   6.803   3.508 -0.2697 -0.3115 -0.0861
   37MOL   C24211834   2.487   6.725   3.299  0.1041  0.5535 -0.8104
   37MOL   C24311835   2.620   6.723   3.207  0.2644 -0.6093 -0.1078
   37MOL   C24411836   2.652   6.616   3.124 -0.0755 -0.3846 -0.1146
   37MOL  Cl24511837   2.558   6.469   3.122  0.1904  0.1630 -0.1191
   37MOL   C24611838   2.766   6.621   3.037 -0.2936 -0.3589  0.2194
   37MOL   C24711839   2.851   6.733   3.034  0.6042 -0.0265  0.2053
   37MOL   C24811840   2.823   6.842   3.115 -0.0362  0.0039  0.1019
   37MOL   C24911841   2.710   6.836   3.201  0.0388 -0.5782  0.2001
   37MOL   C25011842   2.373   6.790   3.218  0.5884 -0.8922 -0.8139
   37MOL   H25111843   2.460   6.621   3.315  0.2604  0.5215 -0.7545
   37MOL   H25211844   2.772   6.523   2.991 -2.8958  0.2255 -1.4862
   37MOL   H25311845   2.941   6.741   2.976 -0.4205  0.9122 -1.2814
   37MOL   H25411846   2.884   6.930   3.115 -1.4702  1.0170  0.5051
   37MOL   H25511847   2.687   6.927   3.253 -0.2784 -0.8732  0.5814
   37MOL   H25611848   2.361   6.740   3.122  0.4136 -0.6769 -0.9038
   37MOL   H25711849   2.390   6.897   3.212  1.2236 -0.9156  0.3250
   37MOL   C25811850   2.242   6.760   3.292  0.0785  0.1435  0.7359
   37MOL   C25911851   2.198   6.606   3.284 -0.8512 -0.2922  0.0987
   37MOL   C26011852   2.167   6.534   3.404 -0.9315  0.7499  0.7210
   37MOL  Cl26111853   2.181   6.609   3.562  0.5281  0.3167 -0.0326
   37MOL   C26211854   2.118   6.402   3.400 -0.0204 -0.1924  0.0218
   37MOL   C26311855   2.091   6.345   3.276  0.6581 -0.0538  0.2489
   37MOL   C26411856   2.143   6.404   3.154 -0.3040  0.1194  0.2653
   37MOL   C26511857   2.188   6.543   3.159  0.4995  0.4959 -0.1192
   37MOL   C26611858   2.120   6.848   3.235 -0.6312  0.1653  0.2988
   37MOL   H26711859   2.255   6.771   3.400  1.2927  1.7777  0.4498
   37MOL   H26811860   2.103   6.349   3.492  2.8994 -3.1764 -1.0975
   37MOL   H26911861   2.053   6.244   3.279  2.5121 -0.7302  1.6592
   37MOL   H27011862   2.137   6.358   3.056 -2.2417 -2.2544  1.4615
   37MOL   H27111863   2.215   6.596   3.069 -0.9925  0.8015 -0.3910
   37MOL   H27211864   2.026   6.814   3.278 -1.3460 -1.3707 -2.3904
   37MOL   H27311865   2.109   6.830   3.128 -0.9687  1.6640  0.0635
   37MOL   C27411866   2.135   7.003   3.271 -0.3951  0.0630 -0.1505
   37MOL   C27511867   2.196   7.033   3.404  0.2300  0.3791  0.1447
   37MOL   C27611868   2.303   7.117   3.414 -0.0392 -0.6727 -0.4318
   37MOL  Cl27711869   2.382   7.200   3.277 -0.1156  0.2426 -0.0874
   37MOL   C27811870   2.358   7.152   3.538 -0.6082 -0.2356 -0.4423
   37MOL   C27911871   2.327   7.075   3.646  0.2799 -0.0757 -0.1290
   37MOL   C28011872   2.215   6.988   3.642  0.0356  0.3128 -0.3098
   37MOL   C28111873   2.142   6.973   3.525 -0.0308  0.4490  0.6940
   37MOL   C28211874   1.999   7.086   3.260  0.2888 -0.2178 -0.4053
   37MOL   H28311875   2.204   7.028   3.191 -1.4151 -0.3512 -1.1713
   37MOL   H28411876   2.435   7.227   3.544  0.2815 -1.1454 -0.2978
   37MOL   H28511877   2.373   7.094   3.741 -2.7525 -0.9748  1.5834
   37MOL   H28611878   2.181   6.937   3.731  0.2423  0.3802 -0.1934
   37MOL   H28711879   2.051   6.915   3.517  0.7108 -0.3921 -2.1171
   37MOL   H28811880   2.008   7.168   3.331 -2.7322 -0.3117  0.1724
   37MOL   H28911881   1.906   7.047   3.303 -0.5222  0.8248 -1.1711
   37MOL   C29011882   1.971   7.152   3.124  0.2871 -0.2598  0.0989
   37MOL   C29111883   1.931   7.298   3.150  0.1485 -0.1810  0.6339
   37MOL   C29211884   2.020   7.405   3.128 -0.1429  0.1239  0.4208
   37MOL  Cl29311885   2.185   7.375   3.094  0.3109 -0.1260 -0.1708
   37MOL   C29411886   1.976   7.540   3.126  0.2932  0.2422 -0.4422
   37MOL   C29511887   1.844   7.567   3.163 -0.4810 -0.3546 -0.0651
   37MOL   C29611888   1.756   7.464   3.194 -0.5133 -0.1813  0.3251
   37MOL   C29711889   1.797   7.331   3.185 -0.0704  0.1101  0.1657
   37MOL   C29811890   1.876   7.070   3.026  0.4050 -0.0077 -0.5241
   37MOL   H29911891   2.065   7.167   3.070 -0.3708  1.9483 -0.5062
   37MOL   H30011892   2.039   7.626   3.110  0.5098 -0.0680 -1.2296
   37MOL   H30111893   1.810   7.667   3.184  1.8768  0.2588  0.8934
   37MOL   H30211894   1.659   7.495   3.231 -0.3742  1.2710 -0.4853
   37MOL   H30311895   1.726   7.257   3.219  0.0731  1.1250  2.7499
   37MOL   H30411896   1.770   7.073   3.050  0.4575 -0.8869 -0.1618
   37MOL   H30511897   1.911   6.967   3.036 -0.3910 -0.1942  0.4861
   37MOL   C30611898   1.889   7.109   2.878  0.2398  0.0833  0.3671
   37MOL   C30711899   1.821   7.238   2.842 -0.8054 -0.3131  0.0826
   37MOL   C30811900   1.882   7.326   2.750 -0.0040  0.0232 -0.5310
   37MOL  Cl30911901   2.048   7.298   2.699  0.1434  0.1767  0.2821
   37MOL   C31011902   1.815   7.442   2.712 -0.0165 -0.5329 -0.0612
   37MOL   C31111903   1.691   7.482   2.777  0.0529 -0.6235  0.7632
   37MOL   C31211904   1.626   7.388   2.859  1.1154 -0.4500 -0.3717
   37MOL   C31311905   1.690   7.270   2.892 -0.0868 -0.6572 -0.2590
   37MOL   C31411906   1.832   6.998   2.789  0.0904  0.1188 -0.2379
   37MOL   H31511907   1.996   7.110   2.855  0.2587  0.4863  0.4648
   37MOL   H31611908   1.880   7.512   2.661  3.1078 -0.9470  3.1099
   37MOL   H31711909   1.647   7.577   2.752 -1.1127 -1.2571  0.3340
   37MOL   H31811910   1.529   7.409   2.901  1.8047  2.2445 -0.0362
   37MOL   H31911911   1.642   7.197   2.955 -2.2257 -1.8116 -3.1528
   37MOL   H32011912   1.838   7.022   2.683  0.9881  0.0603 -0.2035
   37MOL   H32111913   1.727   6.968   2.801  1.3885 -4.8423 -0.0768
   37MOL   H32211914   1.882   6.903   2.807  0.5051  0.3891  0.0546
   38MOL     C111915   6.247   7.856   2.408  0.4036 -0.1067  0.5463
   38MOL     C211916   6.337   7.901   2.519 -0.2429 -0.2706 -0.2936
   38MOL     C311917   6.321   7.849   2.649  0.3450  0.0429 -0.1041
   38MOL    Cl411918   6.191   7.745   2.694 -0.0800 -0.4464  0.1922
   38MOL     C511919   6.416   7.885   2.742 -0.7024  0.1765 -0.5677
   38MOL     C611920   6.513   7.973   2.711 -0.5113  0.7577  0.6172
   38MOL     C711921   6.521   8.036   2.585  0.4547 -0.7193 -0.9826
   38MOL     C811922   6.437   7.993   2.488  0.6397  0.0557 -0.1065
   38MOL     C911923   6.113   7.932   2.403 -0.2958  0.1004 -0.2756
   38MOL    H1011924   6.309   7.841   2.319  1.3111  1.2082  0.9393
   38MOL    H1111925   6.406   7.866   2.848 -1.6006 -1.7719 -0.9766
   38MOL    H1211926   6.579   8.012   2.787  0.1688 -0.2706  0.5667
   38MOL    H1311927   6.583   8.119   2.554 -2.0773  1.4802 -0.3817
   38MOL    H1411928   6.426   8.035   2.390 -1.4691 -0.1755  0.0050
   38MOL    H1511929   6.133   8.027   2.352  0.5691  0.8782  1.4849
   38MOL    H1611930   6.079   7.955   2.504 -0.6700 -1.8775  0.0692
   38MOL    H1711931   6.224   7.754   2.435  1.1309 -0.1763  0.9143
   38MOL    C1811932   6.010   7.840   2.331  0.6220  0.0020  0.7717
   38MOL    C1911933   6.053   7.801   2.190 -0.2680 -1.2391  0.6157
   38MOL    C2011934   6.107   7.671   2.165 -0.5686  0.1961 -0.0139
   38MOL   Cl2111935   6.113   7.547   2.286 -0.2341  0.0473  0.2249
   38MOL    C2211936   6.143   7.624   2.038 -0.5092  0.3276 -0.3441
   38MOL    C2311937   6.153   7.721   1.932  0.2337 -0.0315  0.2467
   38MOL    C2411938   6.108   7.850   1.951  0.3268 -0.3216  0.3199
   38MOL    C2511939   6.064   7.895   2.080  0.1451 -0.0801 -0.4885
   38MOL    C2611940   5.879   7.912   2.317  0.2452  0.1521 -0.2669
   38MOL    H2711941   5.979   7.756   2.394 -1.2254  1.0607  1.3144
   38MOL    H2811942   6.168   7.520   2.022  0.7615  0.4787  0.6447
   38MOL    H2911943   6.174   7.710   1.826 -1.1226  1.2454 -0.1661
   38MOL    H3011944   6.126   7.918   1.869  0.0604 -1.0744 -0.3636
   38MOL    H3111945   6.035   7.999   2.091 -1.8090 -0.5755 -0.8029
   38MOL    H3211946   5.822   7.834   2.266 -0.6104 -0.6709  1.8861
   38MOL    H3311947   5.891   7.999   2.253  0.3608  0.0134 -0.4336
   38MOL    C3411948   5.798   7.951   2.443  0.4418  0.3614 -0.0566
   38MOL    C3511949   5.802   7.853   2.561  0.6298 -0.2793 -0.2640
   38MOL    C3611950   5.821   7.895   2.695  0.2480 -0.4987 -0.2694
   38MOL   Cl3711951   5.837   8.062   2.740  0.3153 -0.6596 -0.2335
   38MOL    C3811952   5.843   7.796   2.789  0.7403  0.6303  0.1081
   38MOL    C3911953   5.828   7.659   2.760 -0.6998 -0.3413  0.0788
   38MOL    C4011954   5.798   7.619   2.634  0.2583  0.1030  0.1964
   38MOL    C4111955   5.776   7.716   2.531 -0.1871  0.3664  0.5790
   38MOL    C4211956   5.651   7.991   2.412 -0.0212 -0.0700  0.1144
   38MOL    H4311957   5.849   8.039   2.484 -0.7518 -0.0734  2.4627
   38MOL    H4411958   5.856   7.821   2.893 -1.8790 -0.6364  0.7870
   38MOL    H4511959   5.840   7.593   2.845 -0.8595  0.6982  0.9103
   38MOL    H4611960   5.789   7.515   2.607 -1.2497  0.8184 -2.2925
   38MOL    H4711961   5.747   7.701   2.428 -0.2831 -1.2952  0.8411
   38MOL    H4811962   5.614   8.039   2.502  2.3666  1.5152  0.2889
   38MOL    H4911963   5.597   7.897   2.397  0.8731 -0.7359  0.9697
   38MOL    C5011964   5.609   8.101   2.307 -0.5382  0.5572  0.0411
   38MOL    C5111965   5.702   8.220   2.328 -0.9547 -0.2800  0.3962
   38MOL    C5211966   5.777   8.272   2.222 -0.1655  0.1913  0.0181
   38MOL   Cl5311967   5.772   8.208   2.060  0.1562  0.2146  0.2256
   38MOL    C5411968   5.862   8.376   2.242  0.2436 -0.1884  0.1369
   38MOL    C5511969   5.871   0.020   2.364  0.0135  0.8137  0.2603
   38MOL    C5611970   5.795   8.393   2.469  0.0864 -1.2845 -0.4780
   38MOL    C5711971   5.711   8.284   2.456  0.1949  0.9605  1.0235
   38MOL    C5811972   5.462   8.148   2.323  0.3810  0.7300  0.2787
   38MOL    H5911973   5.626   8.065   2.206 -1.7066 -0.9358  0.3573
   38MOL    H6011974   5.920   8.409   2.157  2.8706 -1.9576  1.1499
   38MOL    H6111975   5.948   0.096   2.377  0.7712 -0.1779  1.7093
   38MOL    H6211976   5.806   0.014   2.568 -2.5315 -2.5102  0.3788
   38MOL    H6311977   5.648   8.245   2.535  0.1807  0.7752  0.9220
   38MOL    H6411978   5.459   8.243   2.269 -0.7557 -0.5907 -2.0242
   38MOL    H6511979   5.444   8.169   2.429  0.1508 -0.2540  0.4392
   38MOL    C6611980   5.357   8.056   2.264 -0.5563  0.6169 -0.7807
   38MOL    C6711981   5.334   8.084   2.119  0.0834  0.9463  1.0442
   38MOL    C6811982   5.405   8.015   2.014 -0.6312 -0.5789  0.0332
   38MOL   Cl6911983   5.526   7.896   2.051 -0.0939  0.0059  0.1235
   38MOL    C7011984   5.377   8.043   1.878  0.0044  0.2868 -0.0122
   38MOL    C7111985   5.277   8.139   1.842  0.7144 -0.5022 -0.0197
   38MOL    C7211986   5.216   8.213   1.946 -0.1645  0.2594 -0.2916
   38MOL    C7311987   5.240   8.185   2.080 -0.2159 -0.1382 -0.1741
   38MOL    C7411988   5.231   8.065   2.346  0.5364 -0.3780 -1.0409
   38MOL    H7511989   5.389   7.953   2.274  2.9943  1.8974  2.1240
   38MOL    H7611990   5.436   8.000   1.797 -0.7575 -1.4971  0.3624
   38MOL    H7711991   5.261   8.164   1.738 -1.7872  0.4087  0.5281
   38MOL    H7811992   5.146   8.291   1.919  0.5736  0.7556 -0.7710
   38MOL    H7911993   5.185   8.237   2.158 -0.1985  1.2148 -1.0362
   38MOL    H8011994   5.153   8.023   2.282  0.3890  0.0270 -1.1309
   38MOL    H8111995   5.202   8.169   2.364  3.2500 -0.1144  2.2147
   38MOL    C8211996   5.225   7.986   2.476  0.6179 -0.5453  0.8400
   38MOL    C8311997   5.244   7.835   2.465  0.5251 -0.4701  0.0985
   38MOL    C8411998   5.327   7.765   2.560  0.2480 -0.0854 -0.2305
   38MOL   Cl8511999   5.413   7.844   2.693  0.0839 -0.0984 -0.1256
   38MOL    C8612000   5.356   7.626   2.539 -0.4485 -0.3719 -0.5540
   38MOL    C8712001   5.307   7.559   2.425 -0.4962 -0.0732 -0.8136
   38MOL    C8812002   5.223   7.627   2.335 -0.3656 -1.3459  0.0966
   38MOL    C8912003   5.189   7.761   2.357 -0.2661  0.3460 -0.8146
   38MOL    C9012004   5.103   8.016   2.561  0.1845 -0.2146  0.9608
   38MOL    H9112005   5.309   8.027   2.531  2.1828 -1.7177 -0.6547
   38MOL    H9212006   5.402   7.566   2.616  1.4664  0.9651 -0.6418
   38MOL    H9312007   5.332   7.456   2.406  0.3816 -0.2272  1.0983
   38MOL    H9412008   5.185   7.565   2.256 -0.5468 -0.6155 -0.3957
   38MOL    H9512009   5.123   7.803   2.283 -0.4157 -2.5423 -2.4010
   38MOL    H9612010   5.105   7.950   2.647 -0.9264 -0.2809  0.9496
   38MOL    H9712011   5.010   7.990   2.508  0.3634  0.1111  0.4830
   38MOL    C9812012   5.101   8.153   2.631  0.4882 -0.5479  0.4018
   38MOL    C9912013   5.203   8.180   2.742 -0.1884 -0.2918  0.0625
   38MOL   C10012014   5.292   8.291   2.734 -0.4087 -0.0715  0.1874
   38MOL  Cl10112015   5.284   8.397   2.599 -0.3739 -0.2637 -0.2980
   38MOL   C10212016   5.404   8.301   2.817  0.3489  0.2082  0.4701
   38MOL   C10312017   5.416   8.211   2.925 -0.7710  0.2458 -0.1542
   38MOL   C10412018   5.313   8.120   2.955  0.2899 -0.0829  0.0567
   38MOL   C10512019   5.205   8.101   2.861  0.5031 -0.2429 -0.6664
   38MOL   C10612020   4.952   8.207   2.694  0.5187 -0.3519  0.2282
   38MOL   H10712021   5.122   8.215   2.544 -1.1154 -2.2288 -1.2412
   38MOL   H10812022   5.488   8.365   2.794  1.3439 -1.0797  0.4702
   38MOL   H10912023   5.505   8.205   2.985 -0.9676  1.2768  0.2346
   38MOL   H11012024   5.330   8.057   3.041 -0.1463 -0.6664 -0.2816
   38MOL   H11112025   5.123   8.036   2.885 -0.5155  2.2849  3.3431
   38MOL   H11212026   4.971   8.292   2.760  1.0773 -0.8509  0.7135
   38MOL   H11312027   4.913   8.133   2.764  1.7177 -0.6412  0.5978
   38MOL   C11412028   4.841   8.219   2.583 -0.3996 -0.1086 -0.3187
   38MOL   C11512029   4.887   8.293   2.453 -0.4874 -0.0449  0.1214
   38MOL   C11612030   4.874   8.228   2.329 -0.0468  0.2864  0.2014
   38MOL  Cl11712031   4.795   8.071   2.323  0.1418  0.0301  0.1134
   38MOL   C11812032   4.933   8.276   2.209  0.7732  0.3401 -0.7537
   38MOL   C11912033   4.983   8.409   2.213  0.2126 -0.3830  0.1735
   38MOL   C12012034   4.983   0.065   2.335 -0.6436  0.1924 -0.2387
   38MOL   C12112035   4.938   0.008   2.456  0.1843  0.1276  0.0671
   38MOL   C12212036   4.711   8.285   2.622  0.7488  0.3283 -0.1641
   38MOL   H12312037   4.821   8.113   2.569 -0.1327 -0.4677  1.8762
   38MOL   H12412038   4.936   8.225   2.115 -0.4998  1.1611 -1.2550
   38MOL   H12512039   5.032   0.023   2.123 -0.9609  3.8496  1.0488
   38MOL   H12612040   5.028   0.163   2.338  0.6295 -0.2962 -2.4002
   38MOL   H12712041   4.950   0.062   2.549  0.1780  1.2081 -0.5561
   38MOL   H12812042   4.639   8.244   2.550  0.6792  0.2240 -0.0350
   38MOL   H12912043   4.708   8.393   2.613  1.3679  0.4041  0.5118
   38MOL   C13012044   4.656   8.252   2.759 -0.9803  0.0260 -0.2214
   38MOL   C13112045   4.521   8.177   2.746  0.5428 -0.0301 -0.2111
   38MOL   C13212046   4.517   8.035   2.731  0.8596  0.3947 -0.6993
   38MOL  Cl13312047   4.655   7.931   2.709  0.0768  0.0625 -0.0547
   38MOL   C13412048   4.397   7.963   2.750  0.1689  0.4543  0.9340
   38MOL   C13512049   4.271   8.027   2.766 -0.1024  0.0426  0.5424
   38MOL   C13612050   4.274   8.165   2.767 -0.2736 -0.3285  0.0348
   38MOL   C13712051   4.395   8.242   2.750  0.0717  0.7599  0.0019
   38MOL   C13812052   4.648   8.375   2.854  0.7379 -0.0432  0.4079
   38MOL   H13912053   4.723   8.185   2.812 -1.3358 -0.9363 -0.9604
   38MOL   H14012054   4.398   7.855   2.746 -0.1774  0.5001 -2.2295
   38MOL   H14112055   4.178   7.973   2.777 -0.4906  0.8154  1.0723
   38MOL   H14212056   4.187   8.227   2.783  2.4752  2.9528  3.2011
   38MOL   H14312057   4.387   8.349   2.756  0.5557  0.7395  1.1398
   38MOL   H14412058   4.578   8.351   2.934  0.1469 -0.5734 -0.2703
   38MOL   H14512059   4.581   0.025   2.805 -0.1106 -0.9419  0.2776
   38MOL   C14612060   4.765   0.046   2.889  0.1663  0.4402 -0.5777
   38MOL   C14712061   4.878   8.404   2.973 -0.0065 -0.2759 -0.0897
   38MOL   C14812062   5.009   0.042   2.977 -0.7142 -0.4432 -0.0083
   38MOL  Cl14912063   5.056   0.165   2.869 -0.1339 -0.2523 -0.1598
   38MOL   C15012064   5.107   8.402   3.056  0.6701 -0.1886  0.5491
   38MOL   C15112065   5.077   8.279   3.129 -0.2661 -0.8167  0.7784
   38MOL   C15212066   4.954   8.224   3.125  0.4597  0.1210  0.1827
   38MOL   C15312067   4.853   8.286   3.050 -0.8767  0.4812 -1.5287
   38MOL   C15412068   4.722   0.179   2.954  0.1251 -0.2442  0.1891
   38MOL   H15512069   4.820   0.063   2.796 -0.1483 -1.2713 -1.0857
   38MOL   H15612070   5.207   0.021   3.052  0.5043  0.2712  0.9426
   38MOL   H15712071   5.152   8.225   3.184 -0.4412  0.3703  2.2178
   38MOL   H15812072   4.932   8.136   3.184  0.5988 -1.0946 -1.5274
   38MOL   H15912073   4.755   8.241   3.050 -0.6193 -0.1111 -0.1167
   38MOL   H16012074   4.814   0.232   2.981  0.4174 -0.9013  0.5029
   38MOL   H16112075   4.660   0.147   3.038  0.6427  1.2769  1.1748
   38MOL   C16212076   4.643   0.282   2.871 -0.1162  0.2721 -0.6955
   38MOL   C16312077   4.694   0.298   2.726  0.2308  0.5037  0.7431
   38MOL   C16412078   4.617   0.271   2.614 -0.2785  0.2602  0.3547
   38MOL  Cl16512079   4.449   0.226   2.625 -0.4680 -0.2593 -0.3930
   38MOL   C16612080   4.672   0.288   2.486  0.0568 -0.2476 -0.6577
   38MOL   C16712081   4.800   0.338   2.465  0.2666  0.2230  0.1133
   38MOL   C16812082   4.875   0.354   2.585 -0.0529 -0.2925  0.7689
   38MOL   C16912083   4.821   0.346   2.713 -0.2200  0.2648 -0.3513
   38MOL   C17012084   4.615   0.412   2.938 -0.2323 -0.1645 -0.0469
   38MOL   H17112085   4.548   0.230   2.860 -1.2226  1.8106  1.4473
   38MOL   H17212086   4.611   0.264   2.400 -2.3241  1.1395  0.6037
   38MOL   H17312087   4.842   0.349   2.366  1.1781 -1.5696  0.2924
   38MOL   H17412088   4.977   0.381   2.561 -0.3502 -1.3446 -1.8358
   38MOL   H17512089   4.874   0.372   2.803 -0.6827 -1.6122  0.4641
   38MOL   H17612090   4.713   0.460   2.940 -0.6498  0.7055 -0.0693
   38MOL   H17712091   4.587   0.383   3.039 -0.0502  1.8546  0.6059
   38MOL   C17812092   4.503   0.499   2.885 -0.5952  0.0147 -0.1438
   38MOL   C17912093   4.543   0.622   2.811 -0.4431 -0.1429  0.1778
   38MOL   C18012094   4.498   0.646   2.678 -0.3173 -0.4599  0.4272
   38MOL  Cl18112095   4.398   0.537   2.588  0.0842  0.2236 -0.3412
   38MOL   C18212096   4.525   0.770   2.625 -0.2517 -0.4752 -0.1597
   38MOL   C18312097   4.608   0.868   2.685 -0.4418 -0.8065  0.2306
   38MOL   C18412098   4.676   0.830   2.807  0.3313 -0.0097 -0.0339
   38MOL   C18512099   4.642   0.709   2.874 -0.0873  0.1499 -0.0522
   38MOL   C18612100   4.398   0.531   2.997 -0.4787 -0.2072 -0.3682
   38MOL   H18712101   4.449   0.433   2.818  0.0607 -1.4015  0.7065
   38MOL   H18812102   4.490   0.791   2.525 -1.9164 -2.7531 -0.0810
   38MOL   H18912103   4.636   0.955   2.627 -2.1472 -0.5336 -0.2224
   38MOL   H19012104   4.744   0.892   2.863 -0.1049  1.0877 -0.7005
   38MOL   H19112105   4.681   0.686   2.972  2.0643 -0.7887 -1.0888
   38MOL   H19212106   4.326   0.608   2.965  0.0596  0.2789 -0.4213
   38MOL   H19312107   4.447   0.587   3.077 -1.7147 -0.1627  0.3865
   38MOL   C19412108   4.305   0.410   3.050 -0.1781  0.1107  0.2431
   38MOL   C19512109   4.214   0.365   2.941 -0.1375 -0.8603 -0.5836
   38MOL   C19612110   4.219   0.226   2.905 -0.3042 -0.5470  0.3233
   38MOL  Cl19712111   4.316   0.106   2.990  0.2662  0.0380 -0.0993
   38MOL   C19812112   4.142   0.184   2.793  0.2656  0.0959  0.1963
   38MOL   C19912113   4.045   0.266   2.743 -0.9792 -0.1646 -0.1188
   38MOL   C20012114   4.043   0.408   2.769  0.4103  0.0501 -0.8282
   38MOL   C20112115   4.131   0.459   2.871  0.2657 -0.2896 -0.3847
   38MOL   C20212116   4.212   0.445   3.166 -0.0305 -0.3959 -0.5671
   38MOL   H20312117   4.358   0.325   3.094 -2.2465 -0.9317  0.7481
   38MOL   H20412118   4.128   0.082   2.762  1.4907 -0.6762  2.1409
   38MOL   H20512119   3.977   0.219   2.672  1.4644 -0.3306 -2.4309
   38MOL   H20612120   3.970   0.470   2.719  1.9679  1.0084 -1.9553
   38MOL   H20712121   4.130   0.566   2.885  1.5160 -0.1600 -1.2008
   38MOL   H20812122   4.138   0.368   3.186 -1.1112  0.4525 -1.2413
   38MOL   H20912123   4.149   0.533   3.152 -1.5424 -1.3023  0.4364
   38MOL   C21012124   4.305   0.462   3.288  0.3298 -0.0961 -0.0386
   38MOL   C21112125   4.379   0.328   3.329 -0.2694 -0.4519  0.9630
   38MOL   C21212126   4.517   0.327   3.345 -0.4369  0.5541 -0.1720
   38MOL  Cl21312127   4.614   0.466   3.303 -0.0688 -0.2871  0.5050
   38MOL   C21412128   4.588   0.217   3.401  0.1199 -0.5954  0.1401
   38MOL   C21512129   4.516   0.103   3.433  0.1645  0.1359 -0.0321
   38MOL   C21612130   4.385   0.090   3.398 -0.1261 -0.3368  0.0441
   38MOL   C21712131   4.311   0.204   3.361 -0.1392 -0.5178  0.2484
   38MOL   C21812132   4.240   0.522   3.416  0.5132 -0.5901 -0.1246
   38MOL   H21912133   4.369   0.543   3.252  0.7540 -0.0173  0.8636
   38MOL   H22012134   4.694   0.213   3.419 -0.1280 -0.6041  1.7176
   38MOL   H22112135   4.573   0.019   3.469  1.1402  1.0190  0.5004
   38MOL   H22212136   4.334   8.415   3.404 -0.9578  0.0348 -1.1034
   38MOL   H22312137   4.205   0.199   3.339  0.1487 -0.9422 -1.0691
   38MOL   H22412138   4.315   0.514   3.495  0.0560 -1.8443  0.1941
   38MOL   H22512139   4.157   0.458   3.447  1.3664 -1.7255 -0.1434
   38MOL   C22612140   4.188   0.668   3.413  0.7142  0.3234  0.8571
   38MOL   C22712141   4.282   0.774   3.350  0.4042  0.0114 -0.2049
   38MOL   C22812142   4.235   0.865   3.252 -0.5365 -0.0991 -0.3768
   38MOL  Cl22912143   4.068   0.882   3.206 -0.0225 -0.3352  0.1748
   38MOL   C23012144   4.332   0.959   3.198 -0.5401  0.0086 -0.1746
   38MOL   C23112145   4.469   0.958   3.229  0.1670 -0.3935  0.0254
   38MOL   C23212146   4.510   0.846   3.304  0.0685  0.7816  0.5875
   38MOL   C23312147   4.418   0.764   3.376  0.2758 -0.0381  0.2318
   38MOL   C23412148   4.132   0.708   3.554 -0.8069  0.4996 -0.2265
   38MOL   H23512149   4.103   0.664   3.345  1.3312 -0.2913  0.1027
   38MOL   H23612150   4.298   1.027   3.121 -0.8409 -0.0573 -0.1021
   38MOL   H23712151   4.541   1.021   3.179 -0.7753  1.2752  0.7377
   38MOL   H23812152   4.615   0.825   3.309 -0.1334  0.2486  2.9170
   38MOL   H23912153   4.470   0.698   3.445  0.4347 -1.5520 -1.2952
   38MOL   H24012154   4.137   0.816   3.563  1.9203  0.4613 -0.9611
   38MOL   H24112155   4.201   0.688   3.636  0.4253 -4.2153 -2.2503
   38MOL   C24212156   3.997   0.648   3.590  0.3879 -0.7862 -0.3434
   38MOL   C24312157   3.888   0.753   3.542 -0.9435  0.1372 -0.7038
   38MOL   C24412158   3.822   0.726   3.421 -0.3960  0.4151  0.1744
   38MOL  Cl24512159   3.847   0.590   3.329  0.0750 -0.3760  0.2621
   38MOL   C24612160   3.732   0.825   3.367 -0.8014 -0.3840  0.3700
   38MOL   C24712161   3.728   0.952   3.417 -0.3330 -0.6851  0.3081
   38MOL   C24812162   3.804   0.982   3.529 -0.3169 -0.0648  0.4359
   38MOL   C24912163   3.877   0.880   3.599 -0.3529  0.0295 -0.5802
   38MOL   C25012164   3.982   0.621   3.744 -0.1363  0.9398  0.1638
   38MOL   H25112165   3.982   0.558   3.532  1.9541 -1.9699  1.0421
   38MOL   H25212166   3.673   0.795   3.282 -1.5976  0.3119  0.6599
   38MOL   H25312167   3.659   1.021   3.370  1.0608 -0.8185 -1.9750
   38MOL   H25412168   3.817   1.085   3.560  0.2281  0.3788 -1.2266
   38MOL   H25512169   3.940   0.908   3.683 -0.0044 -1.1167 -0.4437
   38MOL   H25612170   3.878   0.629   3.779  0.3670  2.6484  1.3745
   38MOL   H25712171   4.019   0.706   3.801  0.3750  0.8678 -0.0634
   38MOL   C25812172   4.038   0.489   3.801  0.0055  0.6020 -0.1141
   38MOL   C25912173   3.937   0.370   3.796  0.6351  0.2166  0.3284
   38MOL   C26012174   3.942   0.267   3.693 -0.5280  0.2559 -0.4294
   38MOL  Cl26112175   4.061   0.259   3.574  0.1737 -0.0200 -0.2225
   38MOL   C26212176   3.841   0.164   3.696 -0.2107 -0.0984 -0.4062
   38MOL   C26312177   3.742   0.168   3.791 -0.1661  0.4502 -0.9713
   38MOL   C26412178   3.736   0.269   3.888  0.4829  0.4145  0.1766
   38MOL   C26512179   3.833   0.370   3.893  0.2144  0.0629 -0.3446
   38MOL   C26612180   4.090   0.508   3.946 -0.2152 -1.2645 -0.2186
   38MOL   H26712181   4.134   0.476   3.751 -0.1701  0.2568 -0.3628
   38MOL   H26812182   3.831   0.085   3.623 -2.8658 -1.0161  0.8783
   38MOL   H26912183   3.658   0.100   3.782  0.0146  0.0012  0.6631
   38MOL   H27012184   3.651   0.268   3.954  0.6687 -1.3553  0.4016
   38MOL   H27112185   3.825   0.447   3.969 -1.2257 -1.1370  0.7553
   38MOL   H27212186   4.117   0.408   3.981 -1.2091 -1.0918  1.0466
   38MOL   H27312187   4.007   0.539   4.009  0.5648 -0.8868  0.6448
   38MOL   C27412188   4.227   0.586   3.985  0.1830  0.0203 -0.2038
   38MOL   C27512189   4.348   0.564   3.899  0.6500  0.3921 -0.7702
   38MOL   C27612190   4.446   0.666   3.887  0.3739 -0.3515 -0.3321
   38MOL  Cl27712191   4.454   0.803   3.993  0.4537 -0.3654 -0.6577
   38MOL   C27812192   4.547   0.654   3.793 -0.3881 -0.2680  0.1618
   38MOL   C27912193   4.564   0.532   3.719 -0.4243  1.0045  0.4891
   38MOL   C28012194   4.469   0.429   3.739 -0.0728 -0.1314  0.1612
   38MOL   C28112195   4.367   0.440   3.827  0.3898  0.4197 -0.9497
   38MOL   C28212196   4.272   0.564   4.124  0.5231 -0.2212  0.0038
   38MOL   H28312197   4.199   0.689   3.962  1.2928 -0.2445 -2.8822
   38MOL   H28412198   4.617   0.734   3.778  1.2233 -1.4191  1.3671
   38MOL   H28512199   4.646   0.520   3.649  0.8844 -1.0908  2.3241
   38MOL   H28612200   4.476   0.336   3.685 -0.8104  0.0125 -0.1782
   38MOL   H28712201   4.291   0.364   3.834  0.8146  0.1959  1.6338
   38MOL   H28812202   4.367   0.613   4.146  1.3436 -1.2200 -1.2687
   38MOL   H28912203   4.291   0.457   4.127  0.8610 -0.1507  0.4201
   38MOL   C29012204   4.172   0.590   4.240 -0.2474  0.7168  0.1512
   38MOL   C29112205   4.113   0.726   4.227  0.3369 -0.0834  0.3288
   38MOL   C29212206   3.978   0.752   4.205  0.2853 -0.0383 -0.4081
   38MOL  Cl29312207   3.855   0.632   4.212  0.2199 -0.1725 -0.1376
   38MOL   C29412208   3.932   0.879   4.180  0.1349  0.1933 -0.4365
   38MOL   C29512209   4.015   0.994   4.171 -0.6320  0.0582  0.2289
   38MOL   C29612210   4.152   0.973   4.197 -0.1420  0.2009  0.3675
   38MOL   C29712211   4.197   0.843   4.223 -0.0044 -0.2583  0.0252
   38MOL   C29812212   4.243   0.565   4.377 -0.0358 -0.1354  0.7592
   38MOL   H29912213   4.088   0.521   4.227  0.0522  0.3591  0.1269
   38MOL   H30012214   3.825   0.893   4.181 -0.0199 -0.8802 -0.6654
   38MOL   H30112215   3.973   1.091   4.150 -1.5776 -0.1339  1.2320
   38MOL   H30212216   4.225   1.050   4.183 -2.1046  1.7570 -1.7192
   38MOL   H30312217   4.305   0.836   4.226 -0.0224 -0.2707  1.0866
   38MOL   H30412218   4.331   0.628   4.384 -0.3392  0.5280 -0.9975
   38MOL   H30512219   4.281   0.463   4.382 -1.1513 -0.6426 -0.7055
   38MOL   C30612220   4.152   0.593   4.503 -0.5231 -0.0139 -0.2761
   38MOL   C30712221   4.236   0.588   4.631  0.3872 -0.1823 -0.5294
   38MOL   C30812222   4.279   0.703   4.701  0.0645 -0.1198  0.5534
   38MOL  Cl30912223   4.222   0.864   4.655  0.3258  0.1082 -0.2877
   38MOL   C31012224   4.358   0.690   4.813 -0.2632  0.4152 -0.4375
   38MOL   C31112225   4.403   0.566   4.857  0.4420 -0.6660 -0.2315
   38MOL   C31212226   4.369   0.449   4.786 -0.3183 -0.0915  0.6898
   38MOL   C31312227   4.289   0.459   4.675 -1.2564  0.4436  0.1565
   38MOL   C31412228   4.023   0.509   4.512 -0.1040  0.6326 -0.3507
   38MOL   H31512229   4.114   0.696   4.500  0.7569  0.4464 -1.4827
   38MOL   H31612230   4.381   0.780   4.870 -1.4422  0.2590  0.3065
   38MOL   H31712231   4.467   0.557   4.944  0.3015  1.9339  0.1673
   38MOL   H31812232   4.405   0.350   4.811 -2.0509 -0.7249  0.7509
   38MOL   H31912233   4.274   0.365   4.624  1.2781  0.6787 -1.0894
   38MOL   H32012234   3.961   0.541   4.596  1.1124 -0.7127  1.0799
   38MOL   H32112235   4.044   0.403   4.526  0.4579  0.7799 -0.0676
   38MOL   H32212236   3.958   0.522   4.425  1.0475  0.2957 -1.2694
   39MOL     C112237   4.160   2.519   2.753 -0.0240  0.1213 -0.4342
   39MOL     C212238   4.286   2.469   2.812  0.6765 -0.1461  0.5323
   39MOL     C312239   4.394   2.551   2.841 -0.4243 -0.3132 -0.0961
   39MOL    Cl412240   4.402   2.712   2.784 -0.0502 -0.1322 -0.2463
   39MOL     C512241   4.507   2.495   2.906  0.2762 -0.3970 -0.0019
   39MOL     C612242   4.510   2.360   2.944  0.2176 -0.5779 -0.0521
   39MOL     C712243   4.398   2.281   2.911  0.0114  0.1511  0.2021
   39MOL     C812244   4.285   2.333   2.847 -0.1934 -0.0663  0.8508
   39MOL     C912245   4.055   2.538   2.857 -0.5101 -0.1531 -0.6888
   39MOL    H1012246   4.170   2.612   2.698 -0.9541  0.3108 -0.3046
   39MOL    H1112247   4.591   2.562   2.918  2.2597 -2.6721 -0.8877
   39MOL    H1212248   4.601   2.323   2.989 -0.9553 -2.5506  0.7514
   39MOL    H1312249   4.396   2.176   2.937  2.8804 -0.3779 -1.5029
   39MOL    H1412250   4.196   2.273   2.832 -0.2394  0.7027 -2.3334
   39MOL    H1512251   4.082   2.605   2.939 -0.4385 -0.3571 -0.5447
   39MOL    H1612252   4.038   2.452   2.922 -0.2511  1.7217  1.9648
   39MOL    H1712253   4.123   2.441   2.686 -1.3255 -1.1045  1.6200
   39MOL    C1812254   3.918   2.580   2.801  0.1363  0.2882  1.3047
   39MOL    C1912255   3.925   2.716   2.725 -0.3579  0.2660 -0.1876
   39MOL    C2012256   3.931   2.716   2.585 -0.8968 -0.1651  0.0699
   39MOL   Cl2112257   3.904   2.572   2.494  0.0241  0.3817  0.1212
   39MOL    C2212258   3.930   2.833   2.515 -0.7590 -0.8763 -0.4796
   39MOL    C2312259   3.920   2.955   2.586 -0.4211 -0.2356  0.0334
   39MOL    C2412260   3.926   2.961   2.724  0.1710  0.4620  0.4587
   39MOL    C2512261   3.928   2.840   2.796  0.2673 -0.0063  0.7813
   39MOL    C2612262   3.805   2.570   2.917 -0.0304  0.1971  0.0713
   39MOL    H2712263   3.900   2.492   2.740 -0.7496  1.2179  0.2051
   39MOL    H2812264   3.935   2.831   2.407  2.9992  1.2331 -0.4198
   39MOL    H2912265   3.914   3.047   2.530 -0.7504 -2.1103 -3.1547
   39MOL    H3012266   3.923   3.048   2.789 -1.2864  0.3962  0.4895
   39MOL    H3112267   3.937   2.836   2.904  0.6686 -1.0396  0.7219
   39MOL    H3212268   3.712   2.617   2.885 -1.2774 -1.7144  0.7967
   39MOL    H3312269   3.835   2.639   2.995 -2.2440  1.9593 -0.5973
   39MOL    C3412270   3.766   2.429   2.964  0.2638 -0.0513 -0.4343
   39MOL    C3512271   3.756   2.325   2.855  0.0401 -0.0673  0.6764
   39MOL    C3612272   3.843   2.213   2.837  0.8245 -0.3225 -0.1079
   39MOL   Cl3712273   3.982   2.179   2.933 -0.0341  0.1088  0.3332
   39MOL    C3812274   3.824   2.123   2.731 -0.3327 -0.1345 -0.3945
   39MOL    C3912275   3.721   2.146   2.635  0.3461  0.0012 -0.1646
   39MOL    C4012276   3.630   2.253   2.653 -0.2052 -0.1207  0.4462
   39MOL    C4112277   3.647   2.337   2.762 -0.7621 -0.2235  1.2838
   39MOL    C4212278   3.651   2.435   3.068 -0.0665  0.9364  0.1661
   39MOL    H4312279   3.851   2.394   3.023  0.2486  0.7444  0.0650
   39MOL    H4412280   3.894   2.044   2.710 -1.0538 -0.4200 -1.7852
   39MOL    H4512281   3.715   2.074   2.555  2.7607 -0.7993  0.3199
   39MOL    H4612282   3.552   2.280   2.583  1.1389 -0.9557 -1.3898
   39MOL    H4712283   3.576   2.418   2.766  0.2346  0.7422 -0.3317
   39MOL    H4812284   3.565   2.492   3.032 -1.0857  0.3923  1.7247
   39MOL    H4912285   3.676   2.484   3.163 -1.2787 -0.4800  1.2340
   39MOL    C5012286   3.588   2.297   3.107 -0.1332  0.1524  0.9776
   39MOL    C5112287   3.449   2.319   3.165 -0.2582 -0.4649  0.1320
   39MOL    C5212288   3.337   2.339   3.079 -0.3944  0.4246 -0.1738
   39MOL   Cl5312289   3.350   2.308   2.905 -0.0414 -0.0071 -0.0168
   39MOL    C5412290   3.212   2.364   3.132 -0.8855 -0.1952  0.0081
   39MOL    C5512291   3.188   2.361   3.267 -0.2520  0.3462  0.2765
   39MOL    C5612292   3.299   2.344   3.356  0.4481  0.4097 -0.2225
   39MOL    C5712293   3.430   2.330   3.304 -0.4455  0.6890  0.5081
   39MOL    C5812294   3.685   2.200   3.187 -1.0131  1.0293 -0.4446
   39MOL    H5912295   3.572   2.244   3.013  0.7895 -3.0845  2.5817
   39MOL    H6012296   3.130   2.380   3.064 -1.1906  1.2114  0.7005
   39MOL    H6112297   3.090   2.377   3.310 -0.0503 -1.0213  1.2767
   39MOL    H6212298   3.282   2.344   3.463 -0.8833 -0.4449 -0.4257
   39MOL    H6312299   3.511   2.326   3.376 -0.7002 -0.9289  0.7326
   39MOL    H6412300   3.668   2.221   3.293 -4.2196  0.3745 -0.7622
   39MOL    H6512301   3.789   2.231   3.176  0.2060 -1.3498  3.4710
   39MOL    C6612302   3.680   2.048   3.161 -0.1083 -0.3507  0.4266
   39MOL    C6712303   3.546   1.983   3.203 -0.7343 -0.2172  0.0014
   39MOL    C6812304   3.450   1.946   3.108  0.3455 -0.4658 -0.7159
   39MOL   Cl6912305   3.487   1.919   2.940 -0.2256  0.0954  0.4894
   39MOL    C7012306   3.316   1.933   3.150 -0.1959 -0.3327 -0.2316
   39MOL    C7112307   3.281   1.940   3.286  0.1729  0.1758 -0.6827
   39MOL    C7212308   3.381   1.973   3.377  0.3960  0.3594  0.3468
   39MOL    C7312309   3.516   1.982   3.339 -0.5157  0.5571  0.2903
   39MOL    C7412310   3.811   1.974   3.202 -0.6260 -0.1830 -0.6308
   39MOL    H7512311   3.685   2.059   3.053 -0.2260  0.0525  0.4594
   39MOL    H7612312   3.242   1.906   3.077 -0.7238 -0.1875  0.2531
   39MOL    H7712313   3.181   1.917   3.319  0.6115 -1.3558 -0.3508
   39MOL    H7812314   3.359   1.971   3.483  0.3735 -0.1538  0.3328
   39MOL    H7912315   3.591   2.003   3.413 -1.1021 -3.5551  2.2248
   39MOL    H8012316   3.815   1.993   3.310  1.4433  1.0530 -0.9129
   39MOL    H8112317   3.891   2.031   3.155 -0.7375 -0.4034 -1.0903
   39MOL    C8212318   3.813   1.827   3.158 -0.1064  0.1793  0.7791
   39MOL    C8312319   3.785   1.739   3.273  0.7998 -0.4630 -0.4764
   39MOL    C8412320   3.684   1.641   3.274  0.0771 -0.1503 -0.9523
   39MOL   Cl8512321   3.589   1.612   3.137  0.1758  0.0185 -0.1012
   39MOL    C8612322   3.659   1.574   3.391 -0.3810 -0.3109  1.0701
   39MOL    C8712323   3.738   1.591   3.503  0.4063 -0.3022  0.2112
   39MOL    C8812324   3.851   1.675   3.505  0.2595 -0.2338  0.4366
   39MOL    C8912325   3.878   1.743   3.382 -0.2756 -0.8243 -0.3209
   39MOL    C9012326   3.944   1.785   3.085 -0.3949 -0.3271  0.1723
   39MOL    H9112327   3.733   1.816   3.084  0.6710 -3.5695  0.4237
   39MOL    H9212328   3.584   1.496   3.403  1.4987 -2.1771  1.0261
   39MOL    H9312329   3.713   1.526   3.585  0.2962  0.0646  0.4721
   39MOL    H9412330   3.910   1.677   3.595  1.3071  0.6933 -0.2631
   39MOL    H9512331   3.952   1.822   3.379  1.1834 -2.1557  0.1373
   39MOL    H9612332   4.020   1.758   3.158  0.3973  0.1222 -0.4811
   39MOL    H9712333   3.989   1.868   3.031 -3.2049  0.5995 -0.8594
   39MOL    C9812334   3.936   1.673   2.976 -0.5089 -0.0433  0.1400
   39MOL    C9912335   4.078   1.614   2.944 -0.7928 -0.6210 -0.2849
   39MOL   C10012336   4.117   1.488   3.002 -0.3971  0.1138 -0.1871
   39MOL  Cl10112337   4.024   1.410   3.122  0.1344  0.3414 -0.5113
   39MOL   C10212338   4.241   1.426   2.963 -0.4336  0.8872  0.2968
   39MOL   C10312339   4.326   1.489   2.872  0.0938  0.0254 -0.5838
   39MOL   C10412340   4.291   1.617   2.821  0.8271 -0.1819  0.8229
   39MOL   C10512341   4.169   1.688   2.856 -0.3553  0.3062 -0.2054
   39MOL   C10612342   3.856   1.709   2.848 -0.7403  0.1151  0.2004
   39MOL   H10712343   3.880   1.587   3.012 -0.6857  0.2534  0.5873
   39MOL   H10812344   4.259   1.324   2.994 -1.1385  0.5399 -0.4005
   39MOL   H10912345   4.419   1.450   2.833  0.5935  0.4399  0.1879
   39MOL   H11012346   4.352   1.669   2.749  1.0323 -3.3896 -1.4006
   39MOL   H11112347   4.142   1.780   2.805  2.4483  2.2574  1.6628
   39MOL   H11212348   3.920   1.781   2.797 -0.5073 -1.4525 -1.7965
   39MOL   H11312349   3.758   1.753   2.864 -1.1588 -0.7735  0.1222
   39MOL   C11412350   3.837   1.601   2.735 -0.3515 -0.1914 -0.1025
   39MOL   C11512351   3.808   1.659   2.600 -0.3136 -0.1577 -0.1483
   39MOL   C11612352   3.888   1.638   2.487  0.3941 -0.6953 -0.2510
   39MOL  Cl11712353   4.039   1.551   2.493  0.2714  0.1927 -0.2634
   39MOL   C11812354   3.850   1.696   2.366  0.2096 -0.2864 -0.7631
   39MOL   C11912355   3.729   1.767   2.352 -0.3935  0.2562 -0.5386
   39MOL   C12012356   3.645   1.784   2.460 -0.1890 -0.0888  0.2971
   39MOL   C12112357   3.688   1.731   2.584 -0.0554 -0.2375  0.1518
   39MOL   C12212358   3.734   1.499   2.778  0.4134  0.1959 -0.4004
   39MOL   H12312359   3.928   1.542   2.738 -2.7957 -4.0600  2.0978
   39MOL   H12412360   3.911   1.670   2.281 -0.2083  1.1995 -1.5330
   39MOL   H12512361   3.697   1.796   2.253  1.0134  1.3289 -0.6924
   39MOL   H12612362   3.550   1.834   2.447 -0.1126 -0.4284 -1.6394
   39MOL   H12712363   3.613   1.742   2.662  0.0934  1.6451  0.0524
   39MOL   H12812364   3.635   1.545   2.769  0.0401 -0.3681  0.7904
   39MOL   H12912365   3.738   1.494   2.886 -1.5940 -0.0016 -0.3115
   39MOL   C13012366   3.743   1.362   2.707  0.4231  0.1536  0.2431
   39MOL   C13112367   3.612   1.291   2.725 -0.3252 -0.0318  0.2771
   39MOL   C13212368   3.505   1.300   2.630  0.0456  0.2185 -0.6061
   39MOL  Cl13312369   3.529   1.392   2.486 -0.3320  0.0035  0.5472
   39MOL   C13412370   3.378   1.246   2.660 -0.1542 -0.3756  0.3709
   39MOL   C13512371   3.354   1.164   2.770 -0.0991 -0.2778 -0.0642
   39MOL   C13612372   3.458   1.155   2.868 -0.4823  0.2163 -0.0930
   39MOL   C13712373   3.584   1.212   2.842  0.6603 -0.6535  0.4342
   39MOL   C13812374   3.870   1.286   2.756  0.3592  0.0519  0.0182
   39MOL   H13912375   3.747   1.376   2.599 -1.0315 -4.3363 -0.4889
   39MOL   H14012376   3.295   1.277   2.599  0.0937 -0.3919  0.0245
   39MOL   H14112377   3.254   1.133   2.792 -0.0784  0.4935  1.2005
   39MOL   H14212378   3.436   1.103   2.960 -0.9376 -1.5000 -1.1389
   39MOL   H14312379   3.664   1.206   2.914  2.2831 -0.6467 -1.3232
   39MOL   H14412380   3.855   1.267   2.863 -2.0066 -0.9229 -0.4640
   39MOL   H14512381   3.960   1.343   2.731  0.9573 -0.2471  1.4365
   39MOL   C14612382   3.891   1.151   2.707 -1.3425  0.3578 -0.4433
   39MOL   C14712383   4.018   1.073   2.762 -0.2333 -0.6273 -0.3215
   39MOL   C14812384   4.000   0.956   2.838 -0.0655  0.3560  0.4809
   39MOL  Cl14912385   3.842   0.886   2.867  0.5111  0.1751 -0.0327
   39MOL   C15012386   4.115   0.881   2.886 -0.7965 -0.2050  0.2674
   39MOL   C15112387   4.245   0.932   2.866  0.1991  0.1916  0.4065
   39MOL   C15212388   4.262   1.058   2.802  0.1154 -0.2226 -0.0860
   39MOL   C15312389   4.147   1.128   2.750  0.0781 -0.5027 -0.1449
   39MOL   C15412390   3.891   1.138   2.552  0.8261  0.2750 -0.5318
   39MOL   H15512391   3.810   1.086   2.742  0.5671 -2.3233 -0.8725
   39MOL   H15612392   4.092   0.791   2.942  0.3323  0.0377  1.1326
   39MOL   H15712393   4.335   0.876   2.885  1.7423  0.7611 -4.6037
   39MOL   H15812394   4.360   1.098   2.781 -0.5231  1.5218  0.1484
   39MOL   H15912395   4.154   1.215   2.686  0.9822  0.3024  1.0203
   39MOL   H16012396   3.983   1.088   2.522 -0.3180 -1.4402 -1.2279
   39MOL   H16112397   3.902   1.240   2.514  2.6463  1.0338  1.8743
   39MOL   C16212398   3.771   1.064   2.491  0.2685  0.3370  0.4784
   39MOL   C16312399   3.783   0.912   2.513  0.7413 -0.3531  0.3413
   39MOL   C16412400   3.677   0.841   2.575 -0.7664  0.1481  0.3733
   39MOL  Cl16512401   3.532   0.914   2.629  0.2484 -0.4043 -0.2307
   39MOL   C16612402   3.694   0.700   2.594  0.6263 -0.0551  0.1250
   39MOL   C16712403   3.800   0.628   2.542  0.1280  0.1803 -0.6910
   39MOL   C16812404   3.907   0.698   2.481 -0.2630 -0.0797 -0.3773
   39MOL   C16912405   3.901   0.838   2.473 -0.7742  0.0635  0.5993
   39MOL   C17012406   3.765   1.104   2.339  0.3823 -0.1423 -0.1373
   39MOL   H17112407   3.681   1.102   2.539  0.6594  0.3355  1.2136
   39MOL   H17212408   3.620   0.644   2.649  0.3527 -0.3594 -0.5422
   39MOL   H17312409   3.797   0.520   2.555  1.1606  0.4470  2.0221
   39MOL   H17412410   3.997   0.642   2.460  1.2815  2.0735  0.2735
   39MOL   H17512411   3.991   0.884   2.436 -0.6382 -2.4011 -2.3514
   39MOL   H17612412   3.863   1.074   2.301  0.3388 -0.5485  0.0590
   39MOL   H17712413   3.755   1.211   2.327 -0.7939 -0.2741 -0.3614
   39MOL   C17812414   3.644   1.036   2.266  0.2442 -0.1325  0.7093
   39MOL   C17912415   3.671   1.017   2.115  0.0168  0.0161  0.7432
   39MOL   C18012416   3.733   0.900   2.060 -1.0144 -0.4080  0.6259
   39MOL  Cl18112417   3.793   0.762   2.135  0.1643 -0.0175 -0.2939
   39MOL   C18212418   3.735   0.896   1.918 -0.1239 -0.3353 -0.0929
   39MOL   C18312419   3.691   1.001   1.838  0.0693 -0.0577 -0.6808
   39MOL   C18412420   3.658   1.125   1.893  0.1154 -0.1459 -0.0843
   39MOL   C18512421   3.646   1.134   2.032  0.0779  0.3082 -0.1503
   39MOL   C18612422   3.507   1.102   2.300 -0.6365  0.9083  0.0108
   39MOL   H18712423   3.644   0.935   2.307 -1.8542  0.0859  1.3055
   39MOL   H18812424   3.766   0.805   1.867 -0.0912  0.5283 -1.6664
   39MOL   H18912425   3.691   0.982   1.732 -1.9347  1.3041 -0.9520
   39MOL   H19012426   3.619   1.208   1.836  0.4246 -1.7655 -2.7707
   39MOL   H19112427   3.627   1.231   2.076 -1.9560  0.1766 -0.6751
   39MOL   H19212428   3.499   1.204   2.264  2.8652  1.3860  0.3840
   39MOL   H19312429   3.496   1.113   2.408 -0.3431 -1.1653  0.2784
   39MOL   C19412430   3.393   1.002   2.260  0.1415  0.3684 -0.2877
   39MOL   C19512431   3.341   1.037   2.121 -0.3142 -0.4273  0.1609
   39MOL   C19612432   3.309   0.933   2.025  0.2313  0.0145  0.4135
   39MOL  Cl19712433   3.332   0.764   2.065 -0.0367  0.1497 -0.2660
   39MOL   C19812434   3.237   0.966   1.907  0.7979  0.1806  0.2138
   39MOL   C19912435   3.197   1.100   1.877  0.3626 -0.2555 -0.9352
   39MOL   C20012436   3.242   1.201   1.964  1.0003 -0.1966  1.0791
   39MOL   C20112437   3.311   1.167   2.080  0.7405  0.1569  0.4489
   39MOL   C20212438   3.276   1.010   2.361  0.0249 -0.3774 -0.1575
   39MOL   H20312439   3.440   0.904   2.270 -1.9907 -0.6211  0.3540
   39MOL   H20412440   3.198   0.892   1.839  1.8555 -0.0852 -0.1018
   39MOL   H20512441   3.134   1.126   1.794  1.9045 -0.7324 -2.2906
   39MOL   H20612442   3.230   1.307   1.944  2.5614  0.0674  1.4247
   39MOL   H20712443   3.338   1.255   2.136 -1.0019  1.5717 -0.8638
   39MOL   H20812444   3.219   1.100   2.341 -1.3253 -1.1449  0.2127
   39MOL   H20912445   3.322   1.013   2.460  0.2492 -1.9414 -0.1939
   39MOL   C21012446   3.168   0.890   2.363 -0.1463  1.4729  0.0074
   39MOL   C21112447   3.045   0.932   2.448 -0.4422 -0.9158  0.5944
   39MOL   C21212448   2.915   0.932   2.397 -0.2642  0.4774  0.0126
   39MOL  Cl21312449   2.863   0.876   2.238  0.4453  0.1686  0.1454
   39MOL   C21412450   2.806   0.956   2.487 -0.4139  1.1418 -0.1841
   39MOL   C21512451   2.834   0.972   2.626  0.0079 -0.6534 -0.3283
   39MOL   C21612452   2.969   0.994   2.673  0.1644 -0.2168  0.9631
   39MOL   C21712453   3.076   0.969   2.583 -0.7444  0.4625 -0.0225
   39MOL   C21812454   3.228   0.755   2.419 -0.5071 -0.5699  0.1335
   39MOL   H21912455   3.132   0.871   2.262  0.0088  2.1217 -0.1755
   39MOL   H22012456   2.705   0.930   2.461 -0.4624  0.0903  0.9917
   39MOL   H22112457   2.748   0.965   2.691  0.0524  0.9071 -0.0914
   39MOL   H22212458   2.981   1.010   2.779  1.3119 -1.8371  1.1080
   39MOL   H22312459   3.181   0.971   2.609 -0.0425  1.9454 -2.8546
   39MOL   H22412460   3.259   0.783   2.520 -2.5670  2.1810  0.0495
   39MOL   H22512461   3.325   0.741   2.371 -0.0653  0.5800  0.6597
   39MOL   C22612462   3.138   0.628   2.445 -0.2640 -0.6391  0.6306
   39MOL   C22712463   3.218   0.544   2.545  0.4486  0.0804 -0.0592
   39MOL   C22812464   3.161   0.504   2.668  0.2829 -0.0487 -0.2176
   39MOL  Cl22912465   3.005   0.547   2.721  0.2566 -0.1765  0.0609
   39MOL   C23012466   3.236   0.438   2.766  0.4979 -0.0627  0.3179
   39MOL   C23112467   3.377   0.409   2.744 -0.4113 -0.5622  0.3956
   39MOL   C23212468   3.430   0.445   2.619  0.0068 -0.1703  0.1708
   39MOL   C23312469   3.348   0.508   2.517  0.0279 -0.7571  0.1986
   39MOL   C23412470   3.107   0.564   2.309 -0.2111  0.0077  0.5111
   39MOL   H23512471   3.041   0.658   2.484 -0.2449 -1.9643  1.7371
   39MOL   H23612472   3.198   0.427   2.866 -0.6532  3.2118  0.2999
   39MOL   H23712473   3.439   0.354   2.814  0.5990  0.7922  0.5910
   39MOL   H23812474   3.535   0.429   2.600 -0.1694 -1.3316  0.1214
   39MOL   H23912475   3.388   0.536   2.420  1.3325  1.7699  1.4101
   39MOL   H24012476   3.199   0.530   2.261  0.4709  1.8329  0.4973
   39MOL   H24112477   3.063   0.641   2.246 -2.7539 -0.1039  2.0504
   39MOL   C24212478   3.013   0.444   2.319 -0.8040 -0.1598 -0.6844
   39MOL   C24312479   3.041   0.329   2.226 -0.1351 -0.5316  0.1528
   39MOL   C24412480   3.057   0.193   2.267  0.8132 -0.3516  0.2215
   39MOL  Cl24512481   3.043   0.161   2.428  0.1957  0.0250 -0.1386
   39MOL   C24612482   3.081   0.085   2.179  0.5332  0.3760  0.4593
   39MOL   C24712483   3.096   0.119   2.045  0.1826  0.7514  0.0932
   39MOL   C24812484   3.087   0.248   1.994  0.1250  0.2323 -0.4952
   39MOL   C24912485   3.062   0.349   2.086  0.4921 -0.4962 -0.1203
   39MOL   C25012486   2.868   0.485   2.305  0.5249  0.2566  0.3007
   39MOL   H25112487   3.031   0.409   2.420 -0.9913  0.4653 -0.4274
   39MOL   H25212488   3.086   8.404   2.215 -0.0088 -0.6911 -2.3176
   39MOL   H25312489   3.122   0.039   1.976 -4.5744  1.1134 -2.3660
   39MOL   H25412490   3.083   0.259   1.887 -0.7679  2.4507 -0.2533
   39MOL   H25512491   3.057   0.454   2.059  0.2270 -0.6812 -0.7952
   39MOL   H25612492   2.842   0.517   2.204 -0.6379 -1.4436  0.0479
   39MOL   H25712493   2.852   0.574   2.366 -0.0742  0.1349  0.3215
   39MOL   C25812494   2.766   0.388   2.356  0.0965 -0.2994 -0.2866
   39MOL   C25912495   2.629   0.441   2.305  0.0617  0.3821  0.5615
   39MOL   C26012496   2.555   0.352   2.221  0.2036  0.5180 -0.4564
   39MOL  Cl26112497   2.606   0.190   2.180 -0.2781  0.1525 -0.2214
   39MOL   C26212498   2.432   0.392   2.165 -0.0716 -0.2646  0.6992
   39MOL   C26312499   2.384   0.524   2.188  0.4170  0.3208  0.2687
   39MOL   C26412500   2.451   0.615   2.274  0.7917  0.6771  0.3296
   39MOL   C26512501   2.572   0.568   2.334  0.0509 -0.8579 -0.4173
   39MOL   C26612502   2.759   0.375   2.510  0.4815  1.1032  0.0470
   39MOL   H26712503   2.781   0.294   2.302 -0.8859 -1.3462  1.2369
   39MOL   H26812504   2.379   0.330   2.094  3.0699  0.0914 -2.0832
   39MOL   H26912505   2.297   0.564   2.139 -0.0225  1.9910  2.3465
   39MOL   H27012506   2.403   0.710   2.291  0.4085  0.2442  1.7932
   39MOL   H27112507   2.626   0.628   2.406  2.1835 -1.5117 -1.4288
   39MOL   H27212508   2.753   0.475   2.553 -0.0292  1.0924  0.0020
   39MOL   H27312509   2.853   0.328   2.539  0.7502  1.6502  0.0625
   39MOL   C27412510   2.638   0.287   2.569 -0.9697 -0.2642 -0.0562
   39MOL   C27512511   2.612   0.332   2.711  0.2371  0.3494  0.0053
   39MOL   C27612512   2.503   0.415   2.744  0.3978 -0.3249  0.0707
   39MOL  Cl27712513   2.378   0.465   2.627 -0.2416  0.3700 -0.0438
   39MOL   C27812514   2.486   0.451   2.886  0.4213  0.6660 -0.4171
   39MOL   C27912515   2.585   0.421   2.975 -0.9972  0.3330  1.0542
   39MOL   C28012516   2.703   0.352   2.938  0.2799 -0.2112 -0.3407
   39MOL   C28112517   2.715   0.308   2.813 -0.1086 -0.3817  0.3006
   39MOL   C28212518   2.655   0.133   2.557  0.4405  0.6148 -0.2251
   39MOL   H28312519   2.554   0.321   2.509 -1.1824 -0.3644  0.1870
   39MOL   H28412520   2.409   0.524   2.906  0.3336  0.7124 -0.9078
   39MOL   H28512521   2.570   0.456   3.076 -0.5055  0.8264  0.9619
   39MOL   H28612522   2.778   0.333   3.013  0.1048  1.9682  0.4291
   39MOL   H28712523   2.801   0.249   2.788  0.6917  0.5201  0.9199
   39MOL   H28812524   2.746   0.108   2.611 -1.1776 -4.2492  0.5134
   39MOL   H28912525   2.683   0.116   2.453  1.4841  1.0029 -0.0114
   39MOL   C29012526   2.535   0.041   2.599 -0.0224 -0.7482  0.4426
   39MOL   C29112527   2.537   0.003   2.753 -0.4011 -0.0198 -0.2386
   39MOL   C29212528   2.429   0.028   2.843 -0.5550  0.1950 -0.0873
   39MOL  Cl29312529   2.288   0.114   2.792 -0.1640  0.0433 -0.1500
   39MOL   C29412530   2.440   8.413   2.985  0.5580 -0.5869 -0.5125
   39MOL   C29512531   2.556   8.349   3.031  0.0896  0.2194 -0.4729
   39MOL   C29612532   2.653   8.308   2.938 -0.2798 -0.4046  0.3893
   39MOL   C29712533   2.645   8.346   2.802  0.0588 -0.9988  1.5381
   39MOL   C29812534   2.527   8.330   2.504  0.4779  0.4104 -0.5134
   39MOL   H29912535   2.443   0.097   2.580 -1.4925 -3.3755 -0.4793
   39MOL   H30012536   2.356   0.014   3.049 -0.7382 -1.1628 -1.9846
   39MOL   H30112537   2.569   8.333   3.137  1.2979  0.9234 -0.5136
   39MOL   H30212538   2.742   8.260   2.977 -0.1412  0.3565  1.0258
   39MOL   H30312539   2.725   8.301   2.745 -0.1258 -2.3636  2.3088
   39MOL   H30412540   2.622   8.277   2.516 -0.1480 -0.5410  0.3261
   39MOL   H30512541   2.504   8.368   2.404 -2.0787 -1.2888 -0.5979
   39MOL   C30612542   2.415   8.244   2.539 -0.1514 -0.1181  0.5268
   39MOL   C30712543   2.436   8.111   2.472 -0.4034 -0.4273  0.4097
   39MOL   C30812544   2.501   8.007   2.535  0.5992  0.1911  0.3151
   39MOL  Cl30912545   2.595   8.021   2.686 -0.6986  0.2186 -0.1588
   39MOL   C31012546   2.506   7.880   2.463  0.0970 -0.0575  0.3666
   39MOL   C31112547   2.440   7.867   2.340  0.1310 -0.1981 -0.0185
   39MOL   C31212548   2.394   7.982   2.274 -0.2183  0.2405  0.4685
   39MOL   C31312549   2.395   8.104   2.337 -0.2765 -0.7308 -0.0085
   39MOL   C31412550   2.276   8.309   2.504 -0.4131  0.0018 -0.0465
   39MOL   H31512551   2.420   8.223   2.645 -0.4888  0.1812  0.6018
   39MOL   H31612552   2.547   7.789   2.504 -1.5533 -0.0718  2.0862
   39MOL   H31712553   2.426   7.769   2.296  0.2824 -0.6309  0.8895
   39MOL   H31812554   2.347   7.972   2.177 -1.5249 -0.6140  1.1871
   39MOL   H31912555   2.357   8.190   2.286  0.7608  1.2699  2.4822
   39MOL   H32012556   2.278   8.342   2.400 -0.2536 -0.6839 -0.2655
   39MOL   H32112557   2.254   8.398   2.563  0.5794  0.5894 -0.5590
   39MOL   H32212558   2.196   8.239   2.530  0.9918 -2.4521 -2.1242
   40MOL     C112559   0.620   6.620   2.127 -0.0772  0.8249 -0.8194
   40MOL     C212560   0.637   6.703   2.255  0.1639 -0.3250  0.1192
   40MOL     C312561   0.743   6.795   2.267 -0.4113  0.3741 -0.0924
   40MOL    Cl412562   0.867   6.822   2.152  0.3793 -0.2617 -0.0253
   40MOL     C512563   0.759   6.876   2.381  0.2760  0.9868  0.4834
   40MOL     C612564   0.672   6.855   2.489  0.1895  0.0698 -1.2110
   40MOL     C712565   0.569   6.757   2.485 -0.1569  0.4448 -0.4101
   40MOL     C812566   0.549   6.697   2.362 -0.1522  0.5258 -0.4782
   40MOL     C912567   0.520   6.497   2.141 -0.4999 -0.1875 -0.2991
   40MOL    H1012568   0.575   6.688   2.054 -4.6923 -0.5309  0.5820
   40MOL    H1112569   0.846   6.938   2.394  0.8416  0.1536  0.7582
   40MOL    H1212570   0.685   6.918   2.576  0.8970 -0.9610 -0.5582
   40MOL    H1312571   0.502   6.738   2.568  0.1832 -0.1981 -0.2731
   40MOL    H1412572   0.466   6.631   2.345 -0.0836  0.9374 -2.5793
   40MOL    H1512573   0.419   6.537   2.135  0.1658  1.4878 -0.7455
   40MOL    H1612574   0.526   6.452   2.240  1.2631  3.4987  1.3568
   40MOL    H1712575   0.717   6.585   2.093 -0.6654  0.4763 -2.1818
   40MOL    C1812576   0.545   6.395   2.030 -0.0721  0.2874 -0.1774
   40MOL    C1912577   0.503   6.446   1.898  0.8587 -0.3846 -0.5610
   40MOL    C2012578   0.589   6.466   1.791 -0.0853  1.0123  0.8931
   40MOL   Cl2112579   0.758   6.415   1.807 -0.3962 -0.4376 -0.0456
   40MOL    C2212580   0.552   6.542   1.679 -0.0278 -0.4618  0.0722
   40MOL    C2312581   0.417   6.572   1.658 -0.0106 -0.5968 -0.6277
   40MOL    C2412582   0.326   6.541   1.756  0.1978 -0.0165  0.4050
   40MOL    C2512583   0.369   6.485   1.876  0.4860  0.1256  0.7552
   40MOL    C2612584   0.495   6.253   2.057  0.4045  0.1474  0.3223
   40MOL    H2712585   0.651   6.371   2.036 -0.3205 -0.3231  2.7902
   40MOL    H2812586   0.633   6.557   1.609  0.6597  1.2285  1.2074
   40MOL    H2912587   0.384   6.617   1.566 -0.6139  1.7009  0.6711
   40MOL    H3012588   0.222   6.572   1.750 -0.0253 -0.6106  1.0474
   40MOL    H3112589   0.296   6.485   1.955  0.7668 -0.6778  1.0145
   40MOL    H3212590   0.507   6.194   1.965  1.8009 -0.7845  1.0890
   40MOL    H3312591   0.389   6.266   2.081  0.2599 -0.0469 -0.1856
   40MOL    C3412592   0.569   6.184   2.176 -0.4219 -0.1599  0.0627
   40MOL    C3512593   0.643   6.075   2.117 -0.4514  0.6734  0.1656
   40MOL    C3612594   0.783   6.055   2.126 -0.3340 -0.9622  0.2064
   40MOL   Cl3712595   0.886   6.177   2.193 -0.1623  0.5334  0.7490
   40MOL    C3812596   0.836   5.935   2.081  0.1221 -0.3691 -0.0608
   40MOL    C3912597   0.751   5.831   2.033 -0.2466 -0.2634 -0.0246
   40MOL    C4012598   0.611   5.851   2.027 -0.3196 -0.7691  0.2336
   40MOL    C4112599   0.557   5.970   2.070 -0.4435  0.2203 -0.0756
   40MOL    C4212600   0.465   6.142   2.287  0.2541 -0.0384 -0.2906
   40MOL    H4312601   0.635   6.257   2.222 -0.6953  0.1563 -0.0461
   40MOL    H4412602   0.943   5.924   2.094  0.4993  2.8263 -0.0581
   40MOL    H4512603   0.798   5.738   2.001 -1.1660 -0.2465 -1.4899
   40MOL    H4612604   0.552   5.763   2.002 -0.3960 -0.6266 -0.0948
   40MOL    H4712605   0.450   5.977   2.063 -0.3025  2.7455 -0.3181
   40MOL    H4812606   0.384   6.082   2.246 -1.8084  2.6805 -0.3518
   40MOL    H4912607   0.416   6.236   2.313 -1.4278 -0.6664 -1.1604
   40MOL    C5012608   0.536   6.068   2.408  1.1955 -0.4217 -1.0871
   40MOL    C5112609   0.572   5.919   2.392 -0.3737  0.0090  0.1345
   40MOL    C5212610   0.698   5.864   2.425 -0.0829  0.3272  0.0859
   40MOL   Cl5312611   0.824   5.961   2.492  0.4218 -0.1861  0.0349
   40MOL    C5412612   0.727   5.728   2.407 -0.5559  0.6212 -0.3219
   40MOL    C5512613   0.625   5.640   2.363  0.2111 -0.0984 -0.1154
   40MOL    C5612614   0.490   5.689   2.338 -0.8400 -0.5260  0.3043
   40MOL    C5712615   0.472   5.829   2.350  0.5733  0.9130  0.8100
   40MOL    C5812616   0.443   6.079   2.536 -1.1059  0.0344 -0.4515
   40MOL    H5912617   0.627   6.124   2.430  1.0180  0.8452 -3.4767
   40MOL    H6012618   0.824   5.685   2.429 -1.1018 -0.2765  0.3593
   40MOL    H6112619   0.656   5.539   2.341 -1.1634 -0.7499  0.8467
   40MOL    H6212620   0.421   5.611   2.310 -0.2764 -0.9700  0.1389
   40MOL    H6312621   0.370   5.862   2.334  0.8997  0.9393 -1.2485
   40MOL    H6412622   0.492   6.007   2.602 -0.4391 -0.8434 -1.8753
   40MOL    H6512623   0.341   6.043   2.519 -0.9270 -1.6495  1.8504
   40MOL    C6612624   0.442   6.214   2.604  0.3968  0.7640  0.1344
   40MOL    C6712625   0.577   6.239   2.667  0.1180  0.1287 -0.4621
   40MOL    C6812626   0.677   6.327   2.612  0.3940  0.6966 -0.0594
   40MOL   Cl6912627   0.665   6.378   2.449 -0.1283  0.0161 -0.1967
   40MOL    C7012628   0.805   6.344   2.675  0.4896 -0.1822 -0.6687
   40MOL    C7112629   0.827   6.257   2.788  0.1254 -0.3570  0.4964
   40MOL    C7212630   0.740   6.167   2.840 -1.0178 -0.1520  0.1269
   40MOL    C7312631   0.615   6.158   2.780  0.7404  0.5053  0.0977
   40MOL    C7412632   0.326   6.216   2.709 -0.5307 -0.1483 -0.5552
   40MOL    H7512633   0.423   6.297   2.535 -2.1520 -0.4504 -0.7061
   40MOL    H7612634   0.881   6.410   2.638 -1.2487  2.0045 -0.4633
   40MOL    H7712635   0.926   6.267   2.831  0.5522 -1.0451 -0.3250
   40MOL    H7812636   0.769   6.112   2.928  0.5842  0.5341  0.0508
   40MOL    H7912637   0.537   6.098   2.823 -0.2016  1.1607 -0.6804
   40MOL    H8012638   0.335   6.297   2.782 -0.1242  0.1936 -0.9756
   40MOL    H8112639   0.330   6.120   2.760 -0.0001 -0.8724 -1.9169
   40MOL    C8212640   0.191   6.235   2.634  0.0915  0.0720 -0.1184
   40MOL    C8312641   0.178   6.361   2.547  0.0780 -0.4201 -0.0718
   40MOL    C8412642   0.102   6.363   2.424 -0.4768 -0.2171  0.3012
   40MOL   Cl8512643   8.416   6.233   2.369  0.2397 -0.1835  0.1121
   40MOL    C8612644   0.092   6.484   2.350 -0.2798 -0.1909  0.7899
   40MOL    C8712645   0.164   6.602   2.388  0.1954 -0.0101 -0.2863
   40MOL    C8812646   0.239   6.602   2.505 -0.5440 -0.1603  0.1173
   40MOL    C8912647   0.237   6.484   2.587  0.2973 -0.1584  0.1051
   40MOL    C9012648   0.063   6.209   2.720 -0.0084 -0.3004  0.1573
   40MOL    H9112649   0.183   6.166   2.551  0.7542 -0.8730  0.5914
   40MOL    H9212650   0.029   6.485   2.263 -0.4567 -1.9617  0.8727
   40MOL    H9312651   0.160   6.688   2.324 -0.4573  1.4513  1.6457
   40MOL    H9412652   0.282   6.697   2.533 -0.6993  0.9798 -3.2849
   40MOL    H9512653   0.286   6.501   2.682  0.2876  0.6269 -0.0228
   40MOL    H9612654   8.399   6.218   2.650  0.1175 -1.7631 -0.2030
   40MOL    H9712655   0.048   6.292   2.789  1.7105 -1.8424  2.4032
   40MOL    C9812656   0.060   6.086   2.808  0.0059  0.1789 -0.0824
   40MOL    C9912657   0.125   5.957   2.753 -0.7755 -0.2247 -0.2251
   40MOL   C10012658   0.222   5.873   2.822 -0.6999 -0.0361 -0.3342
   40MOL  Cl10112659   0.269   5.914   2.980  0.1880  0.3463  0.0321
   40MOL   C10212660   0.276   5.753   2.773 -0.4539  0.0975  1.7668
   40MOL   C10312661   0.254   5.725   2.635  0.4660 -0.4216 -0.4359
   40MOL   C10412662   0.155   5.799   2.563  0.4166 -0.1261 -0.1627
   40MOL   C10512663   0.092   5.913   2.623 -0.4648  0.5911 -0.8152
   40MOL   C10612664   8.336   6.037   2.843 -0.3227 -0.9511  0.0004
   40MOL   H10712665   0.119   6.104   2.898  0.1752 -0.5806 -0.0408
   40MOL   H10812666   0.327   5.680   2.834 -0.2239 -0.4158  0.9646
   40MOL   H10912667   0.298   5.645   2.577  0.6128 -0.1579 -0.6874
   40MOL   H11012668   0.133   5.766   2.463 -0.1614  2.8719 -1.0797
   40MOL   H11112669   0.020   5.965   2.563 -1.9586  0.1271  0.5546
   40MOL   H11212670   8.342   5.950   2.908  0.4889  0.2805  1.5980
   40MOL   H11312671   8.285   6.002   2.753 -0.7878 -0.4531  0.0712
   40MOL   C11412672   8.245   6.140   2.922 -0.3264 -0.2789 -0.1685
   40MOL   C11512673   8.316   6.197   3.056 -0.2775 -0.0573  0.1302
   40MOL   C11612674   8.300   6.327   3.102 -0.5315  0.4296  0.2944
   40MOL  Cl11712675   8.185   6.431   3.031  0.2520 -0.4153  0.3185
   40MOL   C11812676   8.375   6.371   3.210  0.4996 -0.0398  0.1036
   40MOL   C11912677   0.037   6.284   3.282  0.0853 -0.1045 -0.1055
   40MOL   C12012678   0.032   6.151   3.244  0.0003  0.4260  0.4007
   40MOL   C12112679   8.385   6.102   3.133  0.1048 -0.4772  0.2877
   40MOL   C12212680   8.107   6.070   2.963 -0.2835  0.9152 -0.7838
   40MOL   H12312681   8.208   6.221   2.859  2.3333  1.1923  0.0896
   40MOL   H12412682   8.360   6.471   3.248  2.4229  0.4807 -0.4383
   40MOL   H12512683   0.082   6.306   3.378  3.4455 -1.2312 -1.3651
   40MOL   H12612684   0.089   6.085   3.307 -0.6115 -0.0008  0.5194
   40MOL   H12712685   8.402   5.998   3.107  0.1376 -0.3736 -0.1133
   40MOL   H12812686   8.057   6.129   3.039  0.0670 -1.5103  1.4106
   40MOL   H12912687   8.126   5.974   3.012  0.7999  1.3412 -0.3494
   40MOL   C13012688   8.016   6.048   2.844 -0.2137  0.3180 -0.1723
   40MOL   C13112689   7.942   6.176   2.797  0.2900 -0.0123  0.6322
   40MOL   C13212690   7.984   6.252   2.686  0.3955 -0.4906  0.5253
   40MOL  Cl13312691   8.137   6.231   2.605 -0.0448  0.2687 -0.2647
   40MOL   C13412692   7.910   6.363   2.647  0.2309 -0.1801  1.1450
   40MOL   C13512693   7.791   6.398   2.715 -0.2228 -0.0237 -0.4714
   40MOL   C13612694   7.747   6.325   2.828 -0.0666  0.2996  0.6592
   40MOL   C13712695   7.825   6.213   2.863 -0.0839  0.2801 -0.0614
   40MOL   C13812696   7.923   5.923   2.870  0.0860 -0.6378  0.2535
   40MOL   H13912697   8.074   6.018   2.757  1.1342 -0.5587  0.9894
   40MOL   H14012698   7.934   6.420   2.558 -0.9940 -0.7697  0.4241
   40MOL   H14112699   7.728   6.479   2.680 -0.9055 -0.3813 -0.0894
   40MOL   H14212700   7.652   6.347   2.873  0.0360  2.4510 -0.1012
   40MOL   H14312701   7.795   6.150   2.945 -0.8352 -0.9422 -1.2523
   40MOL   H14412702   7.836   5.934   2.805 -0.5558 -3.1614  0.6314
   40MOL   H14512703   7.877   5.915   2.969  0.1788 -0.3880  0.3161
   40MOL   C14612704   7.990   5.782   2.834  0.2217  0.5334  0.2686
   40MOL   C14712705   8.061   5.776   2.697 -0.2965 -0.4636 -0.7731
   40MOL   C14812706   8.189   5.716   2.679  0.4730 -0.1095  0.1534
   40MOL  Cl14912707   8.282   5.650   2.807 -0.1563  0.1382 -0.1958
   40MOL   C15012708   8.247   5.715   2.550 -0.0077  0.2293 -0.1246
   40MOL   C15112709   8.182   5.774   2.439 -0.0438  0.1098  0.0591
   40MOL   C15212710   8.060   5.841   2.462  0.2252  0.6061  0.2334
   40MOL   C15312711   7.995   5.836   2.588 -0.2637  0.4705  0.2083
   40MOL   C15412712   7.875   5.679   2.837  0.6916  0.7901 -0.4042
   40MOL   H15512713   8.069   5.758   2.905  0.5475 -0.0918 -0.2891
   40MOL   H15612714   8.343   5.667   2.539  1.5945  2.8587  2.0511
   40MOL   H15712715   8.227   5.771   2.341 -1.3819 -0.8678 -0.5352
   40MOL   H15812716   8.019   5.909   2.388  1.2947 -1.4527 -2.3338
   40MOL   H15912717   7.902   5.891   2.591  0.6721  2.2087 -1.8824
   40MOL   H16012718   7.784   5.721   2.794 -0.6834 -0.4760  1.2077
   40MOL   H16112719   7.837   5.668   2.938 -2.8149  0.7873 -1.6389
   40MOL   C16212720   7.896   5.539   2.779 -0.3520  0.3454 -0.0372
   40MOL   C16312721   7.766   5.468   2.752 -0.3553 -0.1202  0.4852
   40MOL   C16412722   7.712   5.467   2.622 -0.1699 -0.4781  0.0621
   40MOL  Cl16512723   7.781   5.563   2.492 -0.3201 -0.1507 -0.1735
   40MOL   C16612724   7.594   5.397   2.600 -0.0117  0.2232  0.5185
   40MOL   C16712725   7.522   5.332   2.707  0.8218  0.1612 -0.3929
   40MOL   C16812726   7.577   5.331   2.834 -0.3781 -1.3317  0.0548
   40MOL   C16912727   7.699   5.399   2.857  0.5738  0.0500  0.0431
   40MOL   C17012728   7.989   5.455   2.870  0.1543  0.6659 -0.0779
   40MOL   H17112729   7.949   5.549   2.684 -1.5534  3.8795 -0.4096
   40MOL   H17212730   7.547   5.401   2.503  1.2754 -1.0446 -0.1672
   40MOL   H17312731   7.435   5.270   2.691  0.3991  0.2476  1.5475
   40MOL   H17412732   7.514   5.271   2.898  0.9211 -2.4431  0.2948
   40MOL   H17512733   7.729   5.394   2.961 -1.3553 -0.4759  0.5890
   40MOL   H17612734   7.934   5.424   2.958  0.1836 -0.8534 -0.5723
   40MOL   H17712735   8.068   5.525   2.896  1.0798  0.1850 -1.5162
   40MOL   C17812736   8.078   5.341   2.802  0.4314  0.0200  0.8694
   40MOL   C17912737   7.996   5.214   2.774 -1.2166 -0.5105 -0.1371
   40MOL   C18012738   7.964   5.168   2.647 -0.5433  0.6360  0.1913
   40MOL  Cl18112739   8.027   5.244   2.506 -0.2118  0.3886  0.4982
   40MOL   C18212740   7.890   5.050   2.639 -0.0934  0.5088  0.0573
   40MOL   C18312741   7.825   4.997   2.754 -0.1288 -0.2977 -0.1142
   40MOL   C18412742   7.861   5.042   2.884  0.4831 -0.2238  0.3672
   40MOL   C18512743   7.956   5.145   2.890  0.5977  0.2984 -0.1934
   40MOL   C18612744   8.212   5.312   2.878  0.1871  0.2490 -0.3747
   40MOL   H18712745   8.121   5.379   2.709  0.4807  0.3684  1.0348
   40MOL   H18812746   7.859   5.001   2.547  0.8283  1.8632 -0.9960
   40MOL   H18912747   7.753   4.916   2.748 -0.4297  0.0211 -0.7279
   40MOL   H19012748   7.827   4.985   2.969  2.1013  0.1637  1.3088
   40MOL   H19112749   7.981   5.184   2.988 -1.2169  0.6681  0.1489
   40MOL   H19212750   8.177   5.285   2.978  1.1487  1.1845  0.2315
   40MOL   H19312751   8.268   5.404   2.892 -1.5816  1.7692 -2.9647
   40MOL   C19412752   8.303   5.195   2.842  0.1877 -0.7589  0.6866
   40MOL   C19512753   8.410   5.189   2.950  0.0252 -0.1339  0.2412
   40MOL   C19612754   8.413   5.085   3.045 -0.0836  0.5929  0.3915
   40MOL  Cl19712755   8.280   4.965   3.059  0.0549 -0.4185 -0.3065
   40MOL   C19812756   0.089   5.089   3.147 -0.7276  0.0046  0.0630
   40MOL   C19912757   0.188   5.191   3.152 -0.2971 -0.3879  0.1382
   40MOL   C20012758   0.188   5.292   3.054 -0.2621 -0.4820  0.1241
   40MOL   C20112759   0.083   5.295   2.964 -0.4654 -0.0830  0.3921
   40MOL   C20212760   8.351   5.195   2.695  0.7340 -0.6107  0.4143
   40MOL   H20312761   8.230   5.115   2.843  0.6396 -1.2046 -0.4215
   40MOL   H20412762   0.080   5.017   3.227  0.3178 -0.4097 -0.1858
   40MOL   H20512763   0.265   5.183   3.227 -0.3780  2.4718  0.5913
   40MOL   H20612764   0.259   5.373   3.045  1.2337 -1.6832  1.0422
   40MOL   H20712765   0.093   5.369   2.886  0.1017  0.3689  0.8926
   40MOL   H20812766   8.418   5.278   2.672  0.9578 -0.9230 -0.0632
   40MOL   H20912767   8.257   5.217   2.644  1.4533  0.1215 -0.6206
   40MOL   C21012768   0.005   5.060   2.655  0.3690  0.1953  0.1175
   40MOL   C21112769   0.149   5.054   2.702 -0.0100  0.2034  0.1003
   40MOL   C21212770   0.206   4.932   2.753  0.1711 -0.1208  0.4318
   40MOL  Cl21312771   0.120   4.780   2.748 -0.1015 -0.1530  0.0596
   40MOL   C21412772   0.341   4.921   2.793 -0.1213  0.6757 -0.2906
   40MOL   C21512773   0.422   5.034   2.794 -0.5145  0.0938  0.3045
   40MOL   C21612774   0.371   5.154   2.742 -0.4357  0.1614  0.1021
   40MOL   C21712775   0.234   5.164   2.700  0.5655  0.2040  0.1346
   40MOL   C21812776   8.417   5.022   2.499 -0.0414  0.2570 -0.3585
   40MOL   H21912777   8.362   4.984   2.702  1.7030 -0.1318  1.4190
   40MOL   H22012778   0.372   4.824   2.829 -2.8711 -0.3002 -0.4077
   40MOL   H22112779   0.521   5.020   2.836  0.1223 -1.7329 -1.6890
   40MOL   H22212780   0.437   5.240   2.741  1.5658 -1.3324 -0.8464
   40MOL   H22312781   0.209   5.267   2.677 -0.2287 -0.3871 -1.7599
   40MOL   H22412782   8.313   5.021   2.467 -0.5642 -0.2441  1.2982
   40MOL   H22512783   0.007   4.913   2.499  0.0460  0.2632  0.1245
   40MOL   C22612784   0.082   5.101   2.398  0.5618  0.2197 -0.0959
   40MOL   C22712785   0.004   5.224   2.357  0.9057  0.6066  0.1979
   40MOL   C22812786   0.046   5.357   2.368 -0.4490  0.1290 -0.2568
   40MOL  Cl22912787   0.199   5.401   2.429  0.5099 -0.3913  0.3474
   40MOL   C23012788   8.381   5.462   2.331  0.4204 -0.7348 -0.0900
   40MOL   C23112789   8.257   5.443   2.268 -0.2721  0.3011 -0.1922
   40MOL   C23212790   8.224   5.309   2.239  0.1634 -0.7417  0.7338
   40MOL   C23312791   8.306   5.207   2.284  0.6248 -0.0582  0.1535
   40MOL   C23412792   0.123   5.009   2.283 -0.4794  0.3794  0.4513
   40MOL   H23512793   0.173   5.137   2.445  0.3570  2.1359 -1.0831
   40MOL   H23612794   8.409   5.563   2.357 -0.0550 -0.1324 -1.8640
   40MOL   H23712795   8.193   5.523   2.237 -1.1208 -0.8443 -1.4062
   40MOL   H23812796   8.128   5.282   2.197  0.2640 -0.4257  0.2919
   40MOL   H23912797   8.276   5.104   2.268 -0.2663  0.0411  1.1322
   40MOL   H24012798   0.037   4.957   2.240 -1.3064  1.3837  0.8558
   40MOL   H24112799   0.190   4.931   2.319  0.2155  0.9614  0.4185
   40MOL   C24212800   0.196   5.089   2.166  0.0968 -1.1084  0.2973
   40MOL   C24312801   0.199   5.008   2.032  0.6339  0.3714 -0.3730
   40MOL   C24412802   0.123   5.061   1.925  0.1822  0.6673  0.3359
   40MOL  Cl24512803   0.022   5.195   1.943 -0.1281 -0.0102 -0.3569
   40MOL   C24612804   0.114   4.996   1.799 -0.4575 -0.6793 -0.4057
   40MOL   C24712805   0.200   4.884   1.782  0.1283 -0.0078 -0.1391
   40MOL   C24812806   0.284   4.833   1.884  0.3138 -0.4776 -0.0861
   40MOL   C24912807   0.275   4.892   2.011 -0.4083 -0.1144  0.0289
   40MOL   C25012808   0.347   5.122   2.201 -0.8802  0.0586  0.1537
   40MOL   H25112809   0.153   5.189   2.156  1.3094 -0.5471  0.6025
   40MOL   H25212810   0.048   5.029   1.720  0.8604 -0.5414 -1.4633
   40MOL   H25312811   0.203   4.829   1.689  2.9543  1.0791 -0.7444
   40MOL   H25412812   0.356   4.753   1.871  1.0885  0.0226  1.0062
   40MOL   H25512813   0.333   4.856   2.094  0.0252  2.4202  0.8643
   40MOL   H25612814   0.412   5.034   2.204 -1.6433 -0.4641  1.3667
   40MOL   H25712815   0.354   5.167   2.300 -0.9581 -1.4298  0.8474
   40MOL   C25812816   0.421   5.211   2.096 -0.1141 -0.6688  0.6824
   40MOL   C25912817   0.574   5.200   2.106  0.5957 -0.1411 -0.1376
   40MOL   C26012818   0.661   5.175   1.995 -0.6463  0.1195  0.3781
   40MOL  Cl26112819   0.588   5.163   1.836  0.0067 -0.0224  0.2950
   40MOL   C26212820   0.800   5.157   1.996 -0.1402 -0.7916 -0.1018
   40MOL   C26312821   0.862   5.167   2.127 -0.6785 -0.1433 -0.4479
   40MOL   C26412822   0.781   5.189   2.241 -0.6605  0.6207 -0.0631
   40MOL   C26512823   0.642   5.205   2.234 -0.2188 -0.4504 -0.2305
   40MOL   C26612824   0.375   5.354   2.126 -0.3996  0.7292 -0.3664
   40MOL   H26712825   0.391   5.187   1.994  1.5668 -1.6255  0.3940
   40MOL   H26812826   0.861   5.159   1.907 -1.0515  0.4461 -0.7146
   40MOL   H26912827   0.970   5.160   2.131 -0.4898 -0.7512 -4.4078
   40MOL   H27012828   0.841   5.199   2.330  1.4565 -0.1087 -1.3622
   40MOL   H27112829   0.577   5.212   2.320 -0.3253 -2.2153 -0.1326
   40MOL   H27212830   0.448   5.407   2.186  0.6981 -0.0339 -1.0026
   40MOL   H27312831   0.292   5.354   2.196  0.4622 -1.1451  0.7103
   40MOL   C27412832   0.327   5.446   2.010 -0.3222 -0.1089  0.4563
   40MOL   C27512833   0.425   5.465   1.895 -0.4653 -0.2284 -0.0591
   40MOL   C27612834   0.383   5.456   1.760 -0.3422 -0.2771  0.0855
   40MOL  Cl27712835   0.228   5.405   1.715 -0.1563  0.2627  0.0002
   40MOL   C27812836   0.474   5.493   1.663 -0.6994  0.0808  0.0599
   40MOL   C27912837   0.606   5.524   1.690 -0.7663  0.4729  0.9389
   40MOL   C28012838   0.650   5.524   1.822  0.2226 -0.8696 -1.0151
   40MOL   C28112839   0.559   5.494   1.925  0.3807 -0.8092 -0.9562
   40MOL   C28212840   0.275   5.578   2.065 -0.1354  0.0999  0.1483
   40MOL   H28312841   0.241   5.389   1.975  1.4301 -1.8415 -1.1129
   40MOL   H28412842   0.442   5.495   1.560  0.2374 -1.6335 -0.2984
   40MOL   H28512843   0.674   5.547   1.609  0.3764 -3.3889  0.6961
   40MOL   H28612844   0.748   5.557   1.854 -0.7296  3.8008 -2.5726
   40MOL   H28712845   0.584   5.501   2.030 -0.8753  0.2557 -0.7061
   40MOL   H28812846   0.359   5.643   2.089  0.5488  0.1335 -2.2073
   40MOL   H28912847   0.213   5.570   2.154 -1.5890 -0.5769 -0.8957
   40MOL   C29012848   0.173   5.649   1.968  0.3293  0.5213 -0.4660
   40MOL   C29112849   0.167   5.797   2.005 -0.0490  0.5984 -0.2324
   40MOL   C29212850   0.204   5.905   1.922 -0.6376  0.0645 -0.1660
   40MOL  Cl29312851   0.246   5.868   1.756  0.1425  0.2280 -0.4917
   40MOL   C29412852   0.191   6.038   1.961  0.1832 -0.6863 -1.1031
   40MOL   C29512853   0.162   6.063   2.094  0.5441 -0.3825  0.5948
   40MOL   C29612854   0.137   5.960   2.184  0.2155  0.3126  0.3895
   40MOL   C29712855   0.134   5.829   2.139 -0.2367  0.9911  0.1947
   40MOL   C29812856   0.031   5.594   1.968 -0.0751  0.0828 -0.1229
   40MOL   H29912857   0.211   5.638   1.866 -0.0236  0.2240 -0.5666
   40MOL   H30012858   0.209   6.128   1.904 -0.2244  0.5492  0.6793
   40MOL   H30112859   0.152   6.164   2.132 -0.6294  0.3862 -1.6339
   40MOL   H30212860   0.121   5.990   2.286 -0.2489 -0.1407  0.4538
   40MOL   H30312861   0.112   5.748   2.206  0.1445  0.7708  0.0584
   40MOL   H30412862   0.001   5.594   2.073  0.9718  2.6450  0.2201
   40MOL   H30512863   0.034   5.490   1.938  0.7311 -0.0131  0.2798
   40MOL   C30612864   8.335   5.654   1.897  0.2048  0.0480  0.5032
   40MOL   C30712865   8.197   5.589   1.945 -0.1150  0.4792  0.2790
   40MOL   C30812866   8.103   5.661   2.019  0.1288  0.5509  0.1601
   40MOL  Cl30912867   8.123   5.827   2.082  0.0723  0.2880  0.1465
   40MOL   C31012868   7.991   5.593   2.070  0.1828 -0.2156  0.5023
   40MOL   C31112869   7.950   5.466   2.012  0.6686  0.7220 -1.0100
   40MOL   C31212870   8.037   5.402   1.926 -0.1099 -0.6372 -0.0426
   40MOL   C31312871   8.162   5.458   1.900 -0.0764  0.1007  0.2600
   40MOL   C31412872   8.335   5.666   1.740  0.2349  0.0757  0.2997
   40MOL   H31512873   8.335   5.754   1.942 -3.0550  0.0024  0.7203
   40MOL   H31612874   7.919   5.651   2.126 -1.0773 -0.4169 -0.8808
   40MOL   H31712875   7.854   5.418   2.025  2.9071 -3.6223  0.5992
   40MOL   H31812876   8.008   5.308   1.880 -0.9511  0.3423 -1.5545
   40MOL   H31912877   8.232   5.409   1.834 -0.5386  1.0650 -0.9686
   40MOL   H32012878   8.269   5.747   1.711  0.5587  0.1448 -0.2578
   40MOL   H32112879   8.304   5.573   1.693 -0.9835  0.3040  0.6390
   40MOL   H32212880   0.007   5.702   1.695  1.5355 -3.0480  0.3183
   41MOL     C112881   4.546   5.614   1.176 -0.2692  0.1857  0.3969
   41MOL     C212882   4.635   5.540   1.278 -0.7458 -0.4438  0.0444
   41MOL     C312883   4.588   5.501   1.398 -1.2516  0.5958 -0.7576
   41MOL    Cl412884   4.419   5.524   1.443 -0.0652 -0.1765 -0.0521
   41MOL     C512885   4.668   5.448   1.501 -0.4071 -0.5263  0.2896
   41MOL     C612886   4.809   5.424   1.476 -0.0766  0.2975  0.2130
   41MOL     C712887   4.863   5.472   1.355 -0.5061  0.1610  0.3738
   41MOL     C812888   4.773   5.522   1.256  0.0647 -0.4765 -0.6364
   41MOL     C912889   4.462   5.521   1.084  0.6613 -0.0061 -0.1318
   41MOL    H1012890   4.485   5.682   1.236  0.4676  0.7283  0.5402
   41MOL    H1112891   4.622   5.408   1.590  1.6563 -0.0713  1.5929
   41MOL    H1212892   4.875   5.391   1.555 -2.2726 -0.2417  1.8845
   41MOL    H1312893   4.969   5.461   1.334 -0.2104  0.9276  1.4583
   41MOL    H1412894   4.816   5.558   1.163  0.7734 -3.5290 -1.5650
   41MOL    H1512895   4.373   5.487   1.138  0.4700  1.6403  0.6204
   41MOL    H1612896   4.521   5.431   1.072  1.5324  0.3197  1.6121
   41MOL    H1712897   4.611   5.667   1.107 -0.2707 -0.9623 -0.4912
   41MOL    C1812898   4.422   5.599   0.955 -0.0146 -0.4384  0.0814
   41MOL    C1912899   4.345   5.731   0.991 -0.2033  0.4587 -0.2283
   41MOL    C2012900   4.365   5.845   0.911 -0.2048 -0.4612  0.1824
   41MOL   Cl2112901   4.452   5.844   0.765 -0.2036  0.3469 -0.0711
   41MOL    C2212902   4.298   5.966   0.945  0.4536 -0.0092  0.3606
   41MOL    C2312903   4.208   5.970   1.053  0.4077  0.0524 -0.5876
   41MOL    C2412904   4.189   5.857   1.131  0.5929  0.2436  0.2125
   41MOL    C2512905   4.255   5.734   1.103  0.1226  0.2059 -0.2291
   41MOL    C2612906   4.327   5.514   0.862 -0.4453 -0.6187  0.1948
   41MOL    H2712907   4.512   5.620   0.898  0.5528  0.6188  1.3440
   41MOL    H2812908   4.307   6.058   0.890  0.1209  1.3306  2.5224
   41MOL    H2912909   4.156   6.062   1.073  1.3362 -0.1154  2.9723
   41MOL    H3012910   4.116   5.864   1.210  0.4140  1.2318 -0.0451
   41MOL    H3112911   4.230   5.647   1.161  0.8088  0.9173  1.1665
   41MOL    H3212912   4.291   5.581   0.784 -1.1519 -1.2757 -0.0526
   41MOL    H3312913   4.245   5.492   0.929 -0.7281  1.5498  0.6153
   41MOL    C3412914   4.381   5.378   0.804  0.2673 -0.0609 -0.0184
   41MOL    C3512915   4.493   5.394   0.704 -0.2520  0.1320  0.9535
   41MOL    C3612916   4.600   5.294   0.704  0.8251 -0.1104 -0.1224
   41MOL   Cl3712917   4.599   5.171   0.822 -0.2245 -0.4106 -0.4098
   41MOL    C3812918   4.689   5.292   0.596  0.1701 -0.2279 -0.3490
   41MOL    C3912919   4.691   5.387   0.494  0.7191 -1.3542  0.6157
   41MOL    C4012920   4.590   5.492   0.500  0.1962 -0.8632 -0.7105
   41MOL    C4112921   4.493   5.491   0.604 -0.1391 -0.2720 -0.1952
   41MOL    C4212922   4.272   5.293   0.736  0.4826  0.5247 -0.1286
   41MOL    H4312923   4.412   5.318   0.889  2.0731  1.4441  0.4302
   41MOL    H4412924   4.765   5.216   0.608 -0.8790 -1.2862 -0.2181
   41MOL    H4512925   4.775   5.401   0.427 -0.7479 -0.0889 -1.0007
   41MOL    H4612926   4.575   5.562   0.419 -0.6275 -0.6221 -0.3518
   41MOL    H4712927   4.421   5.570   0.593  1.4530  1.3744  0.9077
   41MOL    H4812928   4.320   5.218   0.674  0.2926  0.4334 -0.1640
   41MOL    H4912929   4.229   5.357   0.660 -0.9526  0.1099  0.3130
   41MOL    C5012930   4.159   5.228   0.823  0.2387  0.3347 -0.2903
   41MOL    C5112931   4.226   5.134   0.923  0.0347 -0.2135 -0.0366
   41MOL    C5212932   4.241   5.163   1.065  0.4035  0.0040  0.5172
   41MOL   Cl5312933   4.170   5.292   1.148  0.0306 -0.1022 -0.5141
   41MOL    C5412934   4.321   5.071   1.139 -0.2468  0.5619 -0.3198
   41MOL    C5512935   4.368   4.951   1.086  0.3415  0.0331  0.3710
   41MOL    C5612936   4.333   4.918   0.955  0.0775 -0.6778  0.0793
   41MOL    C5712937   4.273   5.012   0.874  0.0432 -0.2476 -0.8292
   41MOL    C5812938   4.050   5.169   0.738 -0.0355  0.0327 -0.2441
   41MOL    H5912939   4.120   5.305   0.889  0.3072  2.1349 -2.2856
   41MOL    H6012940   4.340   5.085   1.245 -0.3543  1.0160 -0.3622
   41MOL    H6112941   4.429   4.891   1.152 -1.4719  1.4607  3.4577
   41MOL    H6212942   4.359   4.817   0.927  2.7254  0.3071 -1.1517
   41MOL    H6312943   4.243   4.985   0.774 -0.7499 -1.0354 -0.3836
   41MOL    H6412944   4.088   5.097   0.667  0.5952  1.5016 -1.4219
   41MOL    H6512945   4.027   5.254   0.674  0.4530  0.3924  0.0506
   41MOL    C6612946   3.933   5.113   0.821 -0.7226  0.4812  0.3198
   41MOL    C6712947   3.953   4.968   0.863  0.2584  0.4020  0.3570
   41MOL    C6812948   3.927   4.926   0.993 -0.6061 -0.0777  0.3585
   41MOL   Cl6912949   3.893   5.039   1.124 -0.0207 -0.0735 -0.2449
   41MOL    C7012950   3.922   4.789   1.018 -0.3385  0.2291  0.1173
   41MOL    C7112951   3.953   4.692   0.922  0.0888 -0.2505  0.3018
   41MOL    C7212952   3.964   4.735   0.789 -0.2151 -0.1604 -0.3183
   41MOL    C7312953   3.971   4.875   0.762 -0.0590  0.2269  0.4418
   41MOL    C7412954   3.794   5.144   0.758 -0.0630  0.3144  0.1677
   41MOL    H7512955   3.942   5.162   0.919 -0.3535  1.1908 -0.0662
   41MOL    H7612956   3.906   4.757   1.120  1.1735 -2.2876 -0.3764
   41MOL    H7712957   3.957   4.585   0.940 -0.4171 -0.1825  0.8340
   41MOL    H7812958   3.973   4.657   0.715 -0.7649  0.2998 -0.8667
   41MOL    H7912959   3.967   4.908   0.660 -0.0554 -1.3937 -0.0989
   41MOL    H8012960   3.731   5.101   0.836 -0.2971 -2.3617 -1.4223
   41MOL    H8112961   3.787   5.085   0.667  1.7412 -0.6114  0.5990
   41MOL    C8212962   3.775   5.290   0.719 -0.1772 -0.5316  1.0444
   41MOL    C8312963   3.810   5.387   0.836  0.0934 -0.1053  0.8685
   41MOL    C8412964   3.901   5.499   0.813  0.6667  1.0439 -0.5666
   41MOL   Cl8512965   3.952   5.553   0.654  0.0834  0.2900 -0.1898
   41MOL    C8612966   3.942   5.578   0.931 -0.0600  0.2940  0.2825
   41MOL    C8712967   3.900   5.544   1.061  0.4408  0.1972 -0.1437
   41MOL    C8812968   3.801   5.445   1.071  0.5222 -0.2726  0.8702
   41MOL    C8912969   3.755   5.363   0.964  0.2224  0.4449  0.8453
   41MOL    C9012970   3.627   5.314   0.678 -0.4912 -0.1704  0.4124
   41MOL    H9112971   3.834   5.326   0.634 -0.3124  0.4270  1.3442
   41MOL    H9212972   4.006   5.663   0.913 -0.5470  0.9013  1.4039
   41MOL    H9312973   3.945   5.588   1.148  2.1477  0.8288 -1.3089
   41MOL    H9412974   3.757   5.403   1.160  1.2712 -0.2267  1.2701
   41MOL    H9512975   3.688   5.282   0.990  2.2650 -0.9456  1.8962
   41MOL    H9612976   3.605   5.420   0.672  0.9958  0.2230  1.5614
   41MOL    H9712977   3.557   5.273   0.750 -0.6777 -0.7014 -0.0668
   41MOL    C9812978   3.591   5.266   0.537 -0.3360  0.1187 -0.0800
   41MOL    C9912979   3.687   5.321   0.432 -0.5337 -0.5108 -0.7424
   41MOL   C10012980   3.758   5.239   0.336 -0.3144 -0.6743 -0.0604
   41MOL  Cl10112981   3.725   5.066   0.327 -0.4072 -0.0101  0.2276
   41MOL   C10212982   3.848   5.296   0.247 -0.2465 -0.0703  0.2993
   41MOL   C10312983   3.867   5.439   0.246  0.4561  0.2277  0.1835
   41MOL   C10412984   3.796   5.515   0.337  0.5385 -0.1567  0.5331
   41MOL   C10512985   3.714   5.456   0.431  0.3325 -0.6668 -0.1519
   41MOL   C10612986   3.444   5.304   0.501 -0.0845  0.7770  0.3534
   41MOL   H10712987   3.605   5.158   0.543  1.0966  0.4162  3.9239
   41MOL   H10812988   3.912   5.238   0.184 -1.2244  0.3169 -1.0688
   41MOL   H10912989   3.936   5.486   0.178  0.0447 -0.5805 -0.7949
   41MOL   H11012990   3.807   5.622   0.328 -1.9795  0.1499  0.8393
   41MOL   H11112991   3.653   5.521   0.491 -1.9593 -1.7801 -1.2300
   41MOL   H11212992   3.434   5.284   0.395 -1.4239  1.0146  0.4363
   41MOL   H11312993   3.427   5.411   0.508 -2.3783  0.5272 -1.0543
   41MOL   C11412994   3.343   5.214   0.577 -1.1862 -0.1213  0.7784
   41MOL   C11512995   3.324   5.078   0.508  0.3062  0.1249  0.8508
   41MOL   C11612996   3.367   4.958   0.572  0.0565 -0.5463  0.3529
   41MOL  Cl11712997   3.456   4.957   0.726  0.3582  0.4693  0.1270
   41MOL   C11812998   3.335   4.832   0.518  0.3285 -0.4203  0.3317
   41MOL   C11912999   3.282   4.826   0.385  0.2592  0.6323 -0.8273
   41MOL   C12013000   3.232   4.941   0.326  0.5071  0.0080 -0.1366
   41MOL   C12113001   3.255   5.064   0.385  0.5864 -0.2036  0.8111
   41MOL   C12213002   3.213   5.287   0.608  0.9647 -0.6082 -0.4505
   41MOL   H12313003   3.381   5.208   0.679 -0.2639 -0.5299  0.4176
   41MOL   H12413004   3.358   4.740   0.569 -0.1037 -0.9258 -0.3635
   41MOL   H12513005   3.258   4.727   0.350  2.8526 -0.3951  0.1793
   41MOL   H12613006   3.173   4.920   0.238  1.4549  0.6083 -0.9270
   41MOL   H12713007   3.211   5.152   0.341  0.4577  0.0041  1.3464
   41MOL   H12813008   3.165   5.319   0.516  1.3687  2.1670  0.2537
   41MOL   H12913009   3.239   5.382   0.655 -2.1877 -0.0990  0.3685
   41MOL   C13013010   3.125   5.216   0.708 -0.4802 -0.3878 -0.3125
   41MOL   C13113011   3.039   5.104   0.650  0.6837  0.2342 -0.0232
   41MOL   C13213012   3.044   4.971   0.698 -0.3944 -0.0277 -0.2328
   41MOL  Cl13313013   3.133   4.931   0.840 -0.3029 -0.0009  0.2942
   41MOL   C13413014   2.971   4.870   0.636 -0.7104 -0.6242 -0.1961
   41MOL   C13513015   2.888   4.898   0.522  0.4788  0.3214  0.2646
   41MOL   C13613016   2.879   5.035   0.480 -0.3057  0.5751  0.1865
   41MOL   C13713017   2.951   5.134   0.546 -0.1967 -0.6206 -0.4764
   41MOL   C13813018   3.033   5.315   0.788  0.4918  0.3514  0.1569
   41MOL   H13913019   3.197   5.169   0.775  2.4656  1.1490 -2.2759
   41MOL   H14013020   2.980   4.769   0.672 -1.0501 -0.7573 -0.4971
   41MOL   H14113021   2.821   4.822   0.483  0.6883 -0.7664  1.9658
   41MOL   H14213022   2.812   5.060   0.399 -1.2835 -1.1471  0.4341
   41MOL   H14313023   2.948   5.239   0.521  0.3957 -0.5561 -0.2926
   41MOL   H14413024   2.953   5.255   0.829 -0.5125  1.2381 -0.4776
   41MOL   H14513025   2.964   5.374   0.728 -0.8954 -0.4451  0.9518
   41MOL   C14613026   3.099   5.398   0.903 -0.0976 -0.1384 -0.0071
   41MOL   C14713027   3.179   5.302   0.998 -0.4132 -0.7593  0.7258
   41MOL   C14813028   3.314   5.334   1.024 -0.1850  0.3056 -0.8517
   41MOL  Cl14913029   3.393   5.468   0.953  0.2677  0.2919  0.4314
   41MOL   C15013030   3.389   5.250   1.108  0.3120 -0.2450  0.7802
   41MOL   C15113031   3.333   5.140   1.179  0.6914  0.1938 -0.0768
   41MOL   C15213032   3.192   5.111   1.154  0.5704 -0.3162 -0.6480
   41MOL   C15313033   3.117   5.193   1.065 -0.0080 -0.1674  0.9843
   41MOL   C15413034   2.991   5.483   0.974 -0.4542  0.1329 -0.2600
   41MOL   H15513035   3.168   5.460   0.846 -1.5634  0.6452 -0.9641
   41MOL   H15613036   3.495   5.269   1.119  0.7953  0.0864 -3.4848
   41MOL   H15713037   3.402   5.077   1.234  1.1841  0.2067 -0.6672
   41MOL   H15813038   3.153   5.020   1.197  0.1471  0.8888  1.5851
   41MOL   H15913039   3.013   5.166   1.056 -0.4299  1.7469 -0.1597
   41MOL   H16013040   3.024   5.496   1.077 -0.2699 -1.0661 -0.1590
   41MOL   H16113041   2.906   5.417   0.992 -0.4948 -0.1851 -1.5586
   41MOL   C16213042   2.938   5.607   0.903  0.2232 -0.5882  0.0027
   41MOL   C16313043   3.050   5.699   0.849 -0.1121  0.2026 -0.4999
   41MOL   C16413044   3.076   5.714   0.706 -0.4181  0.4104  0.1670
   41MOL  Cl16513045   2.968   5.637   0.603 -0.1668  0.0408 -0.0280
   41MOL   C16613046   3.187   5.786   0.663  0.1028 -0.7166 -0.1321
   41MOL   C16713047   3.277   5.839   0.758 -0.2327 -0.0035 -0.1188
   41MOL   C16813048   3.251   5.822   0.896 -0.4620  0.2119 -0.3817
   41MOL   C16913049   3.140   5.753   0.947 -0.4348 -0.1696  0.1146
   41MOL   C17013050   2.842   5.699   0.983 -0.0397 -0.0243 -0.3754
   41MOL   H17113051   2.881   5.567   0.819 -0.5629  1.2136 -0.3324
   41MOL   H17213052   3.213   5.784   0.558 -1.3369  1.4851 -0.5709
   41MOL   H17313053   3.366   5.889   0.725  0.6807 -2.3591 -1.3270
   41MOL   H17413054   3.333   5.850   0.959 -0.6762  1.9900 -0.8541
   41MOL   H17513055   3.130   5.731   1.052  0.2029 -1.5309 -0.0961
   41MOL   H17613056   2.820   5.791   0.928 -0.1603  0.7507  0.9495
   41MOL   H17713057   2.905   5.731   1.066  0.3732 -0.5460 -0.4849
   41MOL   C17813058   2.708   5.628   1.029 -0.2754 -0.1058  0.0314
   41MOL   C17913059   2.597   5.639   0.925  0.2575 -0.4709  0.3150
   41MOL   C18013060   2.575   5.531   0.838 -0.3927 -0.7078  0.2959
   41MOL  Cl18113061   2.679   5.392   0.831 -0.0313  0.4123 -0.3474
   41MOL   C18213062   2.460   5.532   0.758  0.1122 -1.0285 -0.2647
   41MOL   C18313063   2.381   5.650   0.750 -0.3860 -0.0513 -0.2077
   41MOL   C18413064   2.412   5.764   0.828 -0.2239  0.1308 -0.2270
   41MOL   C18513065   2.522   5.760   0.919 -0.5214 -0.4575 -0.4331
   41MOL   C18613066   2.662   5.678   1.172  0.3410  0.3517  0.1790
   41MOL   H18713067   2.723   5.521   1.046  1.1926  0.2059  0.7782
   41MOL   H18813068   2.438   5.449   0.692 -0.6847 -0.6715 -0.4518
   41MOL   H18913069   2.290   5.654   0.692 -0.1509  2.0811 -0.4962
   41MOL   H19013070   2.343   5.844   0.805  1.5733  2.0228  0.7854
   41MOL   H19113071   2.537   5.853   0.971 -0.0005 -1.3549  1.0519
   41MOL   H19213072   2.557   5.650   1.184  0.4129 -0.7123 -1.4338
   41MOL   H19313073   2.648   5.785   1.164  1.8401  0.4047 -2.1474
   41MOL   C19413074   2.748   5.650   1.296  0.9315 -0.1184  0.0307
   41MOL   C19513075   2.779   5.499   1.310  0.1766  0.5447 -0.2715
   41MOL   C19613076   2.909   5.446   1.340 -0.0420 -0.0756  0.5963
   41MOL  Cl19713077   3.035   5.559   1.363 -0.3431  0.2574 -0.2745
   41MOL   C19813078   2.937   5.306   1.352  0.5111  0.3006 -0.7411
   41MOL   C19913079   2.829   5.218   1.320 -0.2296 -0.3024 -0.5013
   41MOL   C20013080   2.698   5.265   1.295  0.2461 -0.2324  0.4188
   41MOL   C20113081   2.669   5.406   1.295 -0.2499  0.0522  0.5908
   41MOL   C20213082   2.684   5.705   1.427  0.2186 -0.8385 -0.5576
   41MOL   H20313083   2.848   5.693   1.293  1.1613 -0.7566 -2.0818
   41MOL   H20413084   3.036   5.272   1.378 -0.4752 -2.5220 -0.5124
   41MOL   H20513085   2.846   5.112   1.327 -0.0527 -0.2127  0.4781
   41MOL   H20613086   2.613   5.202   1.273 -0.5212  1.5802 -2.0883
   41MOL   H20713087   2.572   5.442   1.264 -1.3687 -2.0209  1.6722
   41MOL   H20813088   2.745   5.663   1.506 -0.7525 -0.8558  0.1948
   41MOL   H20913089   2.585   5.660   1.436 -0.4128  0.1746 -2.0951
   41MOL   C21013090   2.696   5.858   1.441 -0.6048  0.2475  0.0648
   41MOL   C21113091   2.851   5.893   1.455  0.0397 -0.2374  0.1284
   41MOL   C21213092   2.927   5.938   1.341  0.8004 -0.6815  0.1505
   41MOL  Cl21313093   2.846   5.967   1.187  0.0449  0.0694  0.1531
   41MOL   C21413094   3.065   5.966   1.352  0.3483  0.2056  0.1474
   41MOL   C21513095   3.127   5.961   1.476 -0.2466 -0.1616 -0.0559
   41MOL   C21613096   3.060   5.915   1.586 -0.1238 -1.0738 -0.5501
   41MOL   C21713097   2.922   5.879   1.576 -0.2889 -0.2524 -1.0348
   41MOL   C21813098   2.611   5.913   1.554  0.4062  0.3458 -0.0399
   41MOL   H21913099   2.647   5.908   1.357 -0.7287 -0.5818 -0.3671
   41MOL   H22013100   3.124   6.004   1.270 -0.3600  0.0513 -0.4426
   41MOL   H22113101   3.231   5.990   1.480 -0.3564  0.2413 -0.0788
   41MOL   H22213102   3.116   5.906   1.678  0.4766  1.7984 -0.5827
   41MOL   H22313103   2.871   5.827   1.656  0.3607 -1.4749 -1.4076
   41MOL   H22413104   2.634   6.016   1.578  0.5907  0.6132 -1.3749
   41MOL   H22513105   2.640   5.861   1.646 -0.0642 -0.9041 -0.5883
   41MOL   C22613106   2.456   5.899   1.544 -0.6760  1.0035 -0.6116
   41MOL   C22713107   2.396   5.970   1.415  0.4899  0.6122 -0.1443
   41MOL   C22813108   2.343   5.894   1.305 -0.1867  1.1703 -0.1295
   41MOL  Cl22913109   2.324   5.721   1.311 -0.1078 -0.0381 -0.1272
   41MOL   C23013110   2.281   5.956   1.194 -0.1734  0.1186  0.6088
   41MOL   C23113111   2.257   6.099   1.197  0.0019 -0.3235 -0.2490
   41MOL   C23213112   2.303   6.177   1.307  0.3934  0.0522  0.2966
   41MOL   C23313113   2.378   6.114   1.408 -0.0777  0.3627  0.1408
   41MOL   C23413114   2.377   5.943   1.668 -1.1106  0.2915 -0.7168
   41MOL   H23513115   2.441   5.792   1.528  0.2083  0.7307  0.2502
   41MOL   H23613116   2.244   5.895   1.114 -0.9982 -0.1896  1.2117
   41MOL   H23713117   2.203   6.151   1.119  0.0033  0.4293  0.2504
   41MOL   H23813118   2.274   6.282   1.309 -1.0388 -0.3521  2.3312
   41MOL   H23913119   2.420   6.166   1.493 -1.6005  1.1910  0.3954
   41MOL   H24013120   2.286   5.996   1.640 -1.7169 -0.8757 -0.9527
   41MOL   H24113121   2.442   6.012   1.722 -1.4463 -1.0890  1.5168
   41MOL   C24213122   2.313   5.832   1.760 -0.2936  0.5800  0.4383
   41MOL   C24313123   2.240   5.725   1.681 -0.2727 -0.1790 -0.5494
   41MOL   C24413124   2.295   5.598   1.652 -0.4539  0.2569 -0.3341
   41MOL  Cl24513125   2.448   5.544   1.710 -0.1609  0.0363 -0.1853
   41MOL   C24613126   2.213   5.507   1.588 -0.1262 -0.2761  0.3039
   41MOL   C24713127   2.084   5.535   1.545  0.6608  0.1439  0.1078
   41MOL   C24813128   2.025   5.662   1.574  0.7676  0.5899  0.1906
   41MOL   C24913129   2.110   5.754   1.642 -0.3446  1.1834  0.4183
   41MOL   C25013130   2.235   5.892   1.879 -0.3293  0.3466  0.1157
   41MOL   H25113131   2.390   5.773   1.811  0.8487  1.0630 -0.7012
   41MOL   H25213132   2.255   5.410   1.564 -0.8593  0.2349 -3.2288
   41MOL   H25313133   2.027   5.459   1.493 -0.6231  0.2995  1.2464
   41MOL   H25413134   1.919   5.678   1.562  0.4526 -1.3134  0.3339
   41MOL   H25513135   2.072   5.850   1.675  0.0509  2.5392 -2.8280
   41MOL   H25613136   2.160   5.962   1.843 -1.0989 -0.3395  0.3818
   41MOL   H25713137   2.306   5.945   1.942  0.6845 -0.2375 -0.5118
   41MOL   C25813138   2.163   5.791   1.966 -0.3726 -0.3368  0.1181
   41MOL   C25913139   2.023   5.843   2.003 -0.2619 -0.0432 -0.3482
   41MOL   C26013140   1.906   5.773   1.968 -0.4626  0.2589  0.3460
   41MOL  Cl26113141   1.914   5.628   1.875 -0.3297  0.3999  0.0138
   41MOL   C26213142   1.779   5.811   2.009  0.0030 -0.5189  0.1723
   41MOL   C26313143   1.768   5.929   2.086  0.1840  0.3499 -0.0008
   41MOL   C26413144   1.882   6.012   2.113  0.3704 -0.1844 -0.4462
   41MOL   C26513145   2.007   5.962   2.071  0.1868 -0.2359  0.4448
   41MOL   C26613146   2.251   5.757   2.090 -0.1677 -0.9566 -0.0557
   41MOL   H26713147   2.156   5.696   1.914 -0.1484  0.5421 -1.5460
   41MOL   H26813148   1.692   5.751   1.984 -0.9736  0.0188  2.1296
   41MOL   H26913149   1.672   5.957   2.126  0.4738  2.1712 -0.5623
   41MOL   H27013150   1.882   6.106   2.166  1.6389  0.1482 -1.0290
   41MOL   H27113151   2.093   6.024   2.091  0.7996 -0.7716 -0.4865
   41MOL   H27213152   2.254   5.847   2.151 -2.1173 -1.4707  0.8262
   41MOL   H27313153   2.351   5.732   2.055 -0.0381 -0.4167 -0.0775
   41MOL   C27413154   2.196   5.636   2.171 -0.3000  0.1941 -0.1673
   41MOL   C27513155   2.218   5.660   2.322 -0.2328  0.4579 -0.5775
   41MOL   C27613156   2.113   5.691   2.413 -0.7237  0.0420  0.0428
   41MOL  Cl27713157   1.945   5.696   2.367 -0.1311 -0.1169 -0.1113
   41MOL   C27813158   2.149   5.704   2.552  1.2627 -0.3621  0.0456
   41MOL   C27913159   2.279   5.692   2.599  0.8512 -0.0578 -0.5923
   41MOL   C28013160   2.388   5.662   2.510 -0.4700 -0.1199 -0.6417
   41MOL   C28113161   2.354   5.648   2.371  0.4781 -0.3929 -0.4446
   41MOL   C28213162   2.251   5.495   2.127  0.0605  0.2222 -0.3977
   41MOL   H28313163   2.091   5.622   2.147  0.3548 -1.0710 -2.4375
   41MOL   H28413164   2.062   5.709   2.616  2.4316 -2.8377  1.9305
   41MOL   H28513165   2.294   5.695   2.706 -1.9703  3.4859 -0.2289
   41MOL   H28613166   2.492   5.647   2.534 -0.6264  2.1103  1.6994
   41MOL   H28713167   2.430   5.623   2.299  1.9788  1.1114  0.5748
   41MOL   H28813168   2.353   5.474   2.160  0.2015  0.6623 -0.5612
   41MOL   H28913169   2.259   5.499   2.018  0.9249 -0.4822 -0.3694
   41MOL   C29013170   2.168   5.367   2.167  0.3349 -0.2191  0.4253
   41MOL   C29113171   2.162   5.345   2.318  0.0561 -0.2203  0.7123
   41MOL   C29213172   2.281   5.326   2.396 -0.2882  0.3377  0.3363
   41MOL  Cl29313173   2.436   5.330   2.335 -0.3097  0.4735 -0.1688
   41MOL   C29413174   2.270   5.303   2.532  0.2039  0.3395  0.0020
   41MOL   C29513175   2.153   5.305   2.597  0.0471  0.1388 -0.5255
   41MOL   C29613176   2.038   5.332   2.526 -0.1281  0.0999 -0.6510
   41MOL   C29713177   2.036   5.345   2.386  0.1849 -0.5465  1.4999
   41MOL   C29813178   2.223   5.230   2.103 -0.0200 -0.5915 -0.2388
   41MOL   H29913179   2.069   5.386   2.126 -0.2876 -0.6518  1.7005
   41MOL   H30013180   2.358   5.280   2.591  0.4354 -3.1156 -1.5815
   41MOL   H30113181   2.145   5.270   2.699  0.6119  0.9935 -0.1811
   41MOL   H30213182   1.946   5.326   2.581  2.2440 -1.9997  3.3104
   41MOL   H30313183   1.943   5.368   2.336  0.6480  2.7162  2.0389
   41MOL   H30413184   2.238   5.150   2.176  1.8735 -0.7791 -0.8099
   41MOL   H30513185   2.316   5.240   2.048  0.6203  0.2486  0.9846
   41MOL   C30613186   2.129   5.184   1.990 -0.2423  0.0300 -0.1091
   41MOL   C30713187   2.156   5.041   1.942  0.2254  0.0042 -0.5293
   41MOL   C30813188   2.059   4.933   1.966  0.5825  1.0624 -0.0085
   41MOL  Cl30913189   1.909   4.956   2.051  0.7581 -0.3246 -0.3370
   41MOL   C31013190   2.087   4.800   1.931  0.5001  0.6246  0.6601
   41MOL   C31113191   2.202   4.769   1.853  0.1417  0.3056 -0.2516
   41MOL   C31213192   2.295   4.870   1.824  0.1315 -0.7127 -0.2487
   41MOL   C31313193   2.275   5.003   1.871  0.6536 -0.2003  0.1549
   41MOL   C31413194   2.126   5.276   1.862 -0.1154  0.6897 -0.6651
   41MOL   H31513195   2.026   5.175   2.026  0.0032  0.6655  0.7654
   41MOL   H31613196   2.020   4.721   1.963  1.0330  0.8581  2.4478
   41MOL   H31713197   2.220   4.672   1.810  1.4294  1.5645 -2.6209
   41MOL   H31813198   2.395   4.858   1.785  0.4223  0.4550  0.1167
   41MOL   H31913199   2.343   5.080   1.836 -0.3068  0.0000 -1.3442
   41MOL   H32013200   2.089   5.377   1.881 -1.3990  0.1026  0.0514
   41MOL   H32113201   2.064   5.231   1.784  0.9264  0.3271 -1.2885
   41MOL   H32213202   2.223   5.282   1.813  0.5137  1.7791  0.6712
   42MOL     C113203   4.089   4.712   6.873 -0.1831  0.3963  1.2704
   42MOL     C213204   3.974   4.695   6.779 -0.2920 -0.2302  0.7658
   42MOL     C313205   3.970   4.587   6.690  0.3499  0.1906  0.5988
   42MOL    Cl413206   4.108   4.483   6.675 -0.2699 -0.0437 -0.1329
   42MOL     C513207   3.859   4.577   6.600  0.3186 -0.7155  0.3613
   42MOL     C613208   3.751   4.668   6.607 -0.0500 -0.2657  0.2778
   42MOL     C713209   3.756   4.778   6.701 -0.1503 -0.2491 -0.4990
   42MOL     C813210   3.866   4.782   6.793 -0.1861 -0.2298  0.5077
   42MOL     C913211   4.184   4.836   6.846  0.0116  0.8204  0.0659
   42MOL    H1013212   4.051   4.724   6.974 -1.7537 -1.5311  0.9373
   42MOL    H1113213   3.862   4.504   6.520  0.3221 -1.7705  1.3194
   42MOL    H1213214   3.671   4.667   6.535  0.0034  1.2822  0.1633
   42MOL    H1313215   3.684   4.858   6.708  0.9847  0.5818  2.8955
   42MOL    H1413216   3.863   4.855   6.872 -2.7801 -1.7447  1.8715
   42MOL    H1513217   4.131   4.928   6.820  0.9100  1.4770  0.5107
   42MOL    H1613218   4.236   4.818   6.753  0.9282 -0.2603  0.7826
   42MOL    H1713219   4.156   4.626   6.875 -0.5383  0.0980  0.4932
   42MOL    C1813220   4.306   4.860   6.945 -0.4540 -0.5943 -0.3357
   42MOL    C1913221   4.259   4.926   7.081  0.0334  0.0903 -0.4536
   42MOL    C2013222   4.284   4.858   7.202  0.4474 -0.8983 -0.0195
   42MOL   Cl2113223   4.358   4.709   7.219 -0.0421  0.0587 -0.0160
   42MOL    C2213224   4.238   4.907   7.324 -0.0079  0.1986  0.0267
   42MOL    C2313225   4.162   5.027   7.316 -0.0596 -0.2280  0.3013
   42MOL    C2413226   4.145   5.098   7.197 -0.1006 -0.5136  0.0274
   42MOL    C2513227   4.190   5.047   7.076  0.1941  0.2731  0.0938
   42MOL    C2613228   4.417   4.937   6.872  0.2287 -0.1428  0.1229
   42MOL    H2713229   4.354   4.764   6.961  0.9038 -0.0163 -0.8639
   42MOL    H2813230   4.240   4.852   7.417  1.5466 -0.0001 -0.1157
   42MOL    H2913231   4.106   5.064   7.401  1.5992 -0.7669  1.6694
   42MOL    H3013232   4.086   5.188   7.191 -0.9175 -1.0263  0.2246
   42MOL    H3113233   4.174   5.093   6.980 -2.0627  1.9462  1.2288
   42MOL    H3213234   4.363   5.023   6.833 -1.3237 -0.4659  1.4861
   42MOL    H3313235   4.457   4.880   6.789  0.4577 -1.4857  1.1288
   42MOL    C3413236   4.532   5.010   6.951 -0.4129  0.5127  0.0499
   42MOL    C3513237   4.606   5.106   6.857 -0.1824  0.0188 -0.3848
   42MOL    C3613238   4.589   5.250   6.855 -0.4038  0.2474 -0.3659
   42MOL   Cl3713239   4.485   5.325   6.973 -0.0559 -0.2265 -0.2548
   42MOL    C3813240   4.677   5.329   6.779  0.1851  0.4842 -0.1809
   42MOL    C3913241   4.781   5.269   6.703 -0.4706  0.0405  0.2176
   42MOL    C4013242   4.802   5.132   6.708 -0.2403  0.6332 -0.0691
   42MOL    C4113243   4.710   5.054   6.776  0.8859 -0.6558 -0.7249
   42MOL    C4213244   4.619   4.924   7.032 -0.1471 -0.2232 -0.6017
   42MOL    H4313245   4.481   5.071   7.025  0.0021  0.8186  0.0836
   42MOL    H4413246   4.668   5.436   6.787 -0.3767  0.2502  2.9804
   42MOL    H4513247   4.859   5.317   6.646 -0.2632  0.0519  0.5116
   42MOL    H4613248   4.886   5.073   6.672 -1.0074 -0.5793  0.0763
   42MOL    H4713249   4.734   4.949   6.773 -1.6597 -1.3383  0.6601
   42MOL    H4813250   4.679   4.869   6.960 -0.1259 -0.8724 -0.0878
   42MOL    H4913251   4.567   4.845   7.085  1.9414 -1.2401 -0.0402
   42MOL    C5013252   4.709   5.000   7.126 -0.1605  0.0313 -0.3133
   42MOL    C5113253   4.852   4.947   7.123  0.1174 -0.1309  0.5155
   42MOL    C5213254   4.956   5.026   7.069  0.2848 -0.2645 -0.3885
   42MOL   Cl5313255   4.928   5.187   7.007 -0.0090 -0.1246  0.2447
   42MOL    C5413256   5.089   4.979   7.067  0.4267  0.4318 -0.4151
   42MOL    C5513257   5.111   4.849   7.116 -0.1653  0.1033 -0.2501
   42MOL    C5613258   5.006   4.768   7.164 -0.3527  0.2025 -0.2131
   42MOL    C5713259   4.875   4.816   7.169 -0.5942 -0.0196  0.4740
   42MOL    C5813260   4.652   4.997   7.268 -0.1439 -0.1478 -0.2444
   42MOL    H5913261   4.713   5.104   7.097  1.6553 -0.7911 -3.2119
   42MOL    H6013262   5.164   5.043   7.023  1.0287  0.6621  0.9104
   42MOL    H6113263   5.210   4.804   7.121  0.3777  1.2617 -0.5515
   42MOL    H6213264   5.022   4.667   7.198  2.4561  0.7593  0.2578
   42MOL    H6313265   4.801   4.748   7.208 -1.0489  0.6173  0.7191
   42MOL    H6413266   4.647   4.893   7.299  1.2842  0.1640  1.0807
   42MOL    H6513267   4.551   5.035   7.251 -0.5007 -0.1584  1.7756
   42MOL    C6613268   4.714   5.092   7.373 -0.1688 -0.0188 -0.2336
   42MOL    C6713269   4.675   5.044   7.509  0.3087  1.0143 -0.7444
   42MOL    C6813270   4.774   5.012   7.605  0.5198 -0.4872  0.0219
   42MOL   Cl6913271   4.948   5.032   7.565 -0.1191 -0.1850  0.3769
   42MOL    C7013272   4.744   4.958   7.729 -0.2758 -0.0029  0.2800
   42MOL    C7113273   4.610   4.950   7.771  0.1914 -0.0626 -0.0391
   42MOL    C7213274   4.510   4.987   7.679 -0.0456 -0.1541 -0.0093
   42MOL    C7313275   4.539   5.029   7.547 -0.3174  0.1187  0.6167
   42MOL    C7413276   4.664   5.238   7.340  0.2130 -0.2063  0.5607
   42MOL    H7513277   4.820   5.086   7.346 -0.7234 -0.5336 -2.3594
   42MOL    H7613278   4.826   4.927   7.792 -0.2840  0.8060  0.6929
   42MOL    H7713279   4.577   4.916   7.869 -1.2965  1.5025  0.0200
   42MOL    H7813280   4.407   4.990   7.710  0.4400  1.2696  1.5350
   42MOL    H7913281   4.456   5.052   7.482 -0.0607  0.3599  0.3739
   42MOL    H8013282   4.561   5.233   7.306  0.2190  0.6742  0.4172
   42MOL    H8113283   4.715   5.277   7.253 -2.1766  1.5778 -0.1037
   42MOL    C8213284   4.676   5.342   7.451 -0.1471  0.3667 -0.2773
   42MOL    C8313285   4.619   5.478   7.406  0.4042  0.1157  0.2540
   42MOL    C8413286   4.498   5.518   7.471  1.2483 -0.1733 -0.3983
   42MOL   Cl8513287   4.402   5.408   7.575 -0.3671 -0.0554  0.3424
   42MOL    C8613288   4.444   5.643   7.442  0.8095  0.1443  0.4617
   42MOL    C8713289   4.507   5.728   7.349 -0.3496 -0.1734  1.1331
   42MOL    C8813290   4.623   5.686   7.275  0.2542  0.0330 -0.8709
   42MOL    C8913291   4.675   5.561   7.311  0.6854 -0.3191  0.4684
   42MOL    C9013292   4.827   5.364   7.489 -0.2935  0.2850 -0.6015
   42MOL    H9113293   4.619   5.304   7.536  0.8607 -0.9753 -0.1964
   42MOL    H9213294   4.351   5.671   7.489  0.0678 -0.2349 -0.7593
   42MOL    H9313295   4.477   5.831   7.341  0.7710  0.1548  1.0283
   42MOL    H9413296   4.675   5.752   7.207  0.0141  2.0692  0.8943
   42MOL    H9513297   4.765   5.528   7.260  1.5102  0.3797  1.4634
   42MOL    H9613298   4.886   5.432   7.427  0.7564  1.0137  1.1694
   42MOL    H9713299   4.874   5.267   7.473  0.2652  0.3672  0.4749
   42MOL    C9813300   4.846   5.381   7.640 -0.5159 -0.0155 -0.4676
   42MOL    C9913301   4.799   5.527   7.685 -0.2377 -0.3622  0.1637
   42MOL   C10013302   4.699   5.544   7.785  1.1946  0.0995 -0.0399
   42MOL  Cl10113303   4.619   5.416   7.867 -0.0831  0.1429 -0.2105
   42MOL   C10213304   4.653   5.676   7.820 -1.0304 -0.4084 -0.0627
   42MOL   C10313305   4.723   5.788   7.770  0.3752  0.8892  0.7917
   42MOL   C10413306   4.812   5.774   7.666 -0.0917 -0.0555 -0.4088
   42MOL   C10513307   4.857   5.645   7.628 -0.0216  0.2623  0.1808
   42MOL   C10613308   4.996   5.362   7.678 -0.6626 -0.7239 -0.3590
   42MOL   H10713309   4.787   5.307   7.694  0.4775 -0.1510  0.4594
   42MOL   H10813310   4.583   5.690   7.901  0.0266 -3.2347  1.4300
   42MOL   H10913311   4.692   5.886   7.802  0.5600  0.5771  1.9449
   42MOL   H11013312   4.855   5.861   7.619  1.0648 -0.3598  0.0597
   42MOL   H11113313   4.924   5.645   7.544  0.1610  0.0927  0.3259
   42MOL   H11213314   5.049   5.439   7.624 -3.0356  1.5676  0.4723
   42MOL   H11313315   5.021   5.262   7.641  2.1200 -1.1264  2.4211
   42MOL   C11413316   5.037   5.376   7.829  0.0495 -0.1474 -0.1641
   42MOL   C11513317   5.192   5.374   7.838  0.2466 -0.1418  0.6343
   42MOL   C11613318   5.276   5.484   7.863  0.4837 -0.4446 -0.3176
   42MOL  Cl11713319   5.214   5.652   7.890  0.2602 -0.0152  0.1574
   42MOL   C11813320   5.416   5.472   7.865  0.1860  0.4714 -0.2722
   42MOL   C11913321   5.470   5.337   7.864 -0.0432 -0.0961  0.3846
   42MOL   C12013322   5.392   5.226   7.844  0.5864  0.1368  0.1002
   42MOL   C12113323   5.254   5.244   7.826  0.2568 -0.0853  0.9794
   42MOL   C12213324   4.959   5.272   7.916  0.0905 -0.4697 -0.5007
   42MOL   H12313325   4.999   5.476   7.848 -1.2118 -0.7380  0.4829
   42MOL   H12413326   5.480   5.556   7.886 -1.2875  1.6229 -0.2966
   42MOL   H12513327   5.577   5.330   7.874  0.1922  2.8726  0.5000
   42MOL   H12613328   5.431   5.125   7.844  0.8542  0.1704  3.5270
   42MOL   H12713329   5.191   5.161   7.795  0.9162 -0.2332  0.0138
   42MOL   H12813330   4.973   5.181   7.857 -0.1605 -0.2820 -0.8486
   42MOL   H12913331   4.852   5.290   7.920  0.4362  1.4710  0.4772
   42MOL   C13013332   4.998   5.256   8.068  0.2281  0.0323  0.0180
   42MOL   C13113333   4.908   5.145   8.122 -0.1639  0.3054 -0.1773
   42MOL   C13213334   4.966   5.015   8.140  0.2704 -0.2486  0.5529
   42MOL  Cl13313335   5.135   4.987   8.134 -0.3447 -0.4614  0.1420
   42MOL   C13413336   4.878   4.909   8.171 -0.9137  0.1253  0.2545
   42MOL   C13513337   4.742   4.929   8.200 -0.2548 -0.2975 -0.1084
   42MOL   C13613338   4.690   5.058   8.171 -0.1219  0.4593 -0.4664
   42MOL   C13713339   4.771   5.162   8.128  0.6085 -0.0135  0.3981
   42MOL   C13813340   5.000   5.396   8.148  0.5560  0.0080 -0.4264
   42MOL   H13913341   5.098   5.213   8.058  0.1810 -0.0123 -0.2673
   42MOL   H14013342   4.914   4.807   8.165 -1.7936 -0.1064 -1.4255
   42MOL   H14113343   4.671   4.853   8.228  1.9451 -1.6227  2.0863
   42MOL   H14213344   4.586   5.071   8.198 -0.0591  0.4583 -0.2231
   42MOL   H14313345   4.726   5.260   8.124  0.9097  0.0791 -0.9245
   42MOL   H14413346   4.894   5.418   8.162  1.1213  0.8003  3.1187
   42MOL   H14513347   5.046   5.470   8.082  0.4730  0.9829  0.6016
   42MOL   C14613348   5.087   5.398   8.282 -0.2877 -0.7131  0.3965
   42MOL   C14713349   5.010   5.324   8.397  0.1130  0.3661 -0.2269
   42MOL   C14813350   5.068   5.232   0.065  0.3198 -0.0529 -0.2983
   42MOL  Cl14913351   5.221   5.161   0.023 -0.0396  0.3163  0.2824
   42MOL   C15013352   4.998   5.175   0.167  0.2070 -0.4918 -0.1462
   42MOL   C15113353   4.865   5.213   0.192 -0.0042 -0.5487 -0.0989
   42MOL   C15213354   4.804   5.306   0.107 -0.8961 -0.6352 -0.0187
   42MOL   C15313355   4.875   5.364   0.002  0.4295  0.3452 -0.6578
   42MOL   C15413356   5.108   5.549   8.326 -0.3430 -0.4193 -1.5580
   42MOL   H15513357   5.184   5.353   8.265 -1.0931 -2.2542 -0.2871
   42MOL   H15613358   5.049   5.097   0.222 -0.6781  0.3472  1.9067
   42MOL   H15713359   4.820   5.185   0.286 -1.8940  0.6100 -0.6478
   42MOL   H15813360   4.705   5.342   0.130 -1.0021  1.6578 -3.6294
   42MOL   H15913361   4.821   5.432   8.358  0.8072  1.8384  0.5679
   42MOL   H16013362   5.116   5.559   0.014 -1.8427  0.1347 -1.4843
   42MOL   H16113363   5.009   5.595   8.326 -1.1500 -2.0004  1.5564
   42MOL   C16213364   5.226   5.633   8.275  0.3347 -0.0304  0.2123
   42MOL   C16313365   5.360   5.565   8.300  0.1769  0.4521  0.2654
   42MOL   C16413366   5.471   5.602   8.221 -1.0947  0.3679  0.1577
   42MOL  Cl16513367   5.466   5.733   8.111 -0.2577  0.3892  0.2443
   42MOL   C16613368   5.594   5.534   8.233 -0.2578 -0.6868  0.2823
   42MOL   C16713369   5.612   5.443   8.337  0.4635  0.1293 -0.3446
   42MOL   C16813370   5.506   5.402   8.419  0.5615  0.0734 -0.2369
   42MOL   C16913371   5.378   5.458   8.389 -0.5387 -0.1728 -0.0848
   42MOL   C17013372   5.223   5.775   8.349  0.1050 -0.6033  0.4176
   42MOL   H17113373   5.213   5.655   8.169 -0.9261 -1.6712  0.0133
   42MOL   H17213374   5.680   5.559   8.173 -0.5938 -1.3412 -0.4822
   42MOL   H17313375   5.708   5.394   8.348  0.2074 -0.8203 -2.1227
   42MOL   H17413376   5.508   5.323   0.073 -2.0981 -0.9246 -1.1588
   42MOL   H17513377   5.297   5.433   0.035  0.0129 -3.4144 -0.5380
   42MOL   H17613378   5.316   5.831   8.342  0.5911 -1.5223 -0.6637
   42MOL   H17713379   5.220   5.750   0.034  0.7357  0.5418  0.7128
   42MOL   C17813380   5.117   5.875   8.301 -0.3944  0.7334 -0.9398
   42MOL   C17913381   5.142   5.934   8.160  0.6795 -1.0968  0.1465
   42MOL   C18013382   5.050   5.920   8.058 -0.8030  1.6880 -0.2229
   42MOL  Cl18113383   4.929   5.796   8.068 -0.2813 -0.2499 -0.2435
   42MOL   C18213384   5.072   5.977   7.930 -0.6674  0.5764  0.6900
   42MOL   C18313385   5.187   6.051   7.903  0.3515 -0.0267 -1.1005
   42MOL   C18413386   5.279   6.074   8.005 -0.5939  0.7068  0.8126
   42MOL   C18513387   5.262   6.012   8.129  0.0673 -0.5641 -0.5716
   42MOL   C18613388   5.103   6.001   8.404  0.3624 -0.6145 -0.4869
   42MOL   H18713389   5.021   5.824   8.305 -0.1796  0.4300  0.6259
   42MOL   H18813390   4.997   5.953   7.856 -0.4516  0.7577  0.4103
   42MOL   H18913391   5.201   6.097   7.806 -0.9890  1.6436 -0.5198
   42MOL   H19013392   5.362   6.140   7.985 -0.4198  0.7632  1.7204
   42MOL   H19113393   5.337   6.031   8.205  0.3959 -1.3354 -0.7068
   42MOL   H19213394   5.030   6.073   8.367  0.2385  0.1319  1.1867
   42MOL   H19313395   5.205   6.040   8.404 -0.0003  0.3247 -0.0855
   42MOL   C19413396   5.069   5.949   0.125 -0.0015 -0.1742 -0.5073
   42MOL   C19513397   4.946   5.857   0.130 -0.5176 -0.5979  0.4919
   42MOL   C19613398   4.946   5.735   0.203  0.7142  0.6177  0.0473
   42MOL  Cl19713399   5.087   5.675   0.292  0.5810  0.4111  0.2792
   42MOL   C19813400   4.825   5.661   0.208  0.3474  0.1682 -0.1507
   42MOL   C19913401   4.717   5.695   0.125  0.4827  0.1573  0.4132
   42MOL   C20013402   4.722   5.808   0.043 -0.2371 -0.4912  0.0432
   42MOL   C20113403   4.836   5.891   0.051  0.9584 -0.4988 -0.0047
   42MOL   C20213404   5.062   6.056   0.233  0.1456 -0.1628  0.2850
   42MOL   H20313405   5.157   5.893   0.156 -0.4618 -0.7217 -0.2005
   42MOL   H20413406   4.823   5.579   0.279  0.5536 -0.4794 -0.8800
   42MOL   H20513407   4.634   5.627   0.139  1.3509 -1.3874 -1.7981
   42MOL   H20613408   4.633   5.839   8.410 -0.2967 -1.7589 -0.5896
   42MOL   H20713409   4.844   5.983   8.416  2.2293  0.0186  1.0056
   42MOL   H20813410   5.031   6.012   0.328 -1.0211  2.3507  1.1025
   42MOL   H20913411   4.980   6.123   0.206 -2.0443 -2.5808  0.6848
   42MOL   C21013412   5.192   6.129   0.257 -0.8280  0.7381  0.2965
   42MOL   C21113413   5.311   6.053   0.312 -0.1522  0.2876  0.4640
   42MOL   C21213414   5.443   6.026   0.256 -0.0231 -0.2498 -0.0909
   42MOL  Cl21313415   5.463   6.043   0.082  0.2756  0.0042 -0.0459
   42MOL   C21413416   5.547   5.974   0.335 -0.6651 -0.4151 -0.4230
   42MOL   C21513417   5.527   5.919   0.463  0.0595  0.2784 -0.7197
   42MOL   C21613418   5.399   5.937   0.525  0.3912 -0.0926  0.0097
   42MOL   C21713419   5.294   5.999   0.446 -0.5571  0.5456 -0.7979
   42MOL   C21813420   5.156   6.248   0.349  0.0362 -0.3857 -0.0531
   42MOL   H21913421   5.224   6.171   0.161 -1.0901  2.3264  0.8848
   42MOL   H22013422   5.642   5.960   0.288 -1.0181 -1.2933 -0.8801
   42MOL   H22113423   5.601   5.876   0.528  1.6962  0.5910 -2.3395
   42MOL   H22213424   5.376   5.915   0.628 -0.6766 -1.2098 -0.4491
   42MOL   H22313425   5.202   6.022   0.497 -0.3167  1.6282 -0.8485
   42MOL   H22413426   5.243   6.298   0.391 -1.2829  0.9088  1.2068
   42MOL   H22513427   5.114   6.196   0.435 -0.0709 -1.7282 -0.8916
   42MOL   C22613428   5.060   6.360   0.306  0.0952 -0.9388  0.1167
   42MOL   C22713429   5.139   6.452   0.202 -0.2246 -0.4728 -0.5800
   42MOL   C22813430   5.098   6.476   0.072 -0.2359  0.3666  0.3331
   42MOL  Cl22913431   4.961   6.386   0.006 -0.0992 -0.0354 -0.0477
   42MOL   C23013432   5.176   6.563   8.413  0.0859 -0.7220 -0.0467
   42MOL   C23113433   5.296   6.631   0.044  0.5116  0.5272 -0.0211
   42MOL   C23213434   5.330   6.604   0.179 -0.6144 -0.2035  0.3669
   42MOL   C23313435   5.250   6.527   0.260 -0.0568  0.5892 -0.3733
   42MOL   C23413436   5.012   6.439   0.428 -0.4449  0.4876 -0.4661
   42MOL   H23513437   4.979   6.312   0.251  2.1451 -0.9264 -3.0085
   42MOL   H23613438   5.153   6.569   8.307 -1.6682  0.3438  0.3657
   42MOL   H23713439   5.360   6.693   8.402  1.0188 -0.6893 -0.7188
   42MOL   H23813440   5.418   6.651   0.221  0.1545 -3.0665  2.0514
   42MOL   H23913441   5.274   6.530   0.365  1.1722  2.2961 -0.6849
   42MOL   H24013442   4.987   6.538   0.392 -3.0105 -0.3872 -1.2006
   42MOL   H24113443   5.090   6.451   0.503  1.0199 -0.7060 -1.7751
   42MOL   C24213444   4.881   6.384   0.495 -0.5104  0.2774  0.4099
   42MOL   C24313445   4.761   6.373   0.394 -0.2088 -0.2288  0.2923
   42MOL   C24413446   4.680   6.255   0.400  0.3211 -1.0269 -0.3056
   42MOL  Cl24513447   4.731   6.115   0.485  0.4198 -0.1647 -0.3022
   42MOL   C24613448   4.550   6.256   0.339 -0.2839 -0.4051 -0.4811
   42MOL   C24713449   4.512   6.367   0.263  0.2846 -0.0286 -0.5291
   42MOL   C24813450   4.599   6.479   0.244  0.0841 -0.4157 -0.7566
   42MOL   C24913451   4.718   6.481   0.312  0.0363 -0.3281  0.0713
   42MOL   C25013452   4.834   6.458   0.623  0.0038  0.0953  0.6927
   42MOL   H25113453   4.909   6.287   0.536 -0.5996  0.5524  1.1422
   42MOL   H25213454   4.481   6.173   0.339 -0.0853 -0.5804  0.3197
   42MOL   H25313455   4.418   6.365   0.210 -0.5240 -0.2664  0.8931
   42MOL   H25413456   4.564   6.565   0.190 -1.1299 -0.2850  0.2046
   42MOL   H25513457   4.786   6.565   0.307 -0.7201  0.2623 -0.2578
   42MOL   H25613458   4.731   6.438   0.654 -0.2460 -0.2776 -0.3624
   42MOL   H25713459   4.857   6.563   0.605 -1.3930  0.5979  1.7315
   42MOL   C25813460   4.920   6.422   0.749  0.1610 -0.1819  0.3619
   42MOL   C25913461   4.876   6.286   0.807 -0.3771 -0.7356  0.5017
   42MOL   C26013462   4.951   6.165   0.806  0.0962  0.3390 -0.0002
   42MOL  Cl26113463   5.106   6.153   0.724 -0.0879 -0.0816 -0.0745
   42MOL   C26213464   4.897   6.047   0.861 -0.3426  0.1320 -0.6223
   42MOL   C26313465   4.771   6.052   0.926 -0.5019 -0.7951 -0.3830
   42MOL   C26413466   4.693   6.161   0.921  0.0373 -0.5590 -0.1758
   42MOL   C26513467   4.746   6.277   0.859  0.2108  0.2495  0.1927
   42MOL   C26613468   4.915   6.521   0.872 -0.0934 -0.0506 -1.2641
   42MOL   H26713469   5.025   6.406   0.724  0.2169  1.1838 -0.3140
   42MOL   H26813470   4.954   5.957   0.844 -0.5882 -0.1807  0.1932
   42MOL   H26913471   4.730   5.969   0.982  0.0719  0.7079  2.3757
   42MOL   H27013472   4.600   6.166   0.977 -0.1031  0.3491 -0.4747
   42MOL   H27113473   4.693   6.371   0.853 -0.9646 -0.4138  0.2123
   42MOL   H27213474   4.987   6.493   0.948  1.0229 -1.0913 -2.6782
   42MOL   H27313475   4.821   6.519   0.928  0.0184 -1.3510 -1.0871
   42MOL   C27413476   4.951   6.667   0.841 -0.2214  0.0493  0.3791
   42MOL   C27513477   5.080   6.672   0.755  0.2308 -0.1006 -0.1127
   42MOL   C27613478   5.081   6.734   0.625  0.5657 -0.0871  1.2592
   42MOL  Cl27713479   4.952   6.837   0.567  0.0029  0.0617 -0.0230
   42MOL   C27813480   5.194   6.724   0.547 -0.2150  0.5902  0.1652
   42MOL   C27913481   5.309   6.660   0.597 -0.9949  0.5508 -0.0254
   42MOL   C28013482   5.316   6.615   0.726 -0.2105  0.5546  0.1609
   42MOL   C28113483   5.205   6.621   0.806 -0.0989 -0.1698 -0.2981
   42MOL   C28213484   4.962   6.757   0.969  0.3855 -0.1524 -0.0455
   42MOL   H28313485   4.865   6.693   0.779 -0.6728 -0.9063  0.6066
   42MOL   H28413486   5.207   6.783   0.457 -1.0502  1.0909  0.3693
   42MOL   H28513487   5.395   6.655   0.532 -0.3789  0.6696  0.7719
   42MOL   H28613488   5.406   6.573   0.769 -1.0113 -3.0276 -1.4966
   42MOL   H28713489   5.207   6.583   0.907 -2.8093  1.5504  0.4570
   42MOL   H28813490   5.050   6.725   1.026  0.4397  1.4107  0.7664
   42MOL   H28913491   4.873   6.723   1.022  0.6611  0.4140  0.7882
   42MOL   C29013492   4.937   6.907   0.966 -0.1992 -0.6098  0.8725
   42MOL   C29113493   5.044   6.980   0.883  0.2629  0.2200 -0.4104
   42MOL   C29213494   5.011   7.094   0.808 -0.7755 -1.1459 -0.6581
   42MOL  Cl29313495   4.856   7.158   0.796  0.0390 -0.3316 -0.4089
   42MOL   C29413496   5.112   7.169   0.747 -0.1606 -0.2907 -0.0686
   42MOL   C29513497   5.253   7.139   0.757 -0.2228 -0.0586  0.5100
   42MOL   C29613498   5.286   7.021   0.829  0.3975  0.6246  0.2792
   42MOL   C29713499   5.182   6.943   0.889  0.0008  0.0617 -0.3074
   42MOL   C29813500   4.911   6.966   1.106  0.2906  0.2054 -0.1369
   42MOL   H29913501   4.841   6.926   0.919 -0.0107 -1.8507 -0.0344
   42MOL   H30013502   5.084   7.256   0.689 -1.6020 -0.6101  0.1389
   42MOL   H30113503   5.333   7.199   0.717 -0.1446 -0.6816 -0.2996
   42MOL   H30213504   5.388   6.986   0.837  0.1902 -0.0847 -0.1943
   42MOL   H30313505   5.219   6.851   0.933  0.3910  0.1838 -0.3817
   42MOL   H30413506   4.819   6.914   1.134  1.1740 -1.2928  0.0560
   42MOL   H30513507   4.887   7.071   1.092 -0.0230  0.1835  0.2269
   42MOL   C30613508   5.019   6.939   1.211  0.3311  0.3827 -0.2038
   42MOL   C30713509   4.965   6.878   1.337  0.2296 -0.6911 -0.9939
   42MOL   C30813510   4.974   6.736   1.367  0.0936  0.3736 -0.1302
   42MOL  Cl30913511   5.075   6.630   1.273 -0.2849  0.4191 -0.7146
   42MOL   C31013512   4.902   6.683   1.479  0.3537 -0.3194 -0.1265
   42MOL   C31113513   4.828   6.761   1.569  0.3075 -0.0747 -0.0077
   42MOL   C31213514   4.833   6.899   1.540 -0.1808 -0.1843 -0.0076
   42MOL   C31313515   4.894   6.962   1.430 -0.0114 -0.2405  0.4680
   42MOL   C31413516   5.103   7.072   1.233 -0.8880 -0.2811  0.2299
   42MOL   H31513517   5.103   6.882   1.170 -1.8670 -1.2291 -2.6551
   42MOL   H31613518   4.914   6.577   1.497  0.3353 -0.6556 -1.9950
   42MOL   H31713519   4.768   6.721   1.650  0.8286  4.0329  2.5374
   42MOL   H31813520   4.800   6.955   1.626  3.9941  1.2172  0.8223
   42MOL   H31913521   4.886   7.070   1.423 -1.2521 -0.4652 -1.7637
   42MOL   H32013522   5.171   7.095   1.151  0.1177 -2.0273  0.5724
   42MOL   H32113523   5.176   7.081   1.313 -0.7262 -0.0031  0.0535
   42MOL   H32213524   5.035   7.157   1.243 -2.0145 -0.7541 -2.6923
   43MOL     C113525   1.365   4.128   4.311  0.3869 -0.2020  0.1821
   43MOL     C213526   1.342   4.265   4.381 -0.1423 -0.5371 -0.6345
   43MOL     C313527   1.271   4.378   4.335  0.7870 -0.1344  0.5385
   43MOL    Cl413528   1.166   4.354   4.196 -0.2994 -0.2604  0.3031
   43MOL     C513529   1.270   4.504   4.396 -0.0528 -0.7725  0.5428
   43MOL     C613530   1.362   4.527   4.504  1.1467  0.1039  0.3659
   43MOL     C713531   1.443   4.418   4.547 -0.2658 -0.2901  0.9857
   43MOL     C813532   1.432   4.293   4.485  0.4162 -0.2888  0.3400
   43MOL     C913533   1.459   4.145   4.185  0.9122  0.4988  0.5460
   43MOL    H1013534   1.417   4.058   4.376 -1.3332  0.3638  2.2186
   43MOL    H1113535   1.195   4.575   4.365  1.2853  0.8675  1.0031
   43MOL    H1213536   1.376   4.631   4.529  0.7271  0.5278 -1.1007
   43MOL    H1313537   1.524   4.434   4.617  0.7589 -1.5093  0.0970
   43MOL    H1413538   1.499   4.215   4.518  1.3059 -0.1288 -1.0394
   43MOL    H1513539   1.545   4.205   4.214  2.1191 -0.8481 -0.1638
   43MOL    H1613540   1.402   4.203   4.112 -1.5026 -0.6169  1.5097
   43MOL    H1713541   1.265   4.089   4.295 -1.0125  3.0040  0.7818
   43MOL    C1813542   1.510   4.011   4.137 -0.6576  0.3539 -0.0657
   43MOL    C1913543   1.659   4.013   4.132 -0.3055 -0.4541 -1.3308
   43MOL    C2013544   1.739   3.921   4.202  0.2308  0.1312 -0.3070
   43MOL   Cl2113545   1.670   3.799   4.307 -0.0570 -0.0244 -0.4423
   43MOL    C2213546   1.878   3.933   4.192 -0.3683 -0.0958  0.4197
   43MOL    C2313547   1.940   4.028   4.110  0.1942 -1.0830  0.2217
   43MOL    C2413548   1.863   4.127   4.042  0.4117 -0.7657  0.2774
   43MOL    C2513549   1.718   4.115   4.052 -0.4037  0.2417 -0.2935
   43MOL    C2613550   1.453   3.953   4.006  0.5764 -0.6554 -0.6949
   43MOL    H2713551   1.486   3.940   4.216 -0.3349  1.2023  0.8087
   43MOL    H2813552   1.945   3.872   4.250 -1.1921 -0.7494  0.6929
   43MOL    H2913553   2.048   4.036   4.110  0.2556 -0.3859  4.4071
   43MOL    H3013554   1.907   4.214   3.994  1.5274 -1.3921  0.1349
   43MOL    H3113555   1.651   4.182   3.999  0.8711  0.2721 -1.9194
   43MOL    H3213556   1.513   3.869   3.972  0.9890 -0.1408 -1.2480
   43MOL    H3313557   1.469   4.031   3.932 -1.5218  1.7919  1.3235
   43MOL    C3413558   1.301   3.916   4.006  0.0858  0.3891  0.0440
   43MOL    C3513559   1.252   3.810   4.107  0.3866 -0.2155  0.1222
   43MOL    C3613560   1.126   3.827   4.170  0.7222 -0.3010  0.3448
   43MOL   Cl3713561   1.015   3.959   4.136  0.2016 -0.0551  0.1786
   43MOL    C3813562   1.073   3.725   4.253 -0.6824 -0.5366 -0.0289
   43MOL    C3913563   1.145   3.608   4.276 -0.6245  0.1116 -0.2960
   43MOL    C4013564   1.276   3.592   4.218  0.1413  0.0478  0.0677
   43MOL    C4113565   1.332   3.698   4.141  0.5518 -0.4862  0.0891
   43MOL    C4213566   1.242   3.864   3.872  0.5493 -0.3918 -0.0755
   43MOL    H4313567   1.252   4.009   4.035  0.9483  0.2742  1.9529
   43MOL    H4413568   0.974   3.745   4.292 -0.9974 -0.0658 -1.0476
   43MOL    H4513569   1.105   3.522   4.328 -0.5500  0.6837  0.7290
   43MOL    H4613570   1.328   3.497   4.211 -0.9093 -0.5100 -0.3850
   43MOL    H4713571   1.432   3.682   4.104  0.9823 -0.0872  1.0597
   43MOL    H4813572   1.147   3.813   3.887  1.5952 -2.2684  0.3518
   43MOL    H4913573   1.307   3.784   3.837  1.5416  1.3894 -2.4357
   43MOL    C5013574   1.220   3.971   3.761  0.2208  0.0907 -0.2034
   43MOL    C5113575   1.112   4.067   3.791  0.2149 -0.0184  0.4094
   43MOL    C5213576   1.140   4.204   3.817 -0.7073 -0.5046 -0.7796
   43MOL   Cl5313577   1.297   4.262   3.849 -0.4542  0.1899  0.5578
   43MOL    C5413578   1.028   4.286   3.853  0.5896 -0.5871  0.0097
   43MOL    C5513579   0.895   4.235   3.855  0.7123  0.1135  0.4451
   43MOL    C5613580   0.875   4.104   3.815  0.1198  0.4884 -0.1680
   43MOL    C5713581   0.978   4.020   3.777 -1.1103  0.1261 -0.7247
   43MOL    C5813582   1.185   3.898   3.626  0.2303 -0.3981  0.2459
   43MOL    H5913583   1.314   4.027   3.755  0.8428 -0.8420  0.6539
   43MOL    H6013584   1.039   4.390   3.878 -1.6014 -0.4931  0.7477
   43MOL    H6113585   0.813   4.300   3.884 -0.7273 -1.9406  1.0828
   43MOL    H6213586   0.776   4.063   3.806 -0.4798  1.9060 -0.1153
   43MOL    H6313587   0.951   3.920   3.748  0.6346 -0.4086 -0.5496
   43MOL    H6413588   1.119   3.956   3.561  0.8530 -1.3846 -1.3016
   43MOL    H6513589   1.129   3.809   3.655 -2.6972  1.0105 -0.8905
   43MOL    C6613590   1.314   3.859   3.545 -0.0597 -0.0816  0.1227
   43MOL    C6713591   1.367   3.970   3.454  0.1252 -0.3552 -0.7469
   43MOL    C6813592   1.482   4.044   3.493 -0.2035 -0.2895 -0.2186
   43MOL   Cl6913593   1.543   4.039   3.654  0.0582  0.0825  0.0891
   43MOL    C7013594   1.531   4.138   3.403  0.3388 -0.5378  0.2541
   43MOL    C7113595   1.478   4.151   3.270  0.2940 -0.0847 -0.3379
   43MOL    C7213596   1.357   4.087   3.237  0.1953  0.1143  0.2033
   43MOL    C7313597   1.301   3.996   3.329  0.4201 -0.2277  0.6272
   43MOL    C7413598   1.309   3.718   3.476 -0.3979  0.5438 -0.3157
   43MOL    H7513599   1.394   3.834   3.614 -1.2296  0.5290  1.7349
   43MOL    H7613600   1.616   4.202   3.424 -0.0023  0.7230 -2.0583
   43MOL    H7713601   1.528   4.226   3.211  1.6214 -0.0097  0.8752
   43MOL    H7813602   1.301   4.101   3.146  0.3453  2.3739  0.4434
   43MOL    H7913603   1.203   3.958   3.306  0.0707  0.1606  1.4564
   43MOL    H8013604   1.403   3.709   3.422  0.8996  0.4258  1.8746
   43MOL    H8113605   1.225   3.716   3.406  0.1785  2.0222 -1.0719
   43MOL    C8213606   1.301   3.593   3.560  0.5277 -0.0021 -0.1499
   43MOL    C8313607   1.421   3.570   3.653 -0.1413  0.2844 -0.1538
   43MOL    C8413608   1.401   3.513   3.785 -0.1648 -0.1510  0.2877
   43MOL   Cl8513609   1.247   3.520   3.867  0.0225 -0.0893 -0.2022
   43MOL    C8613610   1.506   3.447   3.854  0.1361 -0.0447  0.1658
   43MOL    C8713611   1.638   3.459   3.803  0.4170 -0.5955 -0.8554
   43MOL    C8813612   1.665   3.517   3.673  0.3427 -0.0679  0.5320
   43MOL    C8913613   1.551   3.567   3.600 -0.1180  0.1625  0.3383
   43MOL    C9013614   1.281   3.462   3.481  0.6760 -0.6551 -0.0581
   43MOL    H9113615   1.220   3.601   3.633  1.2898  2.9782  0.4671
   43MOL    H9213616   1.506   3.411   3.956 -1.3404 -0.7466 -0.0705
   43MOL    H9313617   1.718   3.415   3.862  3.4710  2.1428 -2.7418
   43MOL    H9413618   1.764   3.511   3.633  0.3478  2.3687  0.1272
   43MOL    H9513619   1.563   3.601   3.498 -1.5657 -0.1806  0.0418
   43MOL    H9613620   1.313   3.383   3.549 -0.9849  0.2848  1.8546
   43MOL    H9713621   1.346   3.468   3.393 -1.2712  2.2837 -1.3640
   43MOL    C9813622   1.134   3.436   3.428  0.1657 -0.3838 -0.2543
   43MOL    C9913623   1.031   3.435   3.548 -0.9870  0.3674 -0.0887
   43MOL   C10013624   0.924   3.522   3.562 -0.3005  0.2512 -0.1413
   43MOL  Cl10113625   0.909   3.652   3.444  0.4677  0.1056 -0.3330
   43MOL   C10213626   0.837   3.528   3.675  0.6982 -0.2046  0.0162
   43MOL   C10313627   0.850   3.429   3.773  0.7612  0.2018  0.2742
   43MOL   C10413628   0.936   3.321   3.748  0.5994 -0.0293 -0.1750
   43MOL   C10513629   1.030   3.327   3.643  0.0256 -0.2749 -0.8087
   43MOL   C10613630   1.141   3.299   3.352 -0.3385  0.1837  0.0273
   43MOL   H10713631   1.104   3.517   3.361 -0.3518  1.0564  1.6430
   43MOL   H10813632   0.768   3.611   3.680 -1.9939 -2.4264  0.8569
   43MOL   H10913633   0.777   3.428   3.852  0.3352  2.5787 -0.0551
   43MOL   H11013634   0.925   3.235   3.813  0.0317  0.2973  0.1632
   43MOL   H11113635   1.112   3.257   3.646  0.0382 -0.3631 -2.9856
   43MOL   H11213636   1.204   3.231   3.411 -0.9388  0.0189  0.4870
   43MOL   H11313637   1.201   3.324   3.265  0.0389 -1.4528 -0.1987
   43MOL   C11413638   1.010   3.221   3.328  0.3449 -0.4577  0.2458
   43MOL   C11513639   1.027   3.069   3.305 -0.4790  0.3326 -0.3518
   43MOL   C11613640   0.951   2.978   3.381  0.2259 -0.2379 -0.3530
   43MOL  Cl11713641   0.852   3.032   3.519  0.1833 -0.0575  0.4131
   43MOL   C11813642   0.947   2.841   3.343 -0.4108  0.3860 -0.3517
   43MOL   C11913643   1.019   2.791   3.232  0.4002 -0.1631 -0.0622
   43MOL   C12013644   1.094   2.881   3.158 -0.8617 -0.7003  0.7517
   43MOL   C12113645   1.108   3.015   3.201  0.3162 -0.2507 -0.3137
   43MOL   C12213646   0.914   3.292   3.233 -0.2365 -0.2648 -0.1740
   43MOL   H12313647   0.961   3.225   3.425  2.3134 -0.9682  1.2966
   43MOL   H12413648   0.899   2.775   3.413  0.9886 -0.2415  0.0229
   43MOL   H12513649   1.010   2.689   3.200  1.0890 -0.1996 -0.1360
   43MOL   H12613650   1.161   2.849   3.080 -0.5466  1.8566 -0.0827
   43MOL   H12713651   1.179   3.076   3.148  0.3288 -2.5719 -3.1222
   43MOL   H12813652   0.882   3.386   3.277 -0.5804 -0.3049 -0.3340
   43MOL   H12913653   0.819   3.238   3.223  1.0603 -2.3853 -1.3284
   43MOL   C13013654   0.972   3.323   3.086 -0.0497  0.2679  1.3164
   43MOL   C13113655   1.049   3.454   3.075 -0.4455  0.3191  0.5745
   43MOL   C13213656   1.181   3.469   3.029  0.2285  0.9387  0.2075
   43MOL  Cl13313657   1.268   3.333   2.962 -0.2308  0.0774 -0.2220
   43MOL   C13413658   1.243   3.596   3.030  0.8935 -0.7061 -0.2236
   43MOL   C13513659   1.179   3.709   3.085 -0.2237 -0.3674  1.3602
   43MOL   C13613660   1.042   3.695   3.125 -0.9972  0.0704 -0.1961
   43MOL   C13713661   0.983   3.571   3.124  0.2293  0.2295  0.1661
   43MOL   C13813662   0.854   3.330   2.983  0.4365 -0.0910  0.2888
   43MOL   H13913663   1.030   3.236   3.054 -0.3397  1.0362 -1.4924
   43MOL   H14013664   1.344   3.607   2.995  0.3615  1.3202 -1.1425
   43MOL   H14113665   1.228   3.804   3.098 -0.7351 -0.0468  0.9665
   43MOL   H14213666   0.993   3.778   3.173 -2.8667 -0.5783 -0.9200
   43MOL   H14313667   0.883   3.562   3.162 -0.6441  3.2956 -1.2564
   43MOL   H14413668   0.856   3.418   2.919  0.4191 -0.2009  0.1389
   43MOL   H14513669   0.768   3.361   3.042 -0.3102  0.5073 -1.1079
   43MOL   C14613670   0.836   3.201   2.906 -0.0984  0.5992  0.0266
   43MOL   C14713671   0.927   3.207   2.795 -0.8766  0.1104  0.2814
   43MOL   C14813672   1.034   3.111   2.783 -0.1616 -0.0896 -0.3868
   43MOL  Cl14913673   1.032   2.959   2.866  0.4181 -0.3023 -0.4052
   43MOL   C15013674   1.129   3.131   2.687  0.1492  0.2459 -0.1176
   43MOL   C15113675   1.130   3.239   2.600  0.1299  0.0192 -0.4110
   43MOL   C15213676   1.026   3.327   2.607  0.1231 -0.3528  0.1400
   43MOL   C15313677   0.924   3.316   2.702  0.0058 -0.3321 -0.0402
   43MOL   C15413678   0.692   3.166   2.857  0.0990 -0.2615  0.0432
   43MOL   H15513679   0.860   3.115   2.968 -3.1430  0.3313  0.8841
   43MOL   H15613680   1.196   3.046   2.683  0.4706  0.3333  2.3264
   43MOL   H15713681   1.204   3.240   2.521 -2.2537 -0.6706 -2.7550
   43MOL   H15813682   1.014   3.401   2.530  2.0265  0.5101  0.6461
   43MOL   H15913683   0.846   3.389   2.713 -3.0009 -3.3418 -0.6773
   43MOL   H16013684   0.690   3.093   2.776 -0.6637 -0.6128  0.3708
   43MOL   H16113685   0.662   3.254   2.801  1.3656  0.8085  1.0165
   43MOL   C16213686   0.590   3.118   2.960  0.2026  0.1753 -0.3112
   43MOL   C16313687   0.624   2.976   3.012 -0.6029  0.2157 -0.5204
   43MOL   C16413688   0.624   2.943   3.149 -0.8456 -0.5701  0.2259
   43MOL  Cl16513689   0.602   3.071   3.261 -0.1375  0.4692 -0.3145
   43MOL   C16613690   0.659   2.809   3.189  0.5272 -0.4418  0.6594
   43MOL   C16713691   0.680   2.706   3.096 -0.4224 -0.3691 -0.1255
   43MOL   C16813692   0.685   2.735   2.959  0.3198 -0.0185 -0.0909
   43MOL   C16913693   0.661   2.870   2.921  0.0458  0.1190  0.1286
   43MOL   C17013694   0.446   3.113   2.909 -0.0658  0.9632 -0.2262
   43MOL   H17113695   0.586   3.195   3.037  0.1810 -0.2417  0.1073
   43MOL   H17213696   0.660   2.790   3.295 -1.1198  1.5001  1.0459
   43MOL   H17313697   0.691   2.606   3.136  0.6094  0.9976  3.1650
   43MOL   H17413698   0.720   2.665   2.885  2.2782  0.4233  0.3940
   43MOL   H17513699   0.676   2.891   2.816  3.3497 -1.2413  0.2662
   43MOL   H17613700   0.383   3.046   2.968 -0.9234  1.8151 -0.1517
   43MOL   H17713701   0.451   3.070   2.808 -1.4720  0.5353 -0.1338
   43MOL   C17813702   0.360   3.247   2.905  0.3030 -0.0017  0.0827
   43MOL   C17913703   0.422   3.367   2.847 -0.0053 -0.4529 -0.1885
   43MOL   C18013704   0.428   3.391   2.709 -0.3656 -0.2980  0.4787
   43MOL  Cl18113705   0.359   3.273   2.605 -0.2317  0.2206  0.0750
   43MOL   C18213706   0.507   3.491   2.653 -0.2524  0.4170 -0.2508
   43MOL   C18313707   0.578   3.583   2.736  0.1376 -0.8480 -0.9723
   43MOL   C18413708   0.568   3.572   2.876 -0.3662  0.1333 -0.5386
   43MOL   C18513709   0.498   3.458   2.929 -0.1725  0.2600  0.1178
   43MOL   C18613710   0.295   3.274   3.041 -0.0233 -0.0044  0.2869
   43MOL   H18713711   0.277   3.225   2.837 -0.1604 -1.4101  1.0748
   43MOL   H18813712   0.514   3.501   2.546 -2.7589  0.6781 -0.4207
   43MOL   H18913713   0.641   3.658   2.692  0.3137  0.5277  1.5404
   43MOL   H19013714   0.621   3.626   2.952 -0.5006  3.5267 -2.7329
   43MOL   H19113715   0.499   3.443   3.036 -0.5723  1.0344  0.2319
   43MOL   H19213716   0.339   3.348   3.108  0.0648 -1.8073  2.2703
   43MOL   H19313717   0.317   3.180   3.092 -1.4620 -1.6555 -2.0193
   43MOL   C19413718   0.145   3.292   3.058  0.1640 -0.2264  0.1116
   43MOL   C19513719   0.068   3.370   2.951 -0.0563 -0.1882  0.5196
   43MOL   C19613720   8.363   3.330   2.906  0.6169 -0.3444 -0.8642
   43MOL  Cl19713721   8.272   3.202   2.994 -0.1707  0.5428  0.1003
   43MOL   C19813722   8.307   3.399   2.797 -1.1720 -0.2106 -0.0165
   43MOL   C19913723   8.377   3.507   2.746 -0.1389 -0.6199  0.5563
   43MOL   C20013724   0.080   3.554   2.786  0.0079 -0.7314  0.1151
   43MOL   C20113725   0.135   3.484   2.895 -0.7581  0.1254 -0.6161
   43MOL   C20213726   0.107   3.360   3.185 -0.1608  0.4063 -0.6604
   43MOL   H20313727   0.095   3.195   3.051  0.2332 -0.2213 -0.5067
   43MOL   H20413728   8.208   3.371   2.764 -1.9621 -0.1453  2.1582
   43MOL   H20513729   8.325   3.565   2.671  0.1910 -1.2183 -0.1354
   43MOL   H20613730   0.131   3.643   2.751 -0.3501 -1.0521 -1.2426
   43MOL   H20713731   0.226   3.520   2.941 -1.3000  2.4953 -1.3019
   43MOL   H20813732   8.420   3.377   3.189 -0.2435 -0.3070  0.2819
   43MOL   H20913733   0.154   3.458   3.184 -0.4164  0.5256 -2.2226
   43MOL   C21013734   0.139   3.290   3.322  0.4890 -0.1022 -0.1056
   43MOL   C21113735   0.065   3.156   3.355  0.6719 -0.0654  0.0665
   43MOL   C21213736   0.132   3.044   3.422 -0.6920 -0.7063 -0.4452
   43MOL  Cl21313737   0.308   3.049   3.448 -0.4018  0.1073 -0.3184
   43MOL   C21413738   0.065   2.923   3.446 -0.3093 -0.4955 -0.2812
   43MOL   C21513739   8.349   2.918   3.411 -0.2367  0.1614 -0.2483
   43MOL   C21613740   8.275   3.016   3.355  0.9006  0.4505  0.0771
   43MOL   C21713741   8.347   3.137   3.322  0.7517  0.0220 -0.0111
   43MOL   C21813742   0.122   3.382   3.444 -0.3738 -0.1075 -0.6023
   43MOL   H21913743   0.243   3.259   3.314  0.0398 -1.8511  0.5330
   43MOL   H22013744   0.123   2.842   3.488  0.5370  1.0319  1.5706
   43MOL   H22113745   8.291   2.829   3.431  0.2334  0.1684  1.2345
   43MOL   H22213746   8.169   3.000   3.337  0.9347  2.0049 -1.6177
   43MOL   H22313747   8.293   3.215   3.270  1.4096 -0.0345 -0.7997
   43MOL   H22413748   0.142   3.313   3.526 -0.3065 -0.0820 -0.5970
   43MOL   H22513749   0.021   3.423   3.446 -0.2971  0.0713 -0.4797
   43MOL   C22613750   0.229   3.496   3.455  0.5545  0.3610  0.3670
   43MOL   C22713751   0.373   3.450   3.447  0.2092  0.3107  0.2989
   43MOL   C22813752   0.469   3.502   3.350 -0.4059  0.8961 -0.2123
   43MOL  Cl22913753   0.425   3.620   3.237  0.0035  0.0151 -0.2071
   43MOL   C23013754   0.598   3.454   3.341 -0.5247  0.4797  0.2738
   43MOL   C23113755   0.638   3.357   3.440 -0.4318  0.3110  1.4890
   43MOL   C23213756   0.551   3.318   3.545  0.3570  0.1080  0.0489
   43MOL   C23313757   0.419   3.358   3.544  0.1549  0.7255  0.3006
   43MOL   C23413758   0.210   3.570   3.595 -0.3698 -0.7929 -1.0672
   43MOL   H23513759   0.202   3.569   3.378  2.0042 -1.0371 -1.5013
   43MOL   H23613760   0.658   3.497   3.263 -1.9833  2.4073  0.1849
   43MOL   H23713761   0.741   3.323   3.446  0.3495  2.1361 -0.8316
   43MOL   H23813762   0.584   3.253   3.624 -0.9614 -0.8977 -0.2174
   43MOL   H23913763   0.348   3.324   3.619  1.4202 -2.9706 -0.0881
   43MOL   H24013764   0.306   3.577   3.646 -0.1211 -1.6904 -1.3969
   43MOL   H24113765   0.154   3.514   3.669  0.6067  2.2517  2.1214
   43MOL   C24213766   0.134   3.703   3.607  0.1225 -0.6007  0.7192
   43MOL   C24313767   0.183   3.793   3.495  0.0709 -0.2264 -0.0055
   43MOL   C24413768   0.102   3.837   3.393 -0.0452 -0.0131  0.6326
   43MOL  Cl24513769   8.361   3.786   3.384  0.5617  0.0054 -0.1876
   43MOL   C24613770   0.144   3.919   3.292 -0.0587  1.3347 -0.3679
   43MOL   C24713771   0.280   3.965   3.293  0.2538 -0.1910 -0.9416
   43MOL   C24813772   0.364   3.927   3.394 -0.6080 -0.6237 -0.3886
   43MOL   C24913773   0.318   3.830   3.490  0.6176  0.4224  0.2214
   43MOL   C25013774   0.143   3.779   3.740  0.5310 -0.7130  0.0297
   43MOL   H25113775   0.034   3.668   3.583  1.0727 -1.4571 -2.2820
   43MOL   H25213776   0.067   3.951   3.223 -0.0608  0.6063 -0.7040
   43MOL   H25313777   0.314   4.035   3.218  1.3239  3.3262  2.6505
   43MOL   H25413778   0.468   3.954   3.396 -0.9182  0.6819 -1.0765
   43MOL   H25513779   0.381   3.781   3.563  0.7005 -0.0729 -0.1760
   43MOL   H25613780   0.127   3.887   3.731 -3.2474 -1.2420 -0.4431
   43MOL   H25713781   0.247   3.771   3.771  0.5383 -0.0598  0.1818
   43MOL   C25813782   0.047   3.720   3.851  0.4397  0.9048  0.3441
   43MOL   C25913783   8.334   3.794   3.859 -0.0325 -0.3634  0.1969
   43MOL   C26013784   8.216   3.751   3.790  0.2261 -0.2281  0.3065
   43MOL  Cl26113785   8.204   3.605   3.693  0.2387  0.5190 -0.0146
   43MOL   C26213786   8.093   3.819   3.802  0.5554 -0.8738  0.2174
   43MOL   C26313787   8.091   3.936   3.874 -0.0142 -0.5002  0.4529
   43MOL   C26413788   8.201   3.990   3.936  0.7943  0.0030  0.2176
   43MOL   C26513789   8.315   3.913   3.932  0.0545  0.8623 -0.4157
   43MOL   C26613790   0.120   3.701   3.990  0.0862 -0.3060 -0.2583
   43MOL   H26713791   0.020   3.618   3.824  4.2205  0.6736 -3.1248
   43MOL   H26813792   8.007   3.777   3.752  0.7428  0.4514 -1.2867
   43MOL   H26913793   7.995   3.985   3.885 -0.2903 -0.0095 -3.4954
   43MOL   H27013794   8.200   4.075   4.004 -0.9296 -0.5865  0.9776
   43MOL   H27113795   8.402   3.944   3.988 -1.3158  1.5100  1.4171
   43MOL   H27213796   0.053   3.665   4.068  0.1888  1.6007  0.7258
   43MOL   H27313797   0.156   3.799   4.019  0.7129 -0.4931 -0.4042
   43MOL   C27413798   0.246   3.614   3.998  0.0982 -0.3840  1.1350
   43MOL   C27513799   0.220   3.475   3.948  0.0515  0.5626  0.2239
   43MOL   C27613800   0.319   3.394   3.886 -0.0625 -0.2002  0.4737
   43MOL  Cl27713801   0.474   3.461   3.849 -0.3542  0.0546 -0.0047
   43MOL   C27813802   0.289   3.265   3.835  0.0048 -0.3911 -0.3428
   43MOL   C27913803   0.161   3.210   3.853  0.0161  1.0311  0.5774
   43MOL   C28013804   0.067   3.274   3.930  0.4705 -0.8037 -0.1612
   43MOL   C28113805   0.096   3.407   3.967 -0.6464 -0.4319 -0.2014
   43MOL   C28213806   0.311   3.605   4.142 -0.9804  0.7326 -0.2586
   43MOL   H28313807   0.322   3.659   3.933 -0.4898  0.2632  0.8837
   43MOL   H28413808   0.367   3.201   3.796 -0.7092 -1.4669 -0.0328
   43MOL   H28513809   0.129   3.122   3.800  0.1895  0.6864  1.0348
   43MOL   H28613810   8.390   3.229   3.942  0.0262 -1.0115 -3.8091
   43MOL   H28713811   0.014   3.461   4.014 -0.0731  1.0679 -0.8877
   43MOL   H28813812   0.383   3.523   4.147 -1.8783 -0.0738 -0.3911
   43MOL   H28913813   0.238   3.595   4.221 -0.7028  0.5877 -0.0198
   43MOL   C29013814   0.381   3.734   4.167 -0.2276 -0.0058 -0.5971
   43MOL   C29113815   0.509   3.754   4.083 -0.0031  0.7856 -0.0666
   43MOL   C29213816   0.515   3.842   3.967 -0.2383  0.2860 -0.2057
   43MOL  Cl29313817   0.382   3.954   3.938  0.2684 -0.2681 -0.3593
   43MOL   C29413818   0.623   3.842   3.879  0.4573 -0.1912 -0.2496
   43MOL   C29513819   0.741   3.777   3.919 -0.5268 -0.4784  0.0024
   43MOL   C29613820   0.739   3.699   4.032 -0.1552  0.0715 -0.7902
   43MOL   C29713821   0.627   3.682   4.111 -0.0581 -1.2839 -0.0754
   43MOL   C29813822   0.399   3.754   4.322 -0.1681 -0.0479  0.6557
   43MOL   H29913823   0.308   3.813   4.147  1.8140  1.6937 -1.5598
   43MOL   H30013824   0.619   3.903   3.790  2.2868 -1.0283 -0.9380
   43MOL   H30113825   0.831   3.797   3.862  0.5157 -1.1487  1.3900
   43MOL   H30213826   0.833   3.649   4.051 -0.8785 -2.0135 -2.5100
   43MOL   H30313827   0.622   3.603   4.185  0.6566 -1.6999 -0.4665
   43MOL   H30413828   0.440   3.853   4.339 -1.2442  0.2156  1.8039
   43MOL   H30513829   0.476   3.686   4.358  0.9593  0.0046 -1.6037
   43MOL   C30613830   0.284   3.740   4.423 -0.4478  0.6509 -0.3653
   43MOL   C30713831   0.146   3.792   4.377 -0.1548  0.1692 -0.7853
   43MOL   C30813832   0.032   3.708   4.378  0.6947 -0.0775  0.3630
   43MOL  Cl30913833   0.023   3.539   4.438  0.4591 -0.0214 -0.3602
   43MOL   C31013834   8.328   3.762   4.332  0.4062  0.3911  0.6113
   43MOL   C31113835   8.323   3.888   4.272 -0.0464 -0.3115 -0.1714
   43MOL   C31213836   0.014   3.974   4.282 -1.0258 -0.1578  0.4727
   43MOL   C31313837   0.138   3.924   4.331  0.4351 -0.2488 -0.0799
   43MOL   C31413838   0.323   3.812   4.554  0.0215  0.9930 -0.3936
   43MOL   H31513839   0.276   3.636   4.454  0.3910  1.2408  1.9726
   43MOL   H31613840   8.240   3.700   4.342  0.0146  1.1398  1.8979
   43MOL   H31713841   8.227   3.917   4.230  0.9152 -0.0742 -2.2359
   43MOL   H31813842   8.415   4.073   4.244 -0.4340 -0.8129 -1.6057
   43MOL   H31913843   0.228   3.983   4.331 -0.2824  0.8782  1.0063
   43MOL   H32013844   0.278   3.762   4.640  2.7623  1.1868  1.2183
   43MOL   H32113845   0.302   3.918   4.543 -0.0501  0.8088 -2.2880
   43MOL   H32213846   0.430   3.805   4.578 -0.4589 -0.8741  1.3200
   44MOL     C113847   8.222   1.967   4.415  0.2437 -0.2527  0.2666
   44MOL     C213848   8.138   2.094   4.401  0.3471  0.1880  0.3142
   44MOL     C313849   8.155   2.180   4.288 -0.3135 -0.1362 -0.2519
   44MOL    Cl413850   8.266   2.134   4.160  0.4050  0.4365  0.3632
   44MOL     C513851   8.067   2.293   4.272 -0.1295  0.5923  0.1469
   44MOL     C613852   7.973   2.322   4.377 -0.3418 -0.4058  0.3813
   44MOL     C713853   7.957   2.237   4.486  0.0539 -0.5038 -0.1970
   44MOL     C813854   8.034   2.119   4.499 -0.2962  0.3676  0.3952
   44MOL     C913855   8.156   1.838   4.363 -0.1488  0.1331 -0.6465
   44MOL    H1013856   8.321   1.980   4.371  0.1633 -0.5950 -0.0127
   44MOL    H1113857   8.086   2.346   4.180 -0.9448  0.2154 -0.2468
   44MOL    H1213858   7.920   2.416   4.382 -1.0849 -0.7595 -0.5615
   44MOL    H1313859   7.884   2.259   4.564 -0.5780 -1.9659 -0.3522
   44MOL    H1413860   8.033   2.055   4.586  1.8884 -1.1933 -0.6735
   44MOL    H1513861   8.239   1.776   4.329  0.8257  3.2906 -4.3372
   44MOL    H1613862   8.099   1.855   4.272 -1.0450  0.9547  0.0489
   44MOL    H1713863   8.232   1.950   4.522  2.0412  1.0756  0.3230
   44MOL    C1813864   8.073   1.753   4.465  0.5388  0.3593 -0.0527
   44MOL    C1913865   8.135   1.732   4.603  0.1411 -0.0106  0.0642
   44MOL    C2013866   8.073   1.777   4.725 -0.3119 -0.1943  0.5914
   44MOL   Cl2113867   7.915   1.844   4.740 -0.3195  0.4574 -0.2489
   44MOL    C2213868   8.151   1.776   4.844 -0.6895  0.6086  0.5676
   44MOL    C2313869   8.286   1.737   4.841  0.0883 -0.2920 -0.3667
   44MOL    C2413870   8.343   1.702   4.721  0.4744 -0.0204  0.5499
   44MOL    C2513871   8.274   1.690   4.604  0.4820 -0.0049  0.3311
   44MOL    C2613872   8.020   1.615   4.422  0.0607  0.2025 -0.1038
   44MOL    H2713873   7.979   1.801   4.492  0.6721  1.0996 -0.8810
   44MOL    H2813874   8.115   1.810   4.940  2.1814 -0.4831  2.0933
   44MOL    H2913875   8.341   1.733   4.934 -0.5332  0.7305  0.0420
   44MOL    H3013876   0.028   1.678   4.723  0.1300 -1.5238  2.3550
   44MOL    H3113877   8.327   1.666   4.512 -0.5474 -1.8189  0.1911
   44MOL    H3213878   7.964   1.559   4.497  3.1935 -0.7395  1.5953
   44MOL    H3313879   8.107   1.551   4.409  0.0711  0.4948 -1.5851
   44MOL    C3413880   7.946   1.614   4.284  0.5258  0.1502 -0.6002
   44MOL    C3513881   7.823   1.707   4.296  0.0240 -0.2415 -0.3136
   44MOL    C3613882   7.807   1.811   4.197 -0.7891 -0.2987 -0.7603
   44MOL   Cl3713883   7.914   1.816   4.062 -0.1968  0.1300  0.4710
   44MOL    C3813884   7.715   1.917   4.209 -0.3902  0.3536 -0.8556
   44MOL    C3913885   7.633   1.923   4.327  0.0048  0.0465  0.3142
   44MOL    C4013886   7.636   1.805   4.413  0.6502  0.3803 -0.2995
   44MOL    C4113887   7.729   1.704   4.399 -0.2288  0.4556 -0.5782
   44MOL    C4213888   7.898   1.474   4.233 -0.5151 -0.0860  1.0582
   44MOL    H4313889   8.023   1.652   4.217  0.1881  0.9050 -0.5730
   44MOL    H4413890   7.723   1.996   4.136 -1.6517  0.9605 -0.3456
   44MOL    H4513891   7.564   2.001   4.358  0.2802  0.2123  0.5113
   44MOL    H4613892   7.578   1.809   4.504  0.4036  1.1371 -0.4777
   44MOL    H4713893   7.735   1.629   4.476  2.6897  2.9689  1.7832
   44MOL    H4813894   7.816   1.484   4.163  0.9277 -1.8792 -0.9592
   44MOL    H4913895   7.849   1.417   4.312  2.3404 -0.2494  2.7729
   44MOL    C5013896   8.007   1.381   4.172  0.2036  0.1317  0.6375
   44MOL    C5113897   8.055   1.436   4.039  0.4405 -0.2420 -0.3979
   44MOL    C5213898   8.188   1.470   4.019 -1.0561 -0.0342 -0.2085
   44MOL   Cl5313899   8.311   1.476   4.148  0.0835 -0.0885 -0.0382
   44MOL    C5413900   8.235   1.495   3.893 -0.1999  0.0373  0.0006
   44MOL    C5513901   8.157   1.487   3.777  0.0387  0.9392  0.2544
   44MOL    C5613902   8.016   1.463   3.798  0.6876  0.1018 -0.0427
   44MOL    C5713903   7.966   1.434   3.927  0.0368 -0.1817  0.6305
   44MOL    C5813904   7.933   1.239   4.161 -0.5412 -0.4225  0.5169
   44MOL    H5913905   8.092   1.374   4.239  2.8678  1.4085 -2.4620
   44MOL    H6013906   8.341   1.515   3.887 -0.4859  2.1101  1.4093
   44MOL    H6113907   8.203   1.500   3.680  0.2949 -1.9825 -0.0369
   44MOL    H6213908   7.950   1.453   3.713 -0.3435  2.5510  0.4316
   44MOL    H6313909   7.865   1.397   3.934  0.4192 -1.0850  1.5447
   44MOL    H6413910   7.986   1.195   4.076  0.5435 -0.4089  1.1711
   44MOL    H6513911   7.828   1.261   4.141 -1.4147 -2.1752  2.9712
   44MOL    C6613912   7.957   1.160   4.297  0.4984  0.2491 -0.7625
   44MOL    C6713913   8.091   1.081   4.311 -0.7609  0.0661  0.5039
   44MOL    C6813914   8.171   1.091   4.430  0.2624 -0.3711  1.0466
   44MOL   Cl6913915   8.127   1.168   4.574 -0.0030 -0.0230  0.7570
   44MOL    C7013916   8.294   1.021   4.435  0.0934  0.0510  0.2585
   44MOL    C7113917   8.329   0.937   4.329 -0.1629  0.3694 -0.1209
   44MOL    C7213918   8.257   0.930   4.209 -0.1569  0.6874 -0.2423
   44MOL    C7313919   8.144   1.008   4.196  0.3422  0.0909  0.6532
   44MOL    C7413920   7.850   1.056   4.318  0.1359 -0.1212 -0.0482
   44MOL    H7513921   7.955   1.232   4.379  3.8216 -0.7495  0.2634
   44MOL    H7613922   8.352   1.026   4.526  2.7658 -1.0226 -1.3410
   44MOL    H7713923   8.407   0.864   4.347 -0.5765  0.2591  1.3001
   44MOL    H7813924   8.288   0.868   4.126  0.6623 -0.0186  0.5833
   44MOL    H7913925   8.096   1.005   4.099  0.3228  1.2971  0.6221
   44MOL    H8013926   7.899   0.980   4.378 -1.1376  1.0336  2.5104
   44MOL    H8113927   7.834   1.003   4.224 -0.0543  2.1927 -1.3551
   44MOL    C8213928   7.722   1.096   4.387  0.6209 -0.2918 -0.5511
   44MOL    C8313929   7.712   1.033   4.528  0.3084  0.3744  0.7144
   44MOL    C8413930   7.723   1.098   4.653 -0.2244  0.5661  0.3763
   44MOL   Cl8513931   7.787   1.259   4.655 -0.2060  0.2678 -0.6155
   44MOL    C8613932   7.702   1.027   4.774 -0.8430  0.2540 -0.4884
   44MOL    C8713933   7.679   0.895   4.775  0.3950 -0.1398 -0.0338
   44MOL    C8813934   7.674   0.825   4.651  0.3740 -0.4158  0.8296
   44MOL    C8913935   7.692   0.896   4.531  0.7468 -1.0269 -0.2206
   44MOL    C9013936   7.599   1.059   4.294  0.6626  0.5935  0.4453
   44MOL    H9113937   7.724   1.205   4.392 -1.2732 -0.2677  0.3129
   44MOL    H9213938   7.693   1.082   4.867 -2.9337  0.0956 -0.5799
   44MOL    H9313939   7.668   0.843   4.869 -0.1738  0.9593  0.5198
   44MOL    H9413940   7.639   0.724   4.638 -4.1179  1.0204  1.0438
   44MOL    H9513941   7.682   0.848   4.435  1.7719  1.0796 -1.4219
   44MOL    H9613942   7.550   0.966   4.324  0.3019  0.7835  0.4421
   44MOL    H9713943   7.636   1.051   4.192 -1.0689 -1.6482 -0.0351
   44MOL    C9813944   7.483   1.154   4.302  0.3992  0.6430 -0.3349
   44MOL    C9913945   7.424   1.169   4.445  0.1201 -0.1137 -0.7200
   44MOL   C10013946   7.429   1.293   4.521 -0.5969 -0.1258  0.3758
   44MOL  Cl10113947   7.489   1.437   4.452  0.0371 -0.3713  0.3959
   44MOL   C10213948   7.364   1.299   4.649  0.3852  0.6970 -0.2605
   44MOL   C10313949   7.316   1.179   4.705 -0.1868  0.7665 -0.0031
   44MOL   C10413950   7.321   1.058   4.637  0.6742  0.2838 -0.2109
   44MOL   C10513951   7.365   1.053   4.506 -0.1570 -0.1263 -0.2595
   44MOL   C10613952   7.380   1.105   4.195 -0.4926  0.4272  0.1868
   44MOL   H10713953   7.525   1.251   4.275  0.3518 -0.2414 -3.7267
   44MOL   H10813954   7.374   1.394   4.700 -1.4409  0.0704  1.3357
   44MOL   H10913955   7.280   1.178   4.807  1.3657 -3.1640  0.5725
   44MOL   H11013956   7.295   0.963   4.681  0.8177  0.1441 -0.4298
   44MOL   H11113957   7.356   0.956   4.459  0.9436 -0.6340  0.5683
   44MOL   H11213958   7.340   1.005   4.212 -0.9233  0.5059 -0.3450
   44MOL   H11313959   7.447   1.098   4.109  2.7817  0.0979  2.6551
   44MOL   C11413960   7.272   1.211   4.171  0.7781  0.1983  0.0049
   44MOL   C11513961   7.143   1.186   4.250 -0.2273  0.3546  0.3963
   44MOL   C11613962   7.084   1.270   4.343  0.3948  0.3112 -0.1322
   44MOL  Cl11713963   7.159   1.422   4.378 -0.2488 -0.1524  0.2856
   44MOL   C11813964   6.965   1.230   4.407  0.3974 -0.5321 -0.0514
   44MOL   C11913965   6.906   1.107   4.386 -0.7989  0.9559 -0.1799
   44MOL   C12013966   6.963   1.020   4.292  0.1492 -0.2114  0.0821
   44MOL   C12113967   7.085   1.058   4.226 -0.0934  0.0303  0.1400
   44MOL   C12213968   7.241   1.228   4.017  0.5966  0.2847 -0.3472
   44MOL   H12313969   7.311   1.306   4.208  1.6697 -0.5346  0.9867
   44MOL   H12413970   6.919   1.291   4.484 -0.2651 -0.6775 -0.3299
   44MOL   H12513971   6.821   1.067   4.440 -0.3663  0.3545  0.0654
   44MOL   H12613972   6.913   0.926   4.277  0.6924 -0.4812 -0.0542
   44MOL   H12713973   7.138   0.990   4.161  1.2596  2.8377 -1.7538
   44MOL   H12813974   7.152   1.291   4.002  1.0437  1.0276  0.0543
   44MOL   H12913975   7.228   1.132   3.967  0.4412  0.4769 -0.6792
   44MOL   C13013976   7.339   1.315   3.927  0.4107  0.2756 -0.2824
   44MOL   C13113977   7.346   1.463   3.973 -0.3136  0.1106 -0.1199
   44MOL   C13213978   7.460   1.504   4.048  0.1964  0.0859 -0.3154
   44MOL  Cl13313979   7.593   1.402   4.086 -0.1482  0.2469 -0.3941
   44MOL   C13413980   7.472   1.634   4.084 -0.8478  0.2469  0.4127
   44MOL   C13513981   7.372   1.732   4.055  0.4431 -0.0239 -0.3869
   44MOL   C13613982   7.262   1.693   3.976 -0.4961 -0.8315 -0.1060
   44MOL   C13713983   7.253   1.557   3.932  0.6081 -0.1869  0.0699
   44MOL   C13813984   7.322   1.300   3.777 -0.0527  0.5262  0.4373
   44MOL   H13913985   7.437   1.272   3.949 -0.2822 -0.0968  2.1181
   44MOL   H14013986   7.567   1.671   4.119 -0.7477  1.4764 -1.1021
   44MOL   H14113987   7.389   1.836   4.079  2.3433 -0.5318  0.5527
   44MOL   H14213988   7.191   1.769   3.944 -0.6164 -0.7749  0.2984
   44MOL   H14313989   7.169   1.526   3.871 -0.1154  1.2930  0.3033
   44MOL   H14413990   7.369   1.377   3.715 -3.2421  0.1869 -2.5389
   44MOL   H14513991   7.217   1.302   3.747  0.3394 -0.2477 -1.0481
   44MOL   C14613992   7.382   1.161   3.742  0.1723 -0.4319 -0.3357
   44MOL   C14713993   7.532   1.173   3.702 -0.0454 -0.5372 -0.0853
   44MOL   C14813994   7.638   1.114   3.772 -0.0819 -0.9392  0.4503
   44MOL  Cl14913995   7.619   1.019   3.917 -0.2083  0.0443 -0.0220
   44MOL   C15013996   7.772   1.138   3.732 -0.6770 -0.3899 -0.2921
   44MOL   C15113997   7.800   1.218   3.623 -0.2369 -0.5652  0.2688
   44MOL   C15213998   7.691   1.259   3.548  0.0473 -0.2554 -0.2401
   44MOL   C15313999   7.555   1.235   3.582 -0.1228 -0.2361 -0.6565
   44MOL   C15414000   7.298   1.088   3.629  0.4165  0.4051  1.6243
   44MOL   H15514001   7.380   1.100   3.832 -1.4995 -1.0902 -0.8040
   44MOL   H15614002   7.854   1.102   3.792  0.0247  0.2686 -0.8384
   44MOL   H15714003   7.897   1.248   3.587 -0.9965  1.5158 -0.1385
   44MOL   H15814004   7.699   1.309   3.452  1.0144  1.6827  0.8278
   44MOL   H15914005   7.481   1.282   3.519 -1.7119  0.7848  1.9092
   44MOL   H16014006   7.300   1.148   3.538  0.1060 -1.4907  0.3283
   44MOL   H16114007   7.195   1.066   3.655 -0.1929  0.1752 -0.8329
   44MOL   C16214008   7.354   0.948   3.586 -1.0781 -0.1141  0.6176
   44MOL   C16314009   7.287   0.900   3.449  0.1589 -0.2903  0.2910
   44MOL   C16414010   7.342   0.930   3.324 -0.3539 -0.0303  0.1570
   44MOL  Cl16514011   7.488   1.021   3.323  0.1709 -0.2078 -0.1894
   44MOL   C16614012   7.284   0.888   3.206 -0.3391  0.0570  0.2341
   44MOL   C16714013   7.167   0.813   3.207 -0.2130 -0.7167 -0.5027
   44MOL   C16814014   7.107   0.780   3.335 -0.5772  1.1903 -0.6550
   44MOL   C16914015   7.162   0.835   3.453  0.6556 -0.1895 -0.0105
   44MOL   C17014016   7.346   0.835   3.698  0.6311  0.1261 -0.2209
   44MOL   H17114017   7.461   0.959   3.567 -1.2281 -0.8271 -0.6552
   44MOL   H17214018   7.331   0.910   3.111 -0.9334 -1.0849 -0.3354
   44MOL   H17314019   7.140   0.789   3.105  0.9162  3.4652 -1.8838
   44MOL   H17414020   7.014   0.725   3.330  1.6903 -3.0405  1.7680
   44MOL   H17514021   7.110   0.819   3.546  0.1655  0.3177 -0.1959
   44MOL   H17614022   7.241   0.811   3.714  0.6478  0.1637 -0.0509
   44MOL   H17714023   7.361   0.874   3.798 -0.8375  1.6178 -0.5474
   44MOL   C17814024   7.432   0.706   3.684  0.2548 -0.4461  0.1723
   44MOL   C17914025   7.372   0.588   3.746 -0.1615  0.0384  0.0701
   44MOL   C18014026   7.316   0.482   3.672  0.3974  0.1730  0.4201
   44MOL  Cl18114027   7.336   0.462   3.506 -0.0300 -0.0530 -0.0928
   44MOL   C18214028   7.241   0.381   3.739 -0.6231 -0.4918  0.5707
   44MOL   C18314029   7.223   0.386   3.878 -0.0434 -0.9484 -0.4048
   44MOL   C18414030   7.280   0.493   3.953  0.3293  0.4142 -0.3624
   44MOL   C18514031   7.353   0.593   3.886 -0.8885 -0.3794  0.0947
   44MOL   C18614032   7.577   0.729   3.721 -0.3144  0.5582  0.0909
   44MOL   H18714033   7.423   0.684   3.577  0.2913 -1.6582  0.4081
   44MOL   H18814034   7.201   0.295   3.686 -0.4795 -0.0578 -0.2414
   44MOL   H18914035   7.155   0.319   3.927 -0.7857  1.8440  2.5875
   44MOL   H19014036   7.269   0.490   4.060 -1.3321 -1.0318 -0.5500
   44MOL   H19114037   7.394   0.674   3.945 -2.0217  0.2344  0.0452
   44MOL   H19214038   7.577   0.769   3.823 -2.2499  1.2905 -0.1642
   44MOL   H19314039   7.630   0.810   3.671  2.7942 -0.7455  1.1392
   44MOL   C19414040   7.669   0.603   3.697  0.4188  0.0324 -0.0205
   44MOL   C19514041   7.797   0.602   3.790 -0.5515 -0.0175  0.2476
   44MOL   C19614042   7.842   0.485   3.855  0.8280 -0.1437  0.3650
   44MOL  Cl19714043   7.764   0.334   3.836 -0.1338 -0.2176  0.1436
   44MOL   C19814044   7.953   0.488   3.940  0.3130 -0.2587  0.1367
   44MOL   C19914045   8.022   0.607   3.961 -0.0599  0.2566  0.3164
   44MOL   C20014046   7.973   0.727   3.908 -0.4902  0.3333  0.0436
   44MOL   C20114047   7.864   0.720   3.819  0.0396 -0.5266  0.4469
   44MOL   C20214048   7.716   0.596   3.550 -0.3941 -0.3216  0.8091
   44MOL   H20314049   7.615   0.510   3.713  1.1106 -0.2317  0.8630
   44MOL   H20414050   7.981   0.399   3.992 -3.0829 -1.3574  0.2228
   44MOL   H20514051   8.111   0.606   4.023  2.3267 -0.1195 -3.0209
   44MOL   H20614052   8.027   0.816   3.938  0.2231  0.0425 -0.3470
   44MOL   H20714053   7.846   0.817   3.774 -0.5867 -0.9237 -0.1617
   44MOL   H20814054   7.783   0.680   3.532 -0.3948 -0.4590  0.1595
   44MOL   H20914055   7.635   0.600   3.478 -0.3447  1.3767  0.8421
   44MOL   C21014056   7.792   0.461   3.511  0.1246  0.2843  0.1602
   44MOL   C21114057   7.900   0.488   3.411 -0.6912 -0.1145 -0.2053
   44MOL   C21214058   8.035   0.517   3.450 -0.0544 -0.5500  0.4830
   44MOL  Cl21314059   8.091   0.483   3.606  0.0629 -0.3218 -0.1844
   44MOL   C21414060   8.124   0.551   3.346  0.0629 -0.2589 -0.2419
   44MOL   C21514061   8.091   0.570   3.212 -0.4195  0.3593 -0.3131
   44MOL   C21614062   7.957   0.546   3.176  0.4118  0.5583  0.1649
   44MOL   C21714063   7.868   0.508   3.274  0.4655  0.0525 -0.3987
   44MOL   C21814064   7.690   0.343   3.471 -0.3738 -0.3963  0.0839
   44MOL   H21914065   7.843   0.436   3.604 -0.9468  0.9690  0.9383
   44MOL   H22014066   8.229   0.563   3.370 -0.0598 -0.9065  0.6836
   44MOL   H22114067   8.158   0.602   3.133 -0.6556  3.2849  0.6167
   44MOL   H22214068   7.914   0.545   3.076  0.8570 -1.7250 -0.0261
   44MOL   H22314069   7.769   0.472   3.250 -0.2873  0.2709  2.1506
   44MOL   H22414070   7.621   0.379   3.394 -2.1233 -1.5888  1.0637
   44MOL   H22514071   7.621   0.324   3.553 -2.2850  0.8936 -1.1694
   44MOL   C22614072   7.759   0.219   3.426 -0.4672  0.3781 -0.7529
   44MOL   C22714073   7.653   0.119   3.371 -0.9260  0.6502  0.0535
   44MOL   C22814074   7.620   0.111   3.231  0.3596  0.5053 -0.3145
   44MOL  Cl22914075   7.666   0.237   3.120 -0.2329  0.0841  0.5002
   44MOL   C23014076   7.549   0.002   3.178  0.5809  0.8377  0.2642
   44MOL   C23114077   7.497   8.327   3.270 -0.3930 -0.1174  0.1040
   44MOL   C23214078   7.516   8.335   3.406 -0.2228  0.6247 -1.3430
   44MOL   C23314079   7.596   0.020   3.451 -0.1299 -0.3301 -0.1915
   44MOL   C23414080   7.861   0.158   3.522  1.0379 -0.3542  0.4954
   44MOL   H23514081   7.822   0.262   3.348  1.2055  0.8519  0.8095
   44MOL   H23614082   7.519   0.003   3.074 -0.8259 -1.8089  0.6031
   44MOL   H23714083   7.441   8.245   3.227 -0.5586  0.9226 -1.7378
   44MOL   H23814084   7.467   8.265   3.472  1.6694  1.3659  0.9442
   44MOL   H23914085   7.603   0.027   3.558 -3.8019  0.1490  0.0726
   44MOL   H24014086   7.813   0.081   3.582  1.7048  0.0866  1.6162
   44MOL   H24114087   7.902   0.228   3.595 -0.8350 -0.1883  1.4052
   44MOL   C24214088   7.988   0.105   3.458  0.3594  0.2078 -0.0750
   44MOL   C24314089   7.970   8.417   3.350  0.0321 -0.8485  0.3098
   44MOL   C24414090   7.996   0.018   3.206 -0.0620 -0.0946  1.0348
   44MOL  Cl24514091   8.044   0.170   3.147 -0.1857 -0.3445  0.1184
   44MOL   C24614092   7.996   8.323   3.125 -0.2611  0.0873 -0.0582
   44MOL   C24714093   7.965   8.202   3.174  0.1694 -0.0630  0.4558
   44MOL   C24814094   7.932   8.181   3.311  0.9787  0.1359 -0.6954
   44MOL   C24914095   7.927   8.291   3.395  0.8037 -0.8583 -0.3134
   44MOL   C25014096   8.084   0.067   3.567  0.3211  0.5835 -0.5535
   44MOL   H25114097   8.029   0.200   3.424 -1.8967  1.0520 -0.4949
   44MOL   H25214098   8.013   8.321   3.019 -0.0169 -0.2621 -0.0134
   44MOL   H25314099   7.967   8.119   3.105 -0.6562  1.4512 -1.4405
   44MOL   H25414100   7.901   8.083   3.344 -1.1328  0.3432 -1.9982
   44MOL   H25514101   7.896   8.282   3.498 -1.9266 -3.7240 -1.3060
   44MOL   H25614102   8.041   8.406   3.625 -1.7318 -0.2018 -3.0541
   44MOL   H25714103   8.095   0.154   3.631 -0.2457  0.7972 -0.7445
   44MOL   C25814104   8.224   0.023   3.532 -0.3412 -0.6953  0.4500
   44MOL   C25914105   8.280   8.370   3.649  0.1263 -0.3403 -0.3430
   44MOL   C26014106   8.364   8.259   3.633 -0.0041  0.2858  0.1826
   44MOL  Cl26114107   8.379   8.184   3.479 -0.2944  0.3035  0.0612
   44MOL   C26214108   0.013   8.203   3.744 -0.8221 -0.0631  0.3514
   44MOL   C26314109   8.418   8.248   3.872 -0.3591 -0.2398  0.2313
   44MOL   C26414110   8.328   8.354   3.884 -0.2640  0.3091 -0.1319
   44MOL   C26514111   8.255   8.415   3.776  0.0668 -0.8762  0.8429
   44MOL   C26614112   8.314   0.144   3.495  0.2655  0.3053  0.2205
   44MOL   H26714113   8.219   8.373   3.450  0.6078 -0.0813 -0.1417
   44MOL   H26814114   0.073   8.114   3.732  0.4804  0.5077  2.3098
   44MOL   H26914115   0.057   8.204   3.950 -0.4147  0.7299  0.8240
   44MOL   H27014116   8.310   8.397   3.982 -1.7951  0.3870 -0.4338
   44MOL   H27114117   8.191   0.079   3.798 -0.6076 -1.4032  0.9085
   44MOL   H27214118   8.334   0.210   3.580  0.1985 -1.5570  1.7259
   44MOL   H27314119   8.248   0.200   3.429 -1.0372 -2.3989 -0.8397
   44MOL   C27414120   0.017   0.117   3.407  0.0773 -0.3343 -0.5687
   44MOL   C27514121   0.117   0.232   3.425  0.8219  0.6907  0.0091
   44MOL   C27614122   0.245   0.208   3.479 -0.3755  0.6088 -0.2347
   44MOL  Cl27714123   0.315   0.051   3.496  0.0587 -0.0697 -0.5058
   44MOL   C27814124   0.330   0.318   3.504  0.5707 -0.1696 -0.4417
   44MOL   C27914125   0.289   0.450   3.490  0.1460  0.1228 -0.0222
   44MOL   C28014126   0.170   0.478   3.424  0.5160  0.3306  0.2391
   44MOL   C28114127   0.076   0.369   3.394  0.0615  0.2636  0.0315
   44MOL   C28214128   8.400   0.102   3.259 -0.0210  0.8497  0.1339
   44MOL   H28314129   0.063   0.027   3.447 -1.4322 -0.7850  0.1768
   44MOL   H28414130   0.421   0.288   3.554  0.1912 -1.3822 -0.4680
   44MOL   H28514131   0.368   0.521   3.510  1.3605 -0.3450 -2.7885
   44MOL   H28614132   0.143   0.580   3.401 -1.2078 -0.0634  0.4317
   44MOL   H28714133   8.403   0.387   3.343  0.2653 -1.7645 -1.1058
   44MOL   H28814134   8.364   0.195   3.215  0.2591  1.0884  0.4057
   44MOL   H28914135   8.317   0.031   3.259  0.1472  0.6404  1.6591
   44MOL   C29014136   0.090   0.048   3.162 -0.2609 -0.2054 -0.6875
   44MOL   C29114137   0.039   0.048   3.019 -0.4908 -0.7016  0.2851
   44MOL   C29214138   0.120   0.104   2.909  0.0345 -0.7125 -0.2101
   44MOL  Cl29314139   0.256   0.208   2.943  0.0385 -0.3548  0.0338
   44MOL   C29414140   0.077   0.112   2.782  0.5446  0.0482  0.2351
   44MOL   C29514141   8.380   0.051   2.743  0.7790 -0.0398  0.2780
   44MOL   C29614142   8.307   8.399   2.842  0.2178 -0.9629  0.1600
   44MOL   C29714143   8.345   8.399   2.975  0.6026  0.5391  0.0157
   44MOL   C29814144   0.138   8.330   3.206  0.1772 -0.3853 -0.5902
   44MOL   H29914145   0.174   0.118   3.168  0.1551 -0.8058  0.8233
   44MOL   H30014146   0.128   0.172   2.708  1.4164 -1.0022 -0.0342
   44MOL   H30114147   8.329   0.045   2.648  0.0855  3.7773  0.3501
   44MOL   H30214148   8.214   8.351   2.816  0.1320 -0.6619 -0.0928
   44MOL   H30314149   8.276   8.354   3.044 -1.5261  1.4562 -1.4599
   44MOL   H30414150   0.046   8.271   3.208 -0.6268  0.8833  0.4033
   44MOL   H30514151   0.157   8.331   3.313 -2.5089 -1.9410 -0.0482
   44MOL   C30614152   0.247   8.270   3.117 -0.5128 -0.1844 -0.1189
   44MOL   C30714153   0.240   8.121   3.107  0.3111 -0.6674  0.2071
   44MOL   C30814154   0.220   8.053   2.982  0.2297 -0.3625  0.4088
   44MOL  Cl30914155   0.212   8.140   2.827  0.0793  0.8399 -0.3972
   44MOL   C31014156   0.213   7.912   2.975 -0.1064  0.3063  0.6477
   44MOL   C31114157   0.220   7.837   3.093  0.1764  0.2773 -0.6897
   44MOL   C31214158   0.242   7.902   3.220 -0.0350  0.5179 -0.4435
   44MOL   C31314159   0.255   8.043   3.228  0.4235 -0.0842 -0.1388
   44MOL   C31414160   0.384   8.315   3.178  0.2954 -0.4738 -0.4530
   44MOL   H31514161   0.249   8.302   3.012 -0.4716 -2.1917 -0.7523
   44MOL   H31614162   0.194   7.854   2.886 -1.1867 -1.9137  2.2671
   44MOL   H31714163   0.213   7.729   3.092 -1.3438  0.3763 -2.1417
   44MOL   H31814164   0.255   7.845   3.311  3.4469  0.8095 -0.7079
   44MOL   H31914165   0.283   8.095   3.318  1.3202 -0.8538  0.0500
   44MOL   H32014166   0.453   8.292   3.097  0.1455 -3.1819  0.1502
   44MOL   H32114167   0.412   8.277   3.276  1.4521  1.2252 -0.1033
   44MOL   H32214168   0.390   0.004   3.177 -0.4154 -0.4015  1.3499
   45MOL     C114169   7.916   6.681   0.167  0.3097  0.2917  0.1360
   45MOL     C214170   8.010   6.563   0.155  0.2654  0.0730  0.6149
   45MOL     C314171   7.993   6.437   0.225 -0.2562  0.2647  0.1537
   45MOL    Cl414172   7.868   6.421   0.342 -0.0489  0.3053  0.3491
   45MOL     C514173   8.079   6.326   0.202 -0.8515  0.6606 -0.2597
   45MOL     C614174   8.181   6.332   0.103 -0.2845  0.6855  0.4862
   45MOL     C714175   8.189   6.452   0.022 -0.1985  0.1065  0.1432
   45MOL     C814176   8.113   6.568   0.059  0.1360  0.3710  0.5356
   45MOL     C914177   7.793   6.677   0.067  0.0996 -0.0731  0.0806
   45MOL    H1014178   7.892   6.677   0.273  0.6662  1.8672  0.2931
   45MOL    H1114179   8.066   6.231   0.251 -1.2098  0.4085 -0.8387
   45MOL    H1214180   8.240   6.246   0.078 -0.4939  0.5818  0.3466
   45MOL    H1314181   8.252   6.439   8.356  0.8179 -3.2549  1.3127
   45MOL    H1414182   8.118   6.657   8.419 -1.2799  1.9409  2.6403
   45MOL    H1514183   7.730   6.597   0.107  0.0420 -0.6987 -1.2449
   45MOL    H1614184   7.827   6.652   8.387 -1.2013 -0.2517 -0.3215
   45MOL    H1714185   7.972   6.774   0.159 -0.5275  0.6612 -1.7112
   45MOL    C1814186   7.721   6.815   0.057  1.0741 -0.3746 -0.2280
   45MOL    C1914187   7.639   6.842   0.181 -0.1187 -0.3614 -0.1053
   45MOL    C2014188   7.647   6.968   0.252  0.6339  0.3003 -0.2030
   45MOL   Cl2114189   7.757   7.081   0.201 -0.1546 -0.1617 -0.3402
   45MOL    C2214190   7.568   6.994   0.368  0.3484  0.2004  0.5383
   45MOL    C2314191   7.490   6.894   0.423  0.6975 -0.1625 -0.1986
   45MOL    C2414192   7.466   6.780   0.344  0.5865  0.4041  0.0331
   45MOL    C2514193   7.536   6.748   0.232 -0.7940  0.2348  0.3876
   45MOL    C2614194   7.626   6.830   8.356  0.0193  0.6069  0.3509
   45MOL    H2714195   7.792   6.897   0.046  0.1433  0.5185  0.3345
   45MOL    H2814196   7.591   7.085   0.422  0.6410  1.0655 -1.0307
   45MOL    H2914197   7.447   6.911   0.521 -2.7409 -2.2464 -1.2595
   45MOL    H3014198   7.397   6.703   0.374 -1.7371  3.0067  1.6082
   45MOL    H3114199   7.524   6.654   0.180  2.5941  0.7784 -1.6058
   45MOL    H3214200   7.574   6.922   8.382 -0.0134  0.5499  0.4892
   45MOL    H3314201   7.554   6.747   8.354 -0.1905  0.8087 -0.3031
   45MOL    C3414202   7.705   6.848   8.218 -0.1638 -0.9825  0.5551
   45MOL    C3514203   7.771   6.985   8.202  0.1584  0.6151  0.0351
   45MOL    C3614204   7.911   7.007   8.211  0.3459  0.6008 -0.0241
   45MOL   Cl3714205   8.018   6.877   8.248 -0.0772 -0.6441 -0.0036
   45MOL    C3814206   7.960   7.139   8.204 -0.2752 -0.0810 -0.1472
   45MOL    C3914207   7.874   7.242   8.177  0.3373 -1.0818 -0.9794
   45MOL    C4014208   7.737   7.225   8.157 -0.6044  0.0715  0.2629
   45MOL    C4114209   7.688   7.098   8.183  0.7373 -0.1016  0.0370
   45MOL    C4214210   7.623   6.813   8.091 -0.3289  0.0412 -0.1041
   45MOL    H4314211   7.784   6.773   8.216 -0.7400 -1.7149  2.9472
   45MOL    H4414212   8.067   7.155   8.205  0.0724 -2.2007  2.3141
   45MOL    H4514213   7.918   7.338   8.158 -0.7175 -0.2911  0.5095
   45MOL    H4614214   7.665   7.305   8.157 -1.1560 -0.4270 -0.0278
   45MOL    H4714215   7.580   7.104   8.184  0.7830  0.7022  0.4864
   45MOL    H4814216   7.686   6.846   8.008  2.3530  0.4715  2.0373
   45MOL    H4914217   7.538   6.881   8.103  0.7077  1.8011 -2.4429
   45MOL    C5014218   7.587   6.672   8.065 -0.3215  0.0200  0.4911
   45MOL    C5114219   7.685   6.571   8.122  0.0858  0.7366 -0.1543
   45MOL    C5214220   7.654   6.477   8.221 -0.0741 -0.3790  0.5579
   45MOL   Cl5314221   7.492   6.455   8.278 -0.0105 -0.0582  0.1070
   45MOL    C5414222   7.754   6.400   8.274 -0.2495 -0.5419 -0.4085
   45MOL    C5514223   7.891   6.411   8.229 -0.1892 -0.2702  0.2150
   45MOL    C5614224   7.930   6.511   8.130 -0.1456  0.1825 -0.0353
   45MOL    C5714225   7.816   6.583   8.083 -0.6659  0.0996  0.3211
   45MOL    C5814226   7.551   6.650   7.916  0.2671 -0.4718  0.3094
   45MOL    H5914227   7.499   6.670   8.129 -0.7542 -1.6757 -0.1374
   45MOL    H6014228   7.726   6.322   8.344  1.0475 -0.4094  0.2783
   45MOL    H6114229   7.964   6.350   8.280  1.7391  0.9277 -1.0428
   45MOL    H6214230   8.030   6.528   8.093 -0.2818 -0.0140 -0.4903
   45MOL    H6314231   7.840   6.659   8.010 -0.5459  1.1123  1.3896
   45MOL    H6414232   7.548   6.543   7.899 -0.6443 -0.4246  0.1725
   45MOL    H6514233   7.644   6.672   7.864 -0.2108 -0.9039 -0.7266
   45MOL    C6614234   7.432   6.734   7.861  0.1903  0.1435 -0.1721
   45MOL    C6714235   7.297   6.673   7.914  0.4499  0.7139 -0.6183
   45MOL    C6814236   7.214   6.748   8.002 -0.8006 -0.9489 -0.0527
   45MOL   Cl6914237   7.253   6.908   8.049  0.0452  0.4315  0.3568
   45MOL    C7014238   7.096   6.692   8.054 -0.1146  0.0951  0.1615
   45MOL    C7114239   7.059   6.564   8.020  0.5051 -0.2663  0.5181
   45MOL    C7214240   7.137   6.486   7.929 -0.1280  0.3365 -0.0149
   45MOL    C7314241   7.262   6.539   7.886 -0.3541 -0.0230  0.7549
   45MOL    C7414242   7.427   6.739   7.707 -0.4386  0.0278 -0.1203
   45MOL    H7514243   7.449   6.836   7.895 -1.3459  0.3180  0.0818
   45MOL    H7614244   7.036   6.749   8.123 -2.1049  0.1106 -1.5477
   45MOL    H7714245   6.963   6.528   8.052 -0.0390 -0.2516 -1.0584
   45MOL    H7814246   7.099   6.388   7.906  2.4888 -0.0533 -3.1415
   45MOL    H7914247   7.323   6.474   7.825 -2.9268 -2.7210  0.8996
   45MOL    H8014248   7.349   6.813   7.686 -1.7954 -0.3448  3.3299
   45MOL    H8114249   7.391   6.646   7.663  1.1518 -0.9901  0.6995
   45MOL    C8214250   7.557   6.783   7.622  0.2597  0.0802 -0.4501
   45MOL    C8314251   7.644   6.896   7.683 -0.7647 -0.1434 -0.0227
   45MOL    C8414252   7.782   6.898   7.660 -0.8075  0.2849 -0.3616
   45MOL   Cl8514253   7.867   6.771   7.576  0.2013 -0.3301 -0.0790
   45MOL    C8614254   7.864   6.999   7.707  0.0553  0.5868 -0.9370
   45MOL    C8714255   7.804   7.101   7.787 -0.0768  0.3531  0.7080
   45MOL    C8814256   7.668   7.107   7.793 -0.6398  0.0124  0.5025
   45MOL    C8914257   7.586   6.999   7.753 -0.1901  0.0939  0.3089
   45MOL    C9014258   7.524   6.824   7.472 -0.1184 -0.5983  1.2228
   45MOL    H9114259   7.626   6.699   7.616 -0.7545 -0.8602  0.8242
   45MOL    H9214260   7.969   7.007   7.683  0.2967 -0.2948 -0.1879
   45MOL    H9314261   7.859   7.181   7.834 -1.3942  0.6185  1.8151
   45MOL    H9414262   7.630   7.193   7.847 -2.2025 -1.0909  1.1916
   45MOL    H9514263   7.481   6.996   7.780  0.1590  0.6053  1.7288
   45MOL    H9614264   7.611   6.854   7.413  0.2255 -1.3241  1.3645
   45MOL    H9714265   7.466   6.915   7.489  1.7981  1.1176 -0.9902
   45MOL    C9814266   7.441   6.719   7.386  0.1890 -0.2203  0.0100
   45MOL    C9914267   7.515   6.589   7.352 -0.1219  0.6614 -0.7964
   45MOL   C10014268   7.464   6.470   7.400 -0.7108 -0.4808  0.1413
   45MOL  Cl10114269   7.321   6.461   7.490  0.1652  0.3713 -0.2805
   45MOL   C10214270   7.544   6.361   7.388 -0.3277  0.1826 -0.1690
   45MOL   C10314271   7.664   6.361   7.314  0.2410 -0.3847 -0.2756
   45MOL   C10414272   7.710   6.474   7.249 -0.8222  0.7461  0.4563
   45MOL   C10514273   7.634   6.591   7.273  0.1654 -0.1908 -0.0255
   45MOL   C10614274   7.379   6.791   7.260  0.3762  0.2035  0.9129
   45MOL   H10714275   7.354   6.693   7.446 -0.2430  3.2062  0.9598
   45MOL   H10814276   7.511   6.270   7.437 -0.1645  0.5109  0.5659
   45MOL   H10914277   7.720   6.270   7.299  1.3423  0.5253 -1.7339
   45MOL   H11014278   7.806   6.472   7.199 -0.7517 -0.8970  0.6271
   45MOL   H11114279   7.674   6.687   7.246  0.9940 -1.0269 -1.8895
   45MOL   H11214280   7.457   6.834   7.197 -0.2154  0.6046  0.4487
   45MOL   H11314281   7.319   6.877   7.290 -0.4844 -0.1967  0.3719
   45MOL   C11414282   7.283   6.715   7.168  0.0246  0.4763 -0.7136
   45MOL   C11514283   7.356   6.642   7.058 -0.2528  0.8450 -0.6242
   45MOL   C11614284   7.320   6.508   7.035 -0.2186 -1.1124  0.6037
   45MOL  Cl11714285   7.223   6.419   7.151  0.4286  0.1538 -0.1625
   45MOL   C11814286   7.372   6.434   6.926 -0.1098  0.2100 -0.6156
   45MOL   C11914287   7.472   6.493   6.840  0.1169 -0.1772  0.3655
   45MOL   C12014288   7.512   6.624   6.876  0.1597  0.0742 -0.9160
   45MOL   C12114289   7.451   6.700   6.973 -0.0945 -0.6936 -0.3685
   45MOL   C12214290   7.161   6.788   7.106  0.5446  0.0201 -0.2645
   45MOL   H12314291   7.242   6.650   7.246 -0.0482 -0.3033 -1.3912
   45MOL   H12414292   7.344   6.331   6.906  0.0158 -0.5470  2.7050
   45MOL   H12514293   7.497   6.433   6.753 -1.4791 -0.7942  0.3227
   45MOL   H12614294   7.587   6.672   6.814  2.0003  0.1971  1.3404
   45MOL   H12714295   7.489   6.799   6.990  0.6705 -0.8729 -1.0023
   45MOL   H12814296   7.086   6.726   7.058  0.1266  0.4937 -0.2292
   45MOL   H12914297   7.192   6.840   7.016  0.3579  0.7107  0.0631
   45MOL   C13014298   7.079   6.878   7.208 -0.0543  0.6135 -0.5530
   45MOL   C13114299   7.063   6.817   7.352 -0.5634  0.4664  0.0668
   45MOL   C13214300   7.092   6.877   7.475  0.9512  0.2755 -0.1892
   45MOL  Cl13314301   7.148   7.034   7.491 -0.2613  0.4567  0.1615
   45MOL   C13414302   7.078   6.809   7.597 -0.0076  0.1171 -0.8427
   45MOL   C13514303   7.035   6.679   7.599  0.1851 -0.1874  0.1071
   45MOL   C13614304   6.999   6.615   7.476 -0.1142  0.1661 -0.3041
   45MOL   C13714305   7.018   6.681   7.354 -0.9768  0.0113  1.0209
   45MOL   C13814306   6.942   6.925   7.155  0.5842  0.0785  0.2956
   45MOL   H13914307   7.141   6.966   7.222  0.6233  0.1337 -0.5278
   45MOL   H14014308   7.107   6.858   7.688  0.1453  0.2622 -0.9683
   45MOL   H14114309   7.032   6.619   7.689 -0.5653  0.2962  0.4136
   45MOL   H14214310   6.977   6.509   7.468 -0.4290  0.3420 -1.8867
   45MOL   H14314311   7.012   6.628   7.260 -1.6866 -2.0642  2.1910
   45MOL   H14414312   6.871   6.929   7.238  0.5165  0.5652  0.2160
   45MOL   H14514313   6.907   6.845   7.089  1.0667 -0.6009  0.8578
   45MOL   C14614314   6.912   7.064   7.086 -0.1687 -0.3986  0.5458
   45MOL   C14714315   6.758   7.097   7.094 -0.0185 -0.4865 -0.8565
   45MOL   C14814316   6.713   7.222   7.133 -0.0786  0.2811  0.7723
   45MOL  Cl14914317   6.820   7.351   7.177 -0.0199 -0.2606 -0.0223
   45MOL   C15014318   6.575   7.254   7.149 -0.4440  0.0791  0.2819
   45MOL   C15114319   6.471   7.159   7.121 -0.1145 -0.0820  0.2563
   45MOL   C15214320   6.517   7.029   7.077  0.0252 -0.7946  0.2337
   45MOL   C15314321   6.657   7.001   7.059 -0.2254 -0.0290  0.5199
   45MOL   C15414322   6.957   7.078   6.936  0.0446  0.3052  0.2718
   45MOL   H15514323   6.960   7.141   7.146 -1.9291  1.5802 -0.5066
   45MOL   H15614324   6.544   7.349   7.189 -0.0445 -0.0323  0.8509
   45MOL   H15714325   6.369   7.187   7.141  0.4124  1.4829  0.8506
   45MOL   H15814326   6.445   6.951   7.060 -0.3736 -0.1590 -1.1322
   45MOL   H15914327   6.683   6.904   7.019  0.2545  0.7791 -1.1772
   45MOL   H16014328   6.883   7.137   6.881  0.2262  0.0559 -0.2448
   45MOL   H16114329   6.943   6.980   6.890  0.9345  0.5253 -0.4961
   45MOL   C16214330   7.101   7.109   6.920  0.3561 -0.2007 -0.7124
   45MOL   C16314331   7.115   7.260   6.956 -0.0782 -0.0424 -0.0801
   45MOL   C16414332   7.194   7.311   7.067 -0.1973  0.1095 -0.0108
   45MOL  Cl16514333   7.267   7.196   7.173 -0.0188 -0.1739 -0.4242
   45MOL   C16614334   7.200   7.450   7.089 -0.0572 -0.1351 -1.0136
   45MOL   C16714335   7.138   7.541   7.005 -0.0904 -0.3663 -0.1918
   45MOL   C16814336   7.084   7.491   6.889  0.8880  0.4633  0.4598
   45MOL   C16914337   7.073   7.355   6.864 -0.5934 -0.7384 -0.2682
   45MOL   C17014338   7.154   7.077   6.781 -0.0514  0.1380 -0.1643
   45MOL   H17114339   7.163   7.058   6.994  0.4798  0.2896 -0.4685
   45MOL   H17214340   7.250   7.488   7.177 -1.4892  0.9857 -0.6568
   45MOL   H17314341   7.146   7.647   7.021 -0.9116 -0.0159 -2.0061
   45MOL   H17414342   7.042   7.554   6.812 -0.7302 -1.6541 -0.4471
   45MOL   H17514343   7.012   7.331   6.778 -0.7437  0.6246 -0.5594
   45MOL   H17614344   7.088   7.132   6.715 -2.1860 -0.8364  1.1221
   45MOL   H17714345   7.122   6.979   6.748  2.2129 -0.1331 -1.7132
   45MOL   C17814346   7.302   7.117   6.743  0.1499  0.2675  1.3484
   45MOL   C17914347   7.324   7.087   6.593 -0.5096 -0.3218 -0.1600
   45MOL   C18014348   7.345   7.189   6.497  0.4458  0.1936  0.2410
   45MOL  Cl18114349   7.371   7.349   6.548 -0.1008 -0.0226  0.3159
   45MOL   C18214350   7.335   7.159   6.357  0.3673 -0.7737  0.3346
   45MOL   C18314351   7.328   7.026   6.325 -0.2154  0.9729 -0.2292
   45MOL   C18414352   7.322   6.919   6.418  0.4252 -0.9662  0.3785
   45MOL   C18514353   7.319   6.954   6.555  0.8509 -0.2840 -0.2794
   45MOL   C18614354   7.413   7.059   6.837 -0.2530 -0.8069 -0.1004
   45MOL   H18714355   7.310   7.225   6.758  1.4219  0.6188 -1.6096
   45MOL   H18814356   7.346   7.240   6.287 -1.3122 -1.6531 -0.9844
   45MOL   H18914357   7.330   7.005   6.219 -0.2918 -1.7634  0.2660
   45MOL   H19014358   7.321   6.815   6.389 -0.7899 -0.4072 -1.6316
   45MOL   H19114359   7.310   6.879   6.633 -0.1140  1.5136  1.3788
   45MOL   H19214360   7.428   6.953   6.822  1.9510 -0.1833 -2.6815
   45MOL   H19314361   7.389   7.079   6.941 -1.6108 -2.0969 -0.1638
   45MOL   C19414362   7.550   7.125   6.833  0.0290  0.1360 -0.7340
   45MOL   C19514363   7.644   7.033   6.913 -0.6699 -0.3394 -0.5366
   45MOL   C19614364   7.720   6.931   6.848  0.0873 -0.2505 -0.5221
   45MOL  Cl19714365   7.703   6.899   6.682 -0.0682  0.1510  0.0748
   45MOL   C19814366   7.801   6.848   6.924 -0.1538  0.8040 -0.0757
   45MOL   C19914367   7.802   6.854   7.060  0.0665 -0.2630  0.2042
   45MOL   C20014368   7.723   6.949   7.128 -0.8506  0.4077 -0.1702
   45MOL   C20114369   7.647   7.044   7.052  0.1392  1.0296  0.4809
   45MOL   C20214370   7.546   7.280   6.879 -0.3287  0.6102 -0.5244
   45MOL   H20314371   7.582   7.132   6.729 -0.6031 -2.2854 -1.1100
   45MOL   H20414372   7.848   6.766   6.872  1.0299  1.1846  0.3781
   45MOL   H20514373   7.862   6.792   7.125 -1.0950 -1.1911  0.4246
   45MOL   H20614374   7.725   6.955   7.236  3.1975  2.6428 -0.2803
   45MOL   H20714375   7.588   7.119   7.101 -0.2123  0.9233  0.2194
   45MOL   H20814376   7.508   7.297   6.979  2.1201 -0.5961  0.6621
   45MOL   H20914377   7.474   7.332   6.815 -0.4281 -0.4427 -1.2832
   45MOL   C21014378   7.676   7.358   6.879 -0.5415 -0.7011 -0.1052
   45MOL   C21114379   7.664   7.471   6.981  0.2233 -0.0871  0.5817
   45MOL   C21214380   7.727   7.475   7.108 -0.0343  0.5068 -0.1536
   45MOL  Cl21314381   7.846   7.356   7.145 -0.4705 -0.1330 -0.0061
   45MOL   C21414382   7.701   7.571   7.205 -0.1927 -0.3883  0.1491
   45MOL   C21514383   7.597   7.667   7.183  0.0322 -0.0900 -0.1213
   45MOL   C21614384   7.537   7.674   7.052 -0.4045  0.4124  0.5106
   45MOL   C21714385   7.573   7.576   6.957  0.5560 -0.1173 -0.1852
   45MOL   C21814386   7.715   7.415   6.735  0.0152 -0.2021  0.2510
   45MOL   H21914387   7.753   7.284   6.902  0.4862  0.4872  0.3786
   45MOL   H22014388   7.751   7.574   7.300  0.0799 -0.7276  0.0181
   45MOL   H22114389   7.575   7.744   7.255 -0.8139 -0.3115 -0.1349
   45MOL   H22214390   7.455   7.738   7.025 -0.8244  0.9385  2.8965
   45MOL   H22314391   7.520   7.576   6.864 -1.2643  0.5488  0.8333
   45MOL   H22414392   7.733   7.522   6.744 -1.2945 -0.0178  0.8392
   45MOL   H22514393   7.638   7.384   6.664  0.1511  0.0560 -0.0131
   45MOL   C22614394   7.855   7.364   6.678  0.5729  0.1503 -0.2140
   45MOL   C22714395   7.967   7.385   6.777 -0.4806 -0.1465  0.2126
   45MOL   C22814396   8.030   7.279   6.847  0.0819 -0.1983  1.0006
   45MOL  Cl22914397   7.992   7.112   6.811 -0.0722  0.0186  0.0392
   45MOL   C23014398   8.130   7.308   6.940 -0.2043 -0.4555 -0.9805
   45MOL   C23114399   8.179   7.439   6.950 -0.0428  0.2848  0.0026
   45MOL   C23214400   8.116   7.540   6.887  0.9190  0.0775 -0.6814
   45MOL   C23314401   8.008   7.520   6.799  0.2040  0.3276 -0.7045
   45MOL   C23414402   7.875   7.418   6.533 -0.1634  0.6203 -0.2340
   45MOL   H23514403   7.838   7.257   6.667  1.4011  0.0478 -0.5091
   45MOL   H23614404   8.193   7.229   6.978  0.2064  0.2996 -0.0678
   45MOL   H23714405   8.251   7.458   7.028 -1.0853 -1.3571  1.4072
   45MOL   H23814406   8.158   7.638   6.897  1.2873 -0.3134  1.8452
   45MOL   H23914407   7.960   7.602   6.747 -1.0402 -1.2460 -2.0735
   45MOL   H24014408   7.818   7.511   6.526 -1.0196  0.4588  3.6684
   45MOL   H24114409   7.815   7.357   6.465 -1.1394  0.7499  0.4972
   45MOL   C24214410   8.017   7.436   6.481 -0.6519  0.4626  0.1712
   45MOL   C24314411   8.024   7.520   6.357  0.2533  0.1442  0.1964
   45MOL   C24414412   8.125   7.619   6.333  0.2100 -0.0864 -0.2298
   45MOL  Cl24514413   8.241   7.659   6.449  0.1532  0.2373  0.0335
   45MOL   C24614414   8.124   7.694   6.216  0.0285 -0.0976  0.3089
   45MOL   C24714415   8.033   7.666   6.111 -0.6672 -0.4543  0.0502
   45MOL   C24814416   7.933   7.563   6.126 -0.8000  0.2272 -0.4135
   45MOL   C24914417   7.929   7.489   6.249  0.4044  0.4930  0.4815
   45MOL   C25014418   8.073   7.293   6.462 -0.4242 -0.1770  0.4985
   45MOL   H25114419   8.074   7.483   6.561  0.6917 -0.3710 -0.2738
   45MOL   H25214420   8.203   7.766   6.203  1.0804 -1.2607  0.2485
   45MOL   H25314421   8.031   7.727   6.022 -1.5101 -0.2612  0.1973
   45MOL   H25414422   7.864   7.539   6.046 -0.0044 -1.1305 -0.6963
   45MOL   H25514423   7.860   7.408   6.266  2.0532 -1.2656 -0.9420
   45MOL   H25614424   8.044   7.264   6.360 -0.8125 -1.6282  1.0037
   45MOL   H25714425   8.025   7.221   6.528 -0.4478 -0.5735  0.0515
   45MOL   C25814426   8.233   7.283   6.459 -0.1700 -0.4146 -0.6645
   45MOL   C25914427   8.281   7.150   6.408  0.5642  0.2174  0.2897
   45MOL   C26014428   8.363   7.142   6.288  0.5511 -0.1295 -0.2731
   45MOL  Cl26114429   8.390   7.282   6.187 -0.2508  0.1669  0.4111
   45MOL   C26214430   8.411   7.021   6.242  0.2640 -0.5609 -0.0979
   45MOL   C26314431   8.388   6.908   6.327 -0.3579  0.8864 -0.6708
   45MOL   C26414432   8.300   6.903   6.432 -0.2488 -0.6102  0.1918
   45MOL   C26514433   8.252   7.028   6.481 -0.1862  0.4407  1.0412
   45MOL   C26614434   8.300   7.315   6.592 -0.0236 -0.0602  0.0594
   45MOL   H26714435   8.246   7.367   6.391  2.9713  0.5034  0.9690
   45MOL   H26814436   0.066   7.021   6.166 -1.0019  0.5220 -1.3758
   45MOL   H26914437   0.011   6.819   6.285  1.5517  2.2058 -1.5700
   45MOL   H27014438   8.292   6.814   6.492  2.8867  0.3674  2.2371
   45MOL   H27114439   8.199   7.043   6.574 -1.8569 -0.0308  0.1861
   45MOL   H27214440   8.254   7.255   6.671  2.3310 -0.1470  1.4175
   45MOL   H27314441   8.282   7.422   6.605 -2.3413 -0.3377 -0.6478
   45MOL   C27414442   0.034   7.313   6.606 -0.7476  0.3502  0.1216
   45MOL   C27514443   0.066   7.337   6.754  0.0090  0.5051 -0.5076
   45MOL   C27614444   0.074   7.231   6.844 -0.0306  0.4722  0.4693
   45MOL  Cl27714445   0.046   7.068   6.789  0.2273  0.2486  0.3584
   45MOL   C27814446   0.108   7.256   6.979 -0.0690  0.2053 -0.4261
   45MOL   C27914447   0.118   7.383   7.036  0.3441 -0.4205 -0.2566
   45MOL   C28014448   0.101   7.490   6.949 -0.4409  0.2541 -0.2694
   45MOL   C28114449   0.073   7.468   6.811  0.2527  0.3819 -0.0403
   45MOL   C28214450   0.111   7.409   6.508  0.7885  0.1376  0.1688
   45MOL   H28314451   0.068   7.216   6.569  2.5873  0.8785  1.5838
   45MOL   H28414452   0.124   7.167   7.039 -0.7123  0.0339 -0.5014
   45MOL   H28514453   0.149   7.397   7.138 -2.7695 -2.6557  1.0935
   45MOL   H28614454   0.110   7.586   6.999 -0.6210 -1.0287  2.3054
   45MOL   H28714455   0.044   7.552   6.749  1.3056 -1.0401 -2.5591
   45MOL   H28814456   0.061   7.506   6.513 -1.8819 -1.1935  0.0579
   45MOL   H28914457   0.088   7.391   6.402 -0.6332 -0.5606  0.5822
   45MOL   C29014458   0.266   7.423   6.523  1.2168 -0.6884  0.1344
   45MOL   C29114459   0.320   7.544   6.448 -0.3025  0.3071  0.7869
   45MOL   C29214460   0.380   7.656   6.514  0.2223  0.5641  0.1967
   45MOL  Cl29314461   0.411   7.656   6.689  0.2474  0.2875  0.1444
   45MOL   C29414462   0.419   7.768   6.434 -0.9486 -0.1021 -0.3349
   45MOL   C29514463   0.388   7.770   6.299 -0.8361  0.1795  1.1287
   45MOL   C29614464   0.337   7.661   6.230 -0.4542 -0.1617  0.3561
   45MOL   C29714465   0.300   7.547   6.309  0.3453 -0.4214 -0.4026
   45MOL   C29814466   0.347   7.298   6.496 -0.0678 -0.2984  0.0467
   45MOL   H29914467   0.256   7.452   6.628  0.9841 -1.7186  0.4086
   45MOL   H30014468   0.476   7.849   6.477 -0.6628 -0.3067 -0.3287
   45MOL   H30114469   0.424   7.852   6.239  2.2530 -2.3929 -0.6759
   45MOL   H30214470   0.335   7.656   6.122  0.0575  0.5335  0.3148
   45MOL   H30314471   0.256   7.469   6.248  2.6104  0.2283 -2.9895
   45MOL   H30414472   0.385   7.281   6.396  1.2309 -1.8308  0.7783
   45MOL   H30514473   0.280   7.212   6.488 -1.1672  0.7318 -2.2260
   45MOL   C30614474   0.469   7.264   6.581  0.8675 -0.1502  0.7828
   45MOL   C30714475   0.560   7.160   6.529  0.2112  0.7546 -0.4707
   45MOL   C30814476   0.695   7.159   6.562  0.5298 -0.1097 -0.1655
   45MOL  Cl30914477   0.779   7.287   6.634 -0.3723 -0.3612  0.1386
   45MOL   C31014478   0.774   7.060   6.512 -0.5165 -0.8796  0.0762
   45MOL   C31114479   0.729   6.958   6.419  0.1186 -0.1515  0.5812
   45MOL   C31214480   0.593   6.955   6.402 -0.2854  0.2297 -0.2359
   45MOL   C31314481   0.505   7.050   6.455  0.0689 -0.0305 -0.2627
   45MOL   C31414482   0.434   7.249   6.728 -0.5894 -0.3902  0.3078
   45MOL   H31514483   0.524   7.358   6.581  0.5825  0.0220  1.6520
   45MOL   H31614484   0.871   7.073   6.556  0.0594 -1.4653 -1.0152
   45MOL   H31714485   0.783   6.884   6.362 -1.2786 -0.0410 -0.9039
   45MOL   H31814486   0.567   6.885   6.323  1.4702  0.3890 -0.9800
   45MOL   H31914487   0.400   7.044   6.428 -0.3674 -3.6352  1.9284
   45MOL   H32014488   0.379   7.156   6.741  0.0571 -0.9264 -0.6493
   45MOL   H32114489   0.357   7.314   6.768 -0.9075  0.2012 -1.2244
   45MOL   H32214490   0.522   7.232   6.790  0.7238 -0.7569 -1.5993
   46MOL     C114491   2.633   4.664   0.837 -0.2545 -0.2743 -0.1568
   46MOL     C214492   2.663   4.589   0.959  0.0891 -0.2629 -0.6857
   46MOL     C314493   2.567   4.546   1.055  0.1131  0.3356 -0.2159
   46MOL    Cl414494   2.401   4.600   1.057 -0.4026  0.0173  0.2715
   46MOL     C514495   2.609   4.462   1.163 -0.3272  0.7231 -0.2008
   46MOL     C614496   2.742   4.421   1.184  0.3107 -0.0772 -0.0702
   46MOL     C714497   2.829   4.467   1.086  0.2589  0.1821 -0.7199
   46MOL     C814498   2.797   4.551   0.982  0.4173 -0.0536  0.8139
   46MOL     C914499   2.607   4.568   0.727 -0.0831  0.3311 -0.2562
   46MOL    H1014500   2.551   4.731   0.863  1.5612  2.8369 -2.0385
   46MOL    H1114501   2.534   4.432   1.234 -1.3691  2.4857 -0.5368
   46MOL    H1214502   2.771   4.364   1.271  1.5512  0.7481  0.0695
   46MOL    H1314503   2.935   4.446   1.079  0.5155  1.5240 -0.9129
   46MOL    H1414504   2.873   4.571   0.908 -0.3730  1.0461  0.2859
   46MOL    H1514505   2.547   4.481   0.755  1.7499 -0.6792  0.6291
   46MOL    H1614506   2.707   4.534   0.701 -0.4582 -1.0304  0.0489
   46MOL    H1714507   2.709   4.735   0.804 -1.3698  0.0288 -2.1320
   46MOL    C1814508   2.559   4.628   0.588  0.2809 -0.9886 -0.2359
   46MOL    C1914509   2.442   4.723   0.607  1.1061  0.0841  0.2637
   46MOL    C2014510   2.428   4.851   0.536 -0.5442  0.4149  0.5544
   46MOL   Cl2114511   2.550   4.902   0.425  0.5198  0.0914  0.0259
   46MOL    C2214512   2.302   4.921   0.533  0.3404 -0.2044  0.5094
   46MOL    C2314513   2.205   4.878   0.619  0.3246 -0.3828 -0.5284
   46MOL    C2414514   2.220   4.761   0.691  0.7143 -0.4688  0.0768
   46MOL    C2514515   2.337   4.687   0.689 -0.4346  0.0090 -0.7437
   46MOL    C2614516   2.514   4.512   0.489  0.5151 -0.2337 -0.7619
   46MOL    H2714517   2.647   4.683   0.554  1.1059 -1.0578  1.7599
   46MOL    H2814518   2.287   5.014   0.480 -0.9434 -1.4030 -1.2985
   46MOL    H2914519   2.112   4.930   0.636 -1.2999 -3.6788  1.2073
   46MOL    H3014520   2.145   4.739   0.766  0.6878  1.1797  0.5600
   46MOL    H3114521   2.346   4.600   0.752  0.8700 -0.2208 -1.2265
   46MOL    H3214522   2.467   4.556   0.400 -2.4262  1.6324  1.6263
   46MOL    H3314523   2.423   4.473   0.534  0.1522  0.8365 -0.5588
   46MOL    C3414524   2.627   4.407   0.463  0.2419  0.1100  0.6548
   46MOL    C3514525   2.756   4.482   0.423 -0.2758  0.0813  0.2955
   46MOL    C3614526   2.878   4.441   0.477  0.4350  0.4564  1.2448
   46MOL   Cl3714527   2.886   4.299   0.578  0.0507  0.2097  0.3392
   46MOL    C3814528   2.998   4.489   0.420  0.1781 -0.2609  0.8169
   46MOL    C3914529   2.997   4.583   0.319  0.1643  0.0678  0.2310
   46MOL    C4014530   2.881   4.637   0.270  0.0433 -0.2913 -0.1304
   46MOL    C4114531   2.756   4.579   0.315  0.1230 -0.4828  0.1293
   46MOL    C4214532   2.591   4.312   0.358  0.0936  0.6844  0.2515
   46MOL    H4314533   2.633   4.366   0.563  2.3801  0.2924  0.6177
   46MOL    H4414534   3.093   4.442   0.445 -1.3841 -3.5060  0.9346
   46MOL    H4514535   3.097   4.612   0.289  0.8815 -3.0545 -0.5875
   46MOL    H4614536   2.886   4.709   0.189 -1.0041 -0.3146 -0.2276
   46MOL    H4714537   2.660   4.603   0.271 -0.6438 -0.7336  1.6674
   46MOL    H4814538   2.679   4.251   0.342 -0.8339 -0.6819  0.2864
   46MOL    H4914539   2.571   4.372   0.269  1.7999 -0.6060 -1.0239
   46MOL    C5014540   2.464   4.224   0.391  0.2336 -0.1745  0.7179
   46MOL    C5114541   2.494   4.133   0.513 -0.3571 -0.3274 -0.5300
   46MOL    C5214542   2.433   4.157   0.635  0.2063 -0.6539  0.3409
   46MOL   Cl5314543   2.299   4.270   0.678 -0.0221  0.1567 -0.1246
   46MOL    C5414544   2.467   4.077   0.745  0.4245 -0.8649  0.6092
   46MOL    C5514545   2.555   3.966   0.733  0.5669  0.1716 -0.2806
   46MOL    C5614546   2.623   3.942   0.613  0.1937  0.5778 -0.0268
   46MOL    C5714547   2.598   4.034   0.505  0.6325  0.2066 -0.4524
   46MOL    C5814548   2.405   4.146   0.268  0.0301  0.6515  0.3370
   46MOL    H5914549   2.383   4.289   0.423  1.6270  1.5494  0.7810
   46MOL    H6014550   2.418   4.093   0.840 -1.3582 -0.2885 -0.3886
   46MOL    H6114551   2.575   3.904   0.818 -1.3786 -1.5714 -1.0441
   46MOL    H6214552   2.693   3.861   0.599  0.5575  0.5415  1.8903
   46MOL    H6314553   2.643   4.024   0.407  0.5057  2.3369 -0.7564
   46MOL    H6414554   2.396   4.039   0.290  0.8645  0.5766  0.3250
   46MOL    H6514555   2.477   4.152   0.186 -0.6602 -2.6817 -0.5851
   46MOL    C6614556   2.268   4.194   0.221  0.0616  0.6398  0.3911
   46MOL    C6714557   2.155   4.173   0.323  0.2250  0.1211  0.0046
   46MOL    C6814558   2.109   4.284   0.406  0.5204  0.2646  0.2235
   46MOL   Cl6914559   2.156   4.447   0.387  0.3829 -0.0581 -0.3661
   46MOL    C7014560   2.024   4.258   0.512 -0.0805 -0.3588  0.8276
   46MOL    C7114561   1.974   4.130   0.527  0.2393 -0.9624  0.2941
   46MOL    C7214562   2.010   4.020   0.439  0.1518  0.5007 -0.6148
   46MOL    C7314563   2.099   4.043   0.336 -0.5992  0.6986 -0.3070
   46MOL    C7414564   2.221   4.158   0.076 -0.6410 -0.8293  0.1625
   46MOL    H7514565   2.280   4.302   0.212 -0.6388  0.9389  2.7531
   46MOL    H7614566   1.997   4.331   0.587 -1.2606 -0.5898  0.6298
   46MOL    H7714567   1.908   4.107   0.609 -1.8950 -0.9994 -1.3826
   46MOL    H7814568   1.972   3.921   0.454 -0.8713  0.5259 -2.8012
   46MOL    H7914569   2.134   3.966   0.270 -1.7196  0.7774 -1.0045
   46MOL    H8014570   2.112   4.153   0.080 -0.7487  0.0713 -1.3657
   46MOL    H8114571   2.246   4.053   0.057 -0.8736 -0.5702 -1.6280
   46MOL    C8214572   2.261   4.251   8.381  0.0126  0.7234  0.7561
   46MOL    C8314573   2.410   4.249   8.354  0.1198 -0.4801  0.3618
   46MOL    C8414574   2.481   4.149   8.285 -0.4522 -0.0162  0.8000
   46MOL   Cl8514575   2.409   4.005   8.224 -0.2088  0.2049  0.0086
   46MOL    C8614576   2.620   4.155   8.272  0.0290 -0.1038 -0.8117
   46MOL    C8714577   2.698   4.254   8.329 -1.1671 -0.0844 -1.1340
   46MOL    C8814578   2.633   4.361   8.386  0.1445  0.5780 -0.4712
   46MOL    C8914579   2.489   4.358   8.401 -0.8186  0.6572  0.4516
   46MOL    C9014580   2.181   4.387   8.381  0.1748 -0.5908  0.6514
   46MOL    H9114581   2.218   4.197   8.297  0.4595  0.8775  0.4291
   46MOL    H9214582   2.668   4.072   8.221 -0.1782  0.4857 -1.9765
   46MOL    H9314583   2.806   4.255   8.324 -0.9412 -3.2524  1.3804
   46MOL    H9414584   2.685   4.440   0.017 -1.5516  1.3669  0.0622
   46MOL    H9514585   2.440   4.439   0.031 -2.0162  0.5067 -0.4487
   46MOL    H9614586   2.214   4.459   0.034 -0.2134 -1.6353  1.8600
   46MOL    H9714587   2.081   4.354   8.410  0.6586  0.1504  3.2449
   46MOL    C9814588   2.163   4.446   8.234 -0.4969  0.2616  0.5137
   46MOL    C9914589   2.302   4.488   8.173  0.4924  0.0016 -0.3525
   46MOL   C10014590   2.363   4.424   8.063  0.6428  0.2973  0.3406
   46MOL  Cl10114591   2.282   4.293   7.994 -0.2113  0.1369  0.0101
   46MOL   C10214592   2.490   4.462   8.015 -0.3813 -0.3114 -1.2334
   46MOL   C10314593   2.556   4.577   8.078 -0.9344  0.7090 -0.0615
   46MOL   C10414594   2.491   4.637   8.183  1.3127 -0.1310 -0.0553
   46MOL   C10514595   2.366   4.597   8.230 -0.2511  0.8153 -0.3169
   46MOL   C10614596   2.065   4.563   8.235  0.1072  0.5415 -0.3030
   46MOL   H10714597   2.117   4.362   8.182  0.2455  0.0177  0.2405
   46MOL   H10814598   2.541   4.403   7.941 -0.2453 -0.1322 -1.2824
   46MOL   H10914599   2.656   4.608   8.051 -0.2030  0.1872  1.9449
   46MOL   H11014600   2.529   4.726   8.231  2.0053  0.2559 -1.2980
   46MOL   H11114601   2.334   4.653   8.316 -0.2558  0.9080 -0.3793
   46MOL   H11214602   2.119   4.652   8.203  1.7475 -0.1254  0.6045
   46MOL   H11314603   2.035   4.586   8.337  2.9591  1.2561  0.4166
   46MOL   C11414604   1.935   4.533   8.150 -0.1067 -0.7692 -0.2744
   46MOL   C11514605   1.959   4.473   8.013  0.2997  0.0603  0.6978
   46MOL   C11614606   1.911   4.351   7.976 -0.6358 -0.0345  0.0490
   46MOL  Cl11714607   1.805   4.257   8.074  0.1632 -0.1126 -0.0546
   46MOL   C11814608   1.946   4.303   7.848  0.3454 -0.4675 -0.2988
   46MOL   C11914609   2.010   4.385   7.757  0.9023 -0.1411  0.9436
   46MOL   C12014610   2.045   4.522   7.782  0.2886 -0.3241  0.4653
   46MOL   C12114611   2.026   4.554   7.918 -0.0725 -0.3649  0.6490
   46MOL   C12214612   1.839   4.660   8.135  0.1604 -0.5174 -0.5830
   46MOL   H12314613   1.878   4.461   8.208 -0.2560 -1.0979 -0.8268
   46MOL   H12414614   1.912   4.207   7.813 -1.0497 -1.0041  2.3518
   46MOL   H12514615   2.038   4.334   7.665 -2.6259 -0.1782 -0.1862
   46MOL   H12614616   2.097   4.583   7.709 -0.7573  1.9012  1.5337
   46MOL   H12714617   2.073   4.646   7.949 -1.5366 -0.7367  4.1854
   46MOL   H12814618   1.759   4.636   8.065 -0.7425  0.0048  0.2567
   46MOL   H12914619   1.895   4.742   8.090 -0.9001  1.8325  2.2082
   46MOL   C13014620   1.769   4.717   8.265 -0.6220  0.1183  0.1965
   46MOL   C13114621   1.641   4.637   8.311 -0.0946  0.1218  0.2817
   46MOL   C13214622   1.639   4.553   0.007  0.1111  0.0273 -0.1681
   46MOL  Cl13314623   1.790   4.501   0.081 -0.2759 -0.4750 -0.1427
   46MOL   C13414624   1.512   4.509   0.058  0.0113 -0.0570  0.5732
   46MOL   C13514625   1.392   4.545   8.417 -0.1266 -0.6124  0.3648
   46MOL   C13614626   1.388   4.623   8.298 -0.2875 -0.7579  0.0471
   46MOL   C13714627   1.514   4.668   8.250  0.3438 -0.0051 -0.8103
   46MOL   C13814628   1.744   4.867   8.256  0.1369 -0.3077  0.4539
   46MOL   H13914629   1.834   4.711   8.352 -0.1310  1.3155 -0.0827
   46MOL   H14014630   1.502   4.438   0.139 -3.7435 -1.1353 -0.6899
   46MOL   H14114631   1.295   4.520   0.037  0.0873 -0.3793  1.0298
   46MOL   H14214632   1.297   4.631   8.240 -0.5164  0.2708  0.5349
   46MOL   H14314633   1.508   4.732   8.164  0.7191 -0.8401 -1.4572
   46MOL   H14414634   1.669   4.890   8.331 -1.3707  0.3189 -1.2072
   46MOL   H14514635   1.683   4.890   8.169 -1.1539 -1.2857  1.0847
   46MOL   C14614636   1.874   4.962   8.276 -0.3932  0.3049 -0.9405
   46MOL   C14714637   1.963   4.936   8.393  0.8987  0.1435 -0.5658
   46MOL   C14814638   2.106   4.927   8.378  0.3656  0.3631 -0.4438
   46MOL  Cl14914639   2.191   4.927   8.225 -0.0331  0.2783 -0.0671
   46MOL   C15014640   2.181   4.912   0.076 -0.1030 -0.0997 -0.8480
   46MOL   C15114641   2.118   4.911   0.199  0.9880  0.1487 -0.5542
   46MOL   C15214642   1.976   4.936   0.211  0.3713  0.7117  0.1259
   46MOL   C15314643   1.899   4.949   0.094  0.0984 -0.8433 -0.5975
   46MOL   C15414644   1.830   5.115   8.259 -0.3108 -0.0098  0.9206
   46MOL   H15514645   1.929   4.951   8.183  0.0362 -1.4203 -0.4983
   46MOL   H15614646   2.288   4.899   0.076  0.0930  1.4579 -0.2982
   46MOL   H15714647   2.183   4.895   0.284  1.3227  0.4107 -0.7611
   46MOL   H15814648   1.920   4.948   0.302  1.1713  0.9480  0.5971
   46MOL   H15914649   1.792   4.960   0.105 -0.0122 -0.6671 -1.7647
   46MOL   H16014650   1.920   5.174   8.277  0.2454 -0.7947  0.7656
   46MOL   H16114651   1.756   5.141   8.334 -4.2043 -0.3733 -2.6631
   46MOL   C16214652   1.764   5.153   8.122  0.4884  0.5280  0.1685
   46MOL   C16314653   1.850   5.091   8.008 -0.0158  1.0996 -0.6068
   46MOL   C16414654   1.799   5.002   7.909  0.6307 -0.1452 -0.2074
   46MOL  Cl16514655   1.624   4.981   7.897  0.1188  0.0382 -0.3650
   46MOL   C16614656   1.876   4.950   7.805  0.2541 -0.1535 -0.3065
   46MOL   C16714657   2.017   4.967   7.807 -0.7069  0.2106 -0.0934
   46MOL   C16814658   2.077   5.052   7.907  0.9310  0.4837 -0.1987
   46MOL   C16914659   1.991   5.120   8.002  0.4587  0.1948  0.8883
   46MOL   C17014660   1.738   5.305   8.098 -0.3045  0.0465 -0.4929
   46MOL   H17114661   1.665   5.110   8.112  1.0571 -0.3014 -2.2430
   46MOL   H17214662   1.827   4.885   7.734 -2.3631 -0.5720  1.7641
   46MOL   H17314663   2.081   4.917   7.737 -0.4006 -0.9432  0.9844
   46MOL   H17414664   2.182   5.075   7.912  1.0818 -0.1674 -0.2256
   46MOL   H17514665   2.034   5.184   8.078  1.4207  1.3106 -0.5662
   46MOL   H17614666   1.734   5.327   7.992 -1.1381 -0.7737 -0.6378
   46MOL   H17714667   1.832   5.350   8.131 -1.3070 -0.1400  2.8712
   46MOL   C17814668   1.616   5.353   8.180  0.0038  0.7237 -0.8391
   46MOL   C17914669   1.485   5.279   8.144  0.2823  0.2023 -0.0103
   46MOL   C18014670   1.397   5.241   8.245  0.3811  0.0248 -0.2099
   46MOL  Cl18114671   1.424   5.268   8.412  0.0277 -0.0782  0.2081
   46MOL   C18214672   1.282   5.174   8.209 -0.4797 -0.4051 -0.4714
   46MOL   C18314673   1.252   5.153   8.076  0.6454 -0.1945 -0.6769
   46MOL   C18414674   1.332   5.200   7.975  0.0188 -0.8419 -0.9289
   46MOL   C18514675   1.449   5.267   8.006  1.0654  0.1483  0.3784
   46MOL   C18614676   1.603   5.509   8.184  0.6395 -0.2315 -0.0699
   46MOL   H18714677   1.637   5.324   8.283  0.8307  1.8957 -0.6742
   46MOL   H18814678   1.213   5.144   8.287  2.2365  0.6907  2.4563
   46MOL   H18914679   1.158   5.107   8.047  1.3826 -1.1071 -1.6602
   46MOL   H19014680   1.302   5.207   7.872 -0.9580 -0.9936 -0.6649
   46MOL   H19114681   1.512   5.312   7.931  1.1841 -1.9183 -0.7999
   46MOL   H19214682   1.707   5.540   8.197 -0.0518  1.2738  2.1723
   46MOL   H19314683   1.553   5.540   8.276  0.5412 -1.0179  0.1453
   46MOL   C19414684   1.535   5.594   8.065  0.0149 -0.5780  0.4698
   46MOL   C19514685   1.574   5.739   8.097 -0.0787 -0.0238 -1.2073
   46MOL   C19614686   1.647   5.818   8.009  0.2495 -0.0230  0.1823
   46MOL  Cl19714687   1.741   5.743   7.878 -0.0068  0.4525  0.3563
   46MOL   C19814688   1.663   5.957   8.030  0.5363  0.4783  0.1429
   46MOL   C19914689   1.598   6.019   8.141 -0.0621  0.7664  0.0252
   46MOL   C20014690   1.535   5.941   8.238  0.1115  0.4811  0.2578
   46MOL   C20114691   1.518   5.801   8.215  0.7298 -0.1468  0.8129
   46MOL   C20214692   1.378   5.583   8.056  0.4588 -0.2545  0.3419
   46MOL   H20314693   1.577   5.551   7.974 -1.3442  0.3701 -0.6274
   46MOL   H20414694   1.711   6.021   7.958  0.4756  0.1820 -0.1631
   46MOL   H20514695   1.609   6.127   8.148 -0.1228  0.7217  0.8985
   46MOL   H20614696   1.492   5.983   8.328 -0.1939 -0.5273  0.5921
   46MOL   H20714697   1.453   5.753   8.287 -1.6451  1.0116 -0.4872
   46MOL   H20814698   1.324   5.602   8.149  0.0951  1.9550 -0.2903
   46MOL   H20914699   1.353   5.483   8.021  1.7880 -1.0021  1.5255
   46MOL   C21014700   1.301   5.675   7.949  0.0757  0.1433  0.4707
   46MOL   C21114701   1.153   5.625   7.928  0.2670  0.0648  0.0391
   46MOL   C21214702   1.045   5.697   7.968  0.0977 -0.6778 -0.3767
   46MOL  Cl21314703   1.061   5.852   8.039  0.2585  0.1671  0.3562
   46MOL   C21414704   0.917   5.653   7.936  0.1405  0.1503  0.5144
   46MOL   C21514705   0.892   5.530   7.864 -0.4681  0.1998  0.0419
   46MOL   C21614706   1.006   5.456   7.824  1.0040  0.3323  0.5262
   46MOL   C21714707   1.132   5.502   7.855 -0.1817 -0.4218 -0.5242
   46MOL   C21814708   1.382   5.698   7.812  0.4212  0.0466  0.0161
   46MOL   H21914709   1.304   5.774   7.995  1.0792 -0.3059  1.3916
   46MOL   H22014710   0.834   5.710   7.977 -0.4911 -0.6198  0.3278
   46MOL   H22114711   0.795   5.506   7.824  0.1212 -0.1346 -1.2405
   46MOL   H22214712   1.002   5.360   7.775 -0.1676  1.8430 -2.5093
   46MOL   H22314713   1.215   5.442   7.820  0.4253  0.8661 -1.2991
   46MOL   H22414714   1.433   5.606   7.783  0.8889  0.3713 -0.2006
   46MOL   H22514715   1.464   5.766   7.834 -0.0261  1.3654 -2.2678
   46MOL   C22614716   1.308   5.731   7.675 -0.0957 -0.2826  0.0074
   46MOL   C22714717   1.421   5.741   7.578  0.2407  0.1386 -0.2635
   46MOL   C22814718   1.469   5.622   7.517  0.4969 -0.6271  0.4354
   46MOL  Cl22914719   1.408   5.468   7.571 -0.1126 -0.1248  0.0349
   46MOL   C23014720   1.565   5.620   7.417 -0.1774  0.1935 -0.4631
   46MOL   C23114721   1.622   5.742   7.374 -0.0326  0.2279  0.1043
   46MOL   C23214722   1.573   5.861   7.435  0.2015  0.3369  0.4335
   46MOL   C23314723   1.475   5.862   7.534  0.7525  0.9532 -0.6952
   46MOL   C23414724   1.204   5.845   7.685 -0.1796  0.1241  0.7336
   46MOL   H23514725   1.247   5.643   7.654  1.7585 -1.6621  0.2421
   46MOL   H23614726   1.609   5.524   7.391  3.2231  1.5846 -0.0691
   46MOL   H23714727   1.707   5.752   7.309 -0.8179 -1.7284 -1.2587
   46MOL   H23814728   1.618   5.958   7.422 -0.1562  0.5183  0.5638
   46MOL   H23914729   1.435   5.955   7.571  0.1593  0.5123 -0.2123
   46MOL   H24014730   1.263   5.931   7.655  1.0014 -1.4144 -1.5157
   46MOL   H24114731   1.174   5.867   7.788 -3.6359  0.5945 -0.3265
   46MOL   C24214732   1.074   5.823   7.597 -0.0161 -0.6821 -0.3038
   46MOL   C24314733   1.112   5.807   7.455 -0.1346 -0.6451  0.7525
   46MOL   C24414734   1.088   5.691   7.377 -0.0220  0.4890  0.2229
   46MOL  Cl24514735   1.029   5.541   7.435  0.3350 -0.1660 -0.1539
   46MOL   C24614736   1.115   5.699   7.241  0.2886 -0.1291  0.6240
   46MOL   C24714737   1.166   5.802   7.169  0.2028  0.3753  0.4167
   46MOL   C24814738   1.195   5.918   7.248  0.1836 -0.8333  0.0749
   46MOL   C24914739   1.165   5.920   7.385  0.4178 -0.2820  0.3368
   46MOL   C25014740   0.974   5.941   7.615  0.0877  0.4884 -0.0672
   46MOL   H25114741   1.020   5.734   7.631 -0.8661 -0.4047 -0.9055
   46MOL   H25214742   1.095   5.611   7.180  2.0787 -0.6140  0.7022
   46MOL   H25314743   1.186   5.809   7.063  0.8464  2.8676  0.6850
   46MOL   H25414744   1.237   6.009   7.208  0.5774 -0.2447  1.7802
   46MOL   H25514745   1.188   6.012   7.437  0.4501  0.2525 -0.5969
   46MOL   H25614746   1.025   6.034   7.590  0.9569  0.5920  2.0149
   46MOL   H25714747   0.959   5.954   7.722 -0.2605 -0.1382 -0.0365
   46MOL   C25814748   0.850   5.929   7.536 -0.3669 -0.1708 -0.3534
   46MOL   C25914749   0.780   6.065   7.514 -0.5951  0.8128 -0.7146
   46MOL   C26014750   0.799   6.145   7.397 -0.9105  0.1263  0.8477
   46MOL  Cl26114751   0.913   6.100   7.275 -0.1281  0.2477  0.1912
   46MOL   C26214752   0.727   6.262   7.370 -0.1665 -0.2098 -0.3417
   46MOL   C26314753   0.642   6.310   7.466 -0.1537  0.2734 -0.1298
   46MOL   C26414754   0.625   6.238   7.585 -0.8321  0.5192 -0.8933
   46MOL   C26514755   0.696   6.119   7.611  0.4573 -0.0250  0.3452
   46MOL   C26614756   0.753   5.819   7.583 -0.2381 -0.0610  0.0217
   46MOL   H26714757   0.882   5.889   7.439 -1.0401 -1.7353  0.0492
   46MOL   H26814758   0.739   6.314   7.276  2.8263 -0.0759  0.0685
   46MOL   H26914759   0.597   6.405   7.442 -3.2119 -0.5590  2.0810
   46MOL   H27014760   0.550   6.284   7.646  1.2351  0.5676  1.7182
   46MOL   H27114761   0.686   6.071   7.707 -1.4889  0.4644  0.4078
   46MOL   H27214762   0.675   5.852   7.652  0.0677 -0.1961  0.4297
   46MOL   H27314763   0.806   5.749   7.647  1.4058  0.5791 -0.6345
   46MOL   C27414764   0.673   5.740   7.472  0.4113 -0.0114  0.1207
   46MOL   C27514765   0.592   5.834   7.378 -0.3680 -0.1193 -0.2134
   46MOL   C27614766   0.616   5.836   7.237 -0.5181 -0.5992  0.3680
   46MOL  Cl27714767   0.742   5.751   7.162 -0.0310  0.3091  0.0486
   46MOL   C27814768   0.545   5.923   7.151  0.0283 -0.5384  0.3818
   46MOL   C27914769   0.449   6.015   7.206  0.3897 -0.3535  0.0333
   46MOL   C28014770   0.426   6.015   7.347  0.2547 -0.3436 -0.0884
   46MOL   C28114771   0.498   5.922   7.431 -0.6213 -0.4692 -0.1061
   46MOL   C28214772   0.581   5.635   7.539 -0.5618 -0.3001 -0.3947
   46MOL   H28314773   0.737   5.673   7.415 -0.4899 -1.3808  0.6947
   46MOL   H28414774   0.580   5.924   7.049 -0.5887 -0.9528  0.1674
   46MOL   H28514775   0.396   6.088   7.147  2.2221  1.0352  0.0929
   46MOL   H28614776   0.366   6.090   7.397  2.0077  1.2031 -0.2394
   46MOL   H28714777   0.476   5.925   7.536 -1.4641  0.8411 -0.3049
   46MOL   H28814778   0.511   5.675   7.613 -0.0255  0.8349 -0.4870
   46MOL   H28914779   0.644   5.573   7.602  0.3600  2.2169  1.2192
   46MOL   C29014780   0.486   5.540   7.462  0.4977 -0.6388 -0.6640
   46MOL   C29114781   0.381   5.480   7.551  0.9713 -1.3477  0.1657
   46MOL   C29214782   0.242   5.500   7.539  0.6971  0.0405 -0.3152
   46MOL  Cl29314783   0.174   5.576   7.397  0.2429 -0.1058 -0.3093
   46MOL   C29414784   0.153   5.458   7.643  0.4453  0.4266  0.3879
   46MOL   C29514785   0.199   5.397   7.761 -1.0520 -0.1051 -0.1497
   46MOL   C29614786   0.337   5.381   7.781 -0.1448  0.0762  0.6632
   46MOL   C29714787   0.422   5.413   7.673 -0.6575 -0.2898  0.3851
   46MOL   C29814788   0.553   5.424   7.394 -0.9101 -0.2038 -0.0662
   46MOL   H29914789   0.442   5.608   7.389  1.1172 -0.0734 -0.5199
   46MOL   H30014790   0.050   5.489   7.636  0.4072  0.0586 -0.8314
   46MOL   H30114791   0.119   5.370   7.829 -2.0773  0.1912 -1.2257
   46MOL   H30214792   0.365   5.328   7.870 -0.8024  0.2268  0.9645
   46MOL   H30314793   0.526   5.384   7.677 -1.0382 -1.5129  1.6518
   46MOL   H30414794   0.591   5.353   7.467 -0.5269  0.5249  0.4436
   46MOL   H30514795   0.645   5.465   7.353 -0.1245 -3.8487 -2.1984
   46MOL   C30614796   0.480   5.349   7.282 -0.3298 -0.4205  0.9357
   46MOL   C30714797   0.467   5.205   7.313 -0.0340  0.1228 -0.1231
   46MOL   C30814798   0.343   5.150   7.353  0.2612  0.2248  0.6343
   46MOL  Cl30914799   0.201   5.243   7.365  0.3973 -0.0988  0.1658
   46MOL   C31014800   0.335   5.014   7.389 -0.3938  0.5632 -0.4779
   46MOL   C31114801   0.447   4.926   7.387  0.2084 -0.5775 -0.0311
   46MOL   C31214802   0.567   4.979   7.331 -0.8392  0.1832 -0.0827
   46MOL   C31314803   0.579   5.115   7.302  0.7063  0.1388  0.4865
   46MOL   C31414804   0.555   5.391   7.153  0.4292  0.0094 -0.1359
   46MOL   H31514805   0.386   5.401   7.267  0.8238  1.2982 -0.4558
   46MOL   H31614806   0.240   4.973   7.422 -1.0349  2.0058 -0.4812
   46MOL   H31714807   0.439   4.822   7.412  0.0220 -0.5972 -0.1736
   46MOL   H31814808   0.654   4.917   7.316  1.3079  2.9955  0.2699
   46MOL   H31914809   0.674   5.157   7.272  0.2920  1.1011  0.5221
   46MOL   H32014810   0.529   5.318   7.076  0.4997 -0.4826  0.2996
   46MOL   H32114811   0.662   5.374   7.157  0.4796  0.6600  1.4861
   46MOL   H32214812   0.527   5.494   7.131  0.3363 -0.4305 -2.1352
   47MOL     C114813   8.242   6.825   7.604  0.7163  0.2891  0.1652
   47MOL     C214814   8.311   6.714   7.680  0.1218  0.3412 -0.5608
   47MOL     C314815   8.269   6.664   7.804 -0.4795  0.0369  0.8072
   47MOL    Cl414816   8.134   6.737   7.870 -0.0467 -0.1118 -0.0317
   47MOL     C514817   8.331   6.562   7.870  0.0531  0.3803 -0.2671
   47MOL     C614818   0.017   6.501   7.804  0.5481  0.3228  0.2839
   47MOL     C714819   0.061   6.536   7.676  0.0051 -0.1179  0.7040
   47MOL     C814820   0.002   6.650   7.617  0.6876  0.0242 -0.2072
   47MOL     C914821   8.332   6.941   7.610 -0.2045 -0.6508  0.2850
   47MOL    H1014822   8.223   6.792   7.502  1.3547  3.5116 -1.0343
   47MOL    H1114823   8.297   6.529   7.967 -1.4664 -2.5219 -1.7168
   47MOL    H1214824   0.066   6.422   7.859 -2.4902 -0.8206  1.4806
   47MOL    H1314825   0.139   6.495   7.613 -2.2272 -0.0725 -2.2240
   47MOL    H1414826   0.027   6.685   7.518  0.1436  0.2453 -0.2707
   47MOL    H1514827   0.010   6.913   7.572  0.0475  2.7914 -1.8159
   47MOL    H1614828   8.354   6.952   7.716 -0.6614 -1.3003  0.4475
   47MOL    H1714829   8.139   6.839   7.638  0.4509 -0.8220 -0.1545
   47MOL    C1814830   8.294   7.071   7.536  0.6760 -0.2553  0.4717
   47MOL    C1914831   8.256   7.041   7.384 -0.8455  0.7172  0.2539
   47MOL    C2014832   8.123   7.067   7.335 -0.3394  0.8129  0.3547
   47MOL   Cl2114833   8.002   7.135   7.445  0.0503  0.2949 -0.0349
   47MOL    C2214834   8.094   7.046   7.202 -0.4819 -0.3886 -0.0357
   47MOL    C2314835   8.195   6.991   7.118  0.1436  0.2071  0.2046
   47MOL    C2414836   8.327   6.967   7.166 -0.3590  0.1365 -0.6005
   47MOL    C2514837   8.354   6.987   7.302  0.6491 -0.2990  0.5015
   47MOL    C2614838   8.405   7.183   7.543 -0.5897 -0.2717  0.1780
   47MOL    H2714839   8.207   7.106   7.593  0.2177  0.2636 -0.5306
   47MOL    H2814840   7.998   7.069   7.157 -0.8246 -0.8674  0.4510
   47MOL    H2914841   8.159   6.960   7.021 -1.7182  0.7113  0.7048
   47MOL    H3014842   8.397   6.919   7.099 -1.4499 -1.2899 -0.7530
   47MOL    H3114843   0.033   6.963   7.336  0.9269 -1.2587 -0.9460
   47MOL    H3214844   8.389   7.249   7.458  1.7836  0.5698  0.3257
   47MOL    H3314845   0.080   7.134   7.525 -1.8041 -1.2289 -4.2951
   47MOL    C3414846   8.394   7.259   7.667 -0.8454  0.1736  0.3151
   47MOL    C3514847   8.269   7.337   7.686  0.0085 -0.0038  0.0736
   47MOL    C3614848   8.172   7.295   7.784  0.7639  0.6664 -0.5192
   47MOL   Cl3714849   8.188   7.161   7.893  0.3761  0.3470 -0.1999
   47MOL    C3814850   8.056   7.369   7.806 -0.3773  0.1625 -0.3506
   47MOL    C3914851   8.037   7.484   7.735  0.4952  0.4373 -0.7844
   47MOL    C4014852   8.130   7.536   7.641  0.0693 -0.2237 -0.2995
   47MOL    C4114853   8.244   7.455   7.614  0.3352 -0.3560  0.7265
   47MOL    C4214854   0.102   7.322   7.695  0.3051  0.4723 -0.2597
   47MOL    H4314855   8.402   7.189   7.750  1.9834  0.2067  0.0903
   47MOL    H4414856   7.988   7.343   7.885  1.3579 -1.5853  0.6170
   47MOL    H4514857   7.957   7.549   7.768  2.2628  1.6064  1.3430
   47MOL    H4614858   8.093   7.624   7.589 -2.1133 -1.3293 -0.6717
   47MOL    H4714859   8.312   7.490   7.538  1.6759 -0.0808  2.0143
   47MOL    H4814860   0.086   7.418   7.745 -1.0072  0.3224 -0.3684
   47MOL    H4914861   0.147   7.346   7.599 -0.7083 -0.3734 -0.9614
   47MOL    C5014862   0.207   7.229   7.767  0.2649 -0.2048  0.3688
   47MOL    C5114863   0.185   7.232   7.919 -0.2086  0.3218  0.1742
   47MOL    C5214864   0.143   7.117   7.987 -0.0412 -0.8157 -0.3044
   47MOL   Cl5314865   0.137   6.959   7.925  0.1922  0.0741  0.1609
   47MOL    C5414866   0.100   7.131   8.121  0.1371 -0.1939  0.0994
   47MOL    C5514867   0.084   7.260   8.182 -0.0693 -0.3253  0.5016
   47MOL    C5614868   0.155   7.365   8.121  0.2132 -0.0392  0.0332
   47MOL    C5714869   0.206   7.349   7.990  0.5949 -0.1656  0.3846
   47MOL    C5814870   0.360   7.259   7.737  0.3653 -0.8357  0.6936
   47MOL    H5914871   0.205   7.122   7.749  1.3023 -0.7485  3.2021
   47MOL    H6014872   0.053   7.042   8.159  3.3083 -3.2777 -2.7318
   47MOL    H6114873   0.039   7.272   8.279 -0.1370  1.6194  0.2493
   47MOL    H6214874   0.173   7.448   8.187  0.1308 -0.6083  0.7783
   47MOL    H6314875   0.268   7.425   7.945  0.2944 -0.9235 -1.3564
   47MOL    H6414876   0.409   7.208   7.820 -0.9097 -1.2590  1.2011
   47MOL    H6514877   0.373   7.367   7.745 -2.4508 -0.3412 -0.6350
   47MOL    C6614878   0.415   7.233   7.591 -0.1573  0.1205 -0.3913
   47MOL    C6714879   0.381   7.097   7.540  0.5756  0.4842 -0.0743
   47MOL    C6814880   0.350   7.088   7.400 -0.2367 -0.0846 -0.2290
   47MOL   Cl6914881   0.349   7.217   7.284  0.0107  0.4999  0.1625
   47MOL    C7014882   0.321   6.964   7.351  0.1117 -0.0396  0.6045
   47MOL    C7114883   0.324   6.842   7.426 -0.6149 -0.2020 -0.0542
   47MOL    C7214884   0.368   6.860   7.565  0.5166  0.6386  0.7113
   47MOL    C7314885   0.400   6.983   7.619  0.2607 -0.3317 -0.1805
   47MOL    C7414886   0.565   7.256   7.574 -0.6698 -0.4235  0.8706
   47MOL    H7514887   0.354   7.300   7.531  0.2532  0.6707 -0.1986
   47MOL    H7614888   0.308   6.966   7.244  1.5710 -1.0224  0.3958
   47MOL    H7714889   0.301   6.748   7.379 -0.0002 -0.4207  0.0810
   47MOL    H7814890   0.376   6.774   7.630  2.8732 -0.4720 -0.9827
   47MOL    H7914891   0.432   6.998   7.722  3.3854 -1.5615 -0.9013
   47MOL    H8014892   0.610   7.176   7.515 -0.7078 -0.3260  0.7089
   47MOL    H8114893   0.620   7.242   7.667 -0.8329 -2.0124  0.7437
   47MOL    C8214894   0.598   7.398   7.511 -0.0276  0.6235 -0.2776
   47MOL    C8314895   0.745   7.408   7.465 -0.1808  0.1537 -0.0814
   47MOL    C8414896   0.778   7.453   7.333  0.2628  0.0735  0.9232
   47MOL   Cl8514897   0.655   7.455   7.211 -0.1614  0.4767  0.1482
   47MOL    C8614898   0.913   7.476   7.303  0.3985 -0.5689  0.4647
   47MOL    C8714899   1.015   7.442   7.397 -0.0148 -0.5266  0.5195
   47MOL    C8814900   0.979   7.405   7.526  0.0369  0.2855 -1.0832
   47MOL    C8914901   0.848   7.389   7.558  0.3107  0.4492  0.0437
   47MOL    C9014902   0.555   7.517   7.604  0.1951  0.2525  0.8604
   47MOL    H9114903   0.530   7.420   7.428  1.1143  4.2270 -0.3273
   47MOL    H9214904   0.940   7.496   7.200 -1.0654  0.8699  0.3370
   47MOL    H9314905   1.118   7.454   7.368 -0.1473  0.5363  0.4542
   47MOL    H9414906   1.048   7.385   7.607 -0.2495  0.7945 -0.7074
   47MOL    H9514907   0.831   7.354   7.658 -0.1590 -1.6473 -0.7292
   47MOL    H9614908   0.581   7.491   7.706  1.9198 -2.7370 -0.2720
   47MOL    H9714909   0.446   7.526   7.607 -0.0825 -2.6763  0.8671
   47MOL    C9814910   0.609   7.659   7.560 -0.2789  0.5290  0.4446
   47MOL    C9914911   0.751   7.684   7.609 -0.0850 -0.3785  0.4890
   47MOL   C10014912   0.843   7.753   7.526  0.2405 -0.0396  0.3574
   47MOL  Cl10114913   0.812   7.799   7.360 -0.1485  0.1839  0.3575
   47MOL   C10214914   0.967   7.798   7.584 -0.1779  0.0161  0.4364
   47MOL   C10314915   0.996   7.779   7.717  0.6027 -0.0267  0.6572
   47MOL   C10414916   0.908   7.708   7.799 -0.2281 -0.4192  0.3556
   47MOL   C10514917   0.779   7.669   7.747 -0.0778 -0.6612  0.1842
   47MOL   C10614918   0.516   7.782   7.601 -0.1413  0.3928  0.6197
   47MOL   H10714919   0.614   7.660   7.451 -0.5513  0.3607  0.4277
   47MOL   H10814920   1.030   7.840   7.507 -0.9703 -1.2402 -0.9320
   47MOL   H10914921   1.091   7.812   7.757  1.3465  0.4615 -1.4798
   47MOL   H11014922   0.923   7.682   7.903  1.8697  0.0233  0.1824
   47MOL   H11114923   0.701   7.629   7.810 -1.6996 -0.8919 -1.9426
   47MOL   H11214924   0.564   7.877   7.576 -1.8923  1.1530  0.1073
   47MOL   H11314925   0.512   7.780   7.709  0.5162  0.1209  0.6431
   47MOL   C11414926   0.383   7.784   7.527  0.8580 -0.4130  0.5246
   47MOL   C11514927   0.411   7.767   7.379 -0.0371 -0.2883  0.3407
   47MOL   C11614928   0.350   7.662   7.299  0.7948  0.1348  0.0839
   47MOL  Cl11714929   0.265   7.542   7.379  0.0163  0.0603 -0.1916
   47MOL   C11814930   0.372   7.653   7.162 -0.1913 -0.4947  0.0730
   47MOL   C11914931   0.452   7.751   7.101  0.2093 -0.4714 -0.4068
   47MOL   C12014932   0.502   7.861   7.173  0.3968  0.0804  0.2010
   47MOL   C12114933   0.489   7.867   7.313  0.1233 -0.9560 -0.2512
   47MOL   C12214934   0.305   7.916   7.549  0.4063  0.6649  0.5570
   47MOL   H12314935   0.328   7.700   7.569  0.5526 -0.8733 -0.7640
   47MOL   H12414936   0.333   7.570   7.106 -4.2138  0.1728  1.7450
   47MOL   H12514937   0.453   7.749   6.993 -0.6068 -2.7057 -0.3990
   47MOL   H12614938   0.549   7.947   7.128 -1.5442  1.3814  0.5978
   47MOL   H12714939   0.528   7.957   7.360  2.6781 -0.4442 -3.1767
   47MOL   H12814940   0.223   7.921   7.477  1.5884 -2.2840 -1.0631
   47MOL   H12914941   0.378   7.991   7.520  0.7791 -0.4435 -1.4632
   47MOL   C13014942   0.268   7.939   7.689 -1.0390 -0.0788 -0.2477
   47MOL   C13114943   0.139   7.867   7.733 -0.4624  0.2241  0.0012
   47MOL   C13214944   0.142   7.760   7.827 -0.6970 -0.5209  0.5865
   47MOL  Cl13314945   0.296   7.697   7.887 -0.5230 -0.1893  0.3057
   47MOL   C13414946   0.018   7.694   7.863  0.2384  0.1276  0.6077
   47MOL   C13514947   8.315   7.736   7.810 -0.7416 -0.4734 -0.3358
   47MOL   C13614948   8.320   7.836   7.711  0.3871  0.8535  0.1553
   47MOL   C13714949   0.018   7.905   7.673  1.1108 -0.0947 -0.4989
   47MOL   C13814950   0.258   8.096   7.717  0.4350  0.5618  0.2715
   47MOL   H13914951   0.346   7.910   7.758  0.3402 -0.1149 -1.7949
   47MOL   H14014952   0.018   7.612   7.934  0.1401 -0.8545 -0.5196
   47MOL   H14114953   8.221   7.689   7.834 -2.3262  2.7966  0.1679
   47MOL   H14214954   8.223   7.856   7.669  0.7364  1.3062 -0.4512
   47MOL   H14314955   0.016   7.988   7.604  0.3787 -1.4208 -2.1002
   47MOL   H14414956   0.208   8.113   7.812 -1.0334  0.0759 -0.3888
   47MOL   H14514957   0.208   8.146   7.634 -1.1612  0.3011  1.0658
   47MOL   C14614958   0.392   8.170   7.735 -0.5391  0.3780  0.0848
   47MOL   C14714959   0.498   8.112   7.838  1.6512  0.8788  0.5348
   47MOL   C14814960   0.625   8.080   7.804  0.0219  0.7322 -0.1274
   47MOL  Cl14914961   0.688   8.109   7.651  0.0364  0.3059  0.2987
   47MOL   C15014962   0.711   8.031   7.904  0.3541 -0.2802 -0.3383
   47MOL   C15114963   0.668   8.007   8.035 -0.3635 -0.5137 -0.9193
   47MOL   C15214964   0.539   8.044   8.067  0.2399  0.3486 -0.9030
   47MOL   C15314965   0.452   8.088   7.970  0.1548 -0.5126  0.3829
   47MOL   C15414966   0.373   8.320   7.758 -0.1468 -0.4508  0.2971
   47MOL   H15514967   0.435   8.155   7.637 -0.5585 -0.0761  0.1465
   47MOL   H15614968   0.817   8.018   7.889  0.0849 -0.9326 -1.8476
   47MOL   H15714969   0.727   7.965   8.115  0.4180 -1.1097 -1.8044
   47MOL   H15814970   0.512   8.012   8.167  1.4814  0.9114 -0.3660
   47MOL   H15914971   0.351   8.107   8.005 -0.0554 -1.4024  0.2678
   47MOL   H16014972   0.475   8.358   7.760 -0.1619 -0.3638 -0.5015
   47MOL   H16114973   0.321   8.328   7.853  0.5830 -0.3970  0.6943
   47MOL   C16214974   0.306   8.397   7.642  0.1473 -0.2724 -0.1371
   47MOL   C16314975   0.356   8.355   7.499 -0.2063 -0.3591 -0.2650
   47MOL   C16414976   0.272   8.324   7.390 -0.0536  1.0663 -0.0799
   47MOL  Cl16514977   0.098   8.340   7.403 -0.2165  0.1673 -0.6584
   47MOL   C16614978   0.325   8.298   7.261  0.5020  0.1565  0.1849
   47MOL   C16714979   0.462   8.311   7.233  0.7343 -0.5525 -0.0583
   47MOL   C16814980   0.548   8.325   7.346 -0.3146 -0.2369  0.2751
   47MOL   C16914981   0.497   8.354   7.477 -0.3744 -0.4277 -0.1463
   47MOL   C17014982   0.339   0.123   7.670 -0.3737 -0.1332 -0.4988
   47MOL   H17114983   0.198   8.381   7.647 -0.1392  1.9698  1.1502
   47MOL   H17214984   0.261   8.283   7.175 -0.9381  1.2147  1.0526
   47MOL   H17314985   0.500   8.288   7.134 -1.6571  0.8229 -1.3540
   47MOL   H17414986   0.655   8.331   7.333 -0.6292  0.8753 -2.0045
   47MOL   H17514987   0.568   8.374   7.556 -2.0344  0.8552  1.0566
   47MOL   H17614988   0.328   0.171   7.573  1.5391  2.5076  0.5438
   47MOL   H17714989   0.445   0.133   7.691 -0.5597 -1.6152  1.2734
   47MOL   C17814990   0.259   0.200   7.772 -0.7959  0.2751 -0.0591
   47MOL   C17914991   0.116   0.206   7.726  0.1510 -0.1939  0.3023
   47MOL   C18014992   0.011   0.149   7.809  0.0353  0.1017 -0.0336
   47MOL  Cl18114993   0.044   0.102   7.970 -0.3920  0.0845 -0.0474
   47MOL   C18214994   8.296   0.142   7.760  0.2324 -0.0221  0.2772
   47MOL   C18314995   8.266   0.198   7.638  0.8649 -0.0323  0.7794
   47MOL   C18414996   8.367   0.252   7.551 -0.1074  0.5969 -0.1083
   47MOL   C18514997   0.079   0.256   7.599 -0.8460  0.2330  0.3849
   47MOL   C18614998   0.308   0.347   7.795  0.0770 -0.5014  0.1788
   47MOL   H18714999   0.267   0.157   7.872 -0.6621 -2.0471 -1.0517
   47MOL   H18815000   8.219   0.095   7.820 -0.7912 -1.8016 -2.3376
   47MOL   H18915001   8.167   0.184   7.596  1.2238 -0.7219  0.1556
   47MOL   H19015002   8.341   0.292   7.455  1.5722  0.3233 -0.6786
   47MOL   H19115003   0.153   0.297   7.532 -1.2551  0.4696  0.0734
   47MOL   H19215004   0.240   0.391   7.867  1.1208  1.3076  0.0955
   47MOL   H19315005   0.297   0.398   7.699  0.0049 -2.7346 -1.0284
   47MOL   C19415006   0.452   0.350   7.854  0.2995 -0.9120  0.2424
   47MOL   C19515007   0.470   0.294   7.997 -0.3170 -0.2300  0.1557
   47MOL   C19615008   0.568   0.195   8.021 -0.0609 -0.0232  0.1173
   47MOL  Cl19715009   0.675   0.131   7.902 -0.4120 -0.1102  0.0012
   47MOL   C19815010   0.579   0.138   8.149  0.7074  0.2725 -0.1671
   47MOL   C19915011   0.504   0.196   8.255 -0.0425  0.0872  0.6389
   47MOL   C20015012   0.408   0.299   8.234 -0.0081 -0.8268 -0.0830
   47MOL   C20115013   0.397   0.349   8.104  0.1477 -0.6623  0.7662
   47MOL   C20215014   0.509   0.497   7.852  0.2346 -0.0046 -0.1541
   47MOL   H20315015   0.516   0.291   7.789 -0.8992 -1.7381 -0.2011
   47MOL   H20415016   0.642   0.055   8.179 -0.9124 -0.8629  0.1733
   47MOL   H20515017   0.507   0.139   8.346  0.3747 -1.6827 -0.4472
   47MOL   H20615018   0.345   0.340   8.311  0.0907 -1.2869  0.2442
   47MOL   H20715019   0.327   0.429   8.083  1.5123  0.9520  2.1893
   47MOL   H20815020   0.601   0.493   7.910 -0.0084  0.1471  0.2469
   47MOL   H20915021   0.442   0.567   7.901  0.0928  0.5878 -1.1687
   47MOL   C21015022   0.546   0.542   7.709 -0.0190 -0.3386  0.1000
   47MOL   C21115023   0.621   0.440   7.629  1.0476 -0.4302 -0.8871
   47MOL   C21215024   0.572   0.386   7.507 -0.4493 -0.5230 -0.6960
   47MOL  Cl21315025   0.436   0.457   7.428  0.3762  0.0112  0.0133
   47MOL   C21415026   0.641   0.287   7.444  0.6002 -0.5837  0.2425
   47MOL   C21515027   0.768   0.241   7.499  0.4082 -0.2093 -0.2970
   47MOL   C21615028   0.816   0.296   7.619 -0.0919  0.1432 -0.1363
   47MOL   C21715029   0.746   0.398   7.679  0.5266 -0.2538  0.2799
   47MOL   C21815030   0.618   0.680   7.700 -0.7818 -0.0337  0.5277
   47MOL   H21915031   0.451   0.551   7.656  1.4287  0.0918 -2.5207
   47MOL   H22015032   0.613   0.253   7.345 -1.1652 -2.5287  1.3942
   47MOL   H22115033   0.836   0.174   7.448  1.6000 -0.0048  0.9921
   47MOL   H22215034   0.911   0.259   7.653 -0.6758 -2.9136 -1.6949
   47MOL   H22315035   0.779   0.442   7.772 -0.6990  2.2234 -0.4071
   47MOL   H22415036   0.639   0.692   7.594  0.6864 -0.9080  0.7083
   47MOL   H22515037   0.717   0.666   7.743  0.0052  1.0910 -0.8958
   47MOL   C22615038   0.541   0.800   7.766  0.0643 -0.5831  0.0645
   47MOL   C22715039   0.398   0.836   7.707 -0.4587 -0.4671 -0.7361
   47MOL   C22815040   0.299   0.897   7.792 -0.4405  0.3973 -0.4707
   47MOL  Cl22915041   0.335   0.939   7.952  0.3108  0.2570 -0.2989
   47MOL   C23015042   0.174   0.921   7.738  0.4449  0.2042 -0.1243
   47MOL   C23115043   0.140   0.901   7.600 -0.5677 -0.0432 -0.1070
   47MOL   C23215044   0.231   0.839   7.519  0.4508  0.2403 -0.3969
   47MOL   C23315045   0.357   0.806   7.575 -0.0748  0.7511 -0.8689
   47MOL   C23415046   0.629   0.922   7.754 -0.3495 -0.3368 -0.8698
   47MOL   H23515047   0.532   0.782   7.874 -1.1353  0.5845  0.1845
   47MOL   H23615048   0.093   0.954   7.802  0.0165  0.5101 -0.8064
   47MOL   H23715049   0.039   0.915   7.564  0.5136  1.1336 -2.8713
   47MOL   H23815050   0.206   0.822   7.416 -1.0782 -3.1722  0.4870
   47MOL   H23915051   0.424   0.749   7.512 -0.7202  0.8969 -1.6812
   47MOL   H24015052   0.567   1.012   7.756  0.7963  0.4524 -0.4803
   47MOL   H24115053   0.681   0.928   7.659  1.5377  2.6298  0.2618
   47MOL   C24215054   0.734   0.949   7.870  0.2533 -0.2164 -0.2345
   47MOL   C24315055   0.670   1.003   7.998  0.3878 -0.1548 -0.4777
   47MOL   C24415056   0.676   0.929   8.119  0.1572 -0.2353 -0.3257
   47MOL  Cl24515057   0.760   0.784   8.147  0.1772  0.1834  0.5221
   47MOL   C24615058   0.620   0.986   8.234 -0.0161 -0.6876  0.0373
   47MOL   C24715059   0.536   1.096   8.222 -0.4795  0.4660 -0.1117
   47MOL   C24815060   0.538   1.173   8.102 -0.2690  0.0733  0.9639
   47MOL   C24915061   0.603   1.127   7.987 -0.2561  0.8224  0.1204
   47MOL   C25015062   0.846   1.038   7.807 -0.4606  0.0280 -0.2133
   47MOL   H25115063   0.777   0.851   7.892  1.8562  0.1597 -1.6046
   47MOL   H25215064   0.619   0.922   8.322 -0.1722 -0.2074  0.3863
   47MOL   H25315065   0.473   1.118   8.307  0.1096 -0.9476  0.6893
   47MOL   H25415066   0.470   1.256   8.097 -1.5637 -1.0831 -1.7202
   47MOL   H25515067   0.592   1.181   7.894 -1.6338 -0.6511 -0.6013
   47MOL   H25615068   0.868   1.130   7.860  2.3645  0.8742 -2.6702
   47MOL   H25715069   0.803   1.084   7.718  0.5461  1.6227  0.1122
   47MOL   C25815070   0.971   0.958   7.769 -1.3761 -0.4870  0.3999
   47MOL   C25915071   1.051   0.927   7.895  0.2346 -0.1190  0.5538
   47MOL   C26015072   1.063   0.789   7.942  0.2976  0.1921 -0.0414
   47MOL  Cl26115073   1.011   0.655   7.846 -0.1613  0.3573 -0.5398
   47MOL   C26215074   1.132   0.756   8.059  0.2422  0.6989 -0.1649
   47MOL   C26315075   1.192   0.863   8.128  0.5409  0.6509  0.4680
   47MOL   C26415076   1.170   0.999   8.100  1.0011  0.4083 -0.1423
   47MOL   C26515077   1.094   1.030   7.983 -0.5236 -0.0341  0.1519
   47MOL   C26615078   1.056   1.029   7.659  0.4270 -0.1226  0.6306
   47MOL   H26715079   0.935   0.866   7.723 -1.9322  0.3105 -0.7840
   47MOL   H26815080   1.154   0.655   8.090 -0.6798  0.8208  0.8681
   47MOL   H26915081   1.258   0.842   8.211  0.9180 -0.0047 -0.0010
   47MOL   H27015082   1.210   1.073   8.168 -0.5532 -2.3442  4.0101
   47MOL   H27115083   1.070   1.133   7.961 -1.9788 -0.4712 -0.3646
   47MOL   H27215084   1.154   0.981   7.662 -0.8145 -2.6390  2.7842
   47MOL   H27315085   1.094   1.126   7.690  3.4931 -1.4850  1.3733
   47MOL   C27415086   1.014   1.022   7.509 -0.0742 -0.3562  0.0312
   47MOL   C27515087   0.985   0.880   7.459  0.8620 -0.0016  0.2016
   47MOL   C27615088   0.870   0.846   7.383 -0.2083 -0.0026  0.7901
   47MOL  Cl27715089   0.782   0.972   7.310  0.5497 -0.3223  0.2538
   47MOL   C27815090   0.826   0.717   7.368 -0.2914  0.4094 -0.2353
   47MOL   C27915091   0.902   0.610   7.417 -0.1006  0.1058 -0.0634
   47MOL   C28015092   1.020   0.636   7.489 -0.4730  0.1825  0.3665
   47MOL   C28115093   1.061   0.769   7.506 -0.2495 -0.4198 -0.3339
   47MOL   C28215094   1.100   1.099   7.415 -0.2872 -0.2952 -0.3754
   47MOL   H28315095   0.912   1.060   7.510  0.3658  0.9528 -2.2483
   47MOL   H28415096   0.739   0.687   7.311 -1.1767 -2.4628  2.4629
   47MOL   H28515097   0.871   0.507   7.410  2.1855 -0.6108 -0.0325
   47MOL   H28615098   1.070   0.549   7.529  0.3527  1.4022  2.0367
   47MOL   H28715099   1.146   0.793   7.568 -0.1483 -1.9431  0.1479
   47MOL   H28815100   1.079   1.064   7.314  0.5361  2.4302 -1.5321
   47MOL   H28915101   1.202   1.067   7.436 -0.2801  1.7379  3.1669
   47MOL   C29015102   1.090   1.254   7.424  0.0232 -0.4466  0.0854
   47MOL   C29115103   0.948   1.303   7.418  0.0470 -0.2323  0.4094
   47MOL   C29215104   0.882   1.371   7.530  0.3687 -0.2476 -0.0507
   47MOL  Cl29315105   0.950   1.400   7.688  0.2787 -0.0149 -0.6070
   47MOL   C29415106   0.751   1.415   7.522  0.6462 -0.1864  0.2400
   47MOL   C29515107   0.681   1.394   7.403  0.1114 -0.7217 -0.5448
   47MOL   C29615108   0.735   1.331   7.293  0.3464 -0.2920  0.4050
   47MOL   C29715109   0.870   1.285   7.299 -0.3298 -0.2241  0.0637
   47MOL   C29815110   1.173   1.319   7.311  0.3584 -0.5979 -0.0001
   47MOL   H29915111   1.136   1.284   7.518 -0.3834  0.5806 -0.0421
   47MOL   H30015112   0.700   1.470   7.600 -1.8625  0.8155 -2.0241
   47MOL   H30115113   0.582   1.439   7.402  0.8606  1.0301  0.4912
   47MOL   H30215114   0.680   1.314   7.201 -1.5656 -1.4127  1.7235
   47MOL   H30315115   0.915   1.234   7.214 -0.5886 -2.2992  1.1458
   47MOL   H30415116   1.135   1.415   7.277 -0.3410  0.1880  2.8292
   47MOL   H30515117   1.160   1.250   7.228 -0.9199 -1.4917  0.9292
   47MOL   C30615118   1.322   1.343   7.348  0.2229 -0.4145  0.4050
   47MOL   C30715119   1.350   1.459   7.446  0.2009  0.3010  0.4859
   47MOL   C30815120   1.394   1.434   7.575  0.0432  0.1287 -0.1450
   47MOL  Cl30915121   1.407   1.270   7.646 -0.1932  0.0457  0.2466
   47MOL   C31015122   1.405   1.546   7.663 -0.5738 -0.9503  0.6406
   47MOL   C31115123   1.368   1.672   7.625 -0.4321 -0.5190  0.2337
   47MOL   C31215124   1.329   1.695   7.492 -0.0077  0.2065 -0.0192
   47MOL   C31315125   1.330   1.591   7.401 -0.5513 -0.0325 -0.6156
   47MOL   C31415126   1.416   1.357   7.230 -0.2288 -0.3835  0.1780
   47MOL   H31515127   1.362   1.252   7.393  0.8944  0.5128  1.6666
   47MOL   H31615128   1.426   1.538   7.769  0.9920  1.4010  0.5488
   47MOL   H31715129   1.382   1.750   7.699  0.7526  0.4550 -0.9896
   47MOL   H31815130   1.309   1.795   7.457 -2.1711 -0.8306 -1.8667
   47MOL   H31915131   1.292   1.604   7.301 -0.5231  1.2929 -0.4573
   47MOL   H32015132   1.409   1.448   7.170  1.6398 -2.2240 -2.9844
   47MOL   H32115133   1.389   1.274   7.165 -0.5405 -1.0173  1.1077
   47MOL   H32215134   1.523   1.351   7.253 -0.0695  2.3724  0.3868
   48MOL     C115135   0.702   0.274   3.977  0.5168 -0.7013 -0.6648
   48MOL     C215136   0.726   0.165   3.877  0.3470 -0.8083  0.0781
   48MOL     C315137   0.827   0.070   3.889 -0.1734 -0.5306  0.4501
   48MOL    Cl415138   0.952   0.091   3.997 -0.6191 -0.3402  0.1261
   48MOL     C515139   0.836   8.376   3.806 -0.5005  0.2183  0.2653
   48MOL     C615140   0.743   8.366   3.699 -0.3351  0.2011 -0.7265
   48MOL     C715141   0.649   0.050   3.679 -0.1751  0.3951  0.5187
   48MOL     C815142   0.639   0.161   3.769  0.4249 -0.3141  0.4108
   48MOL     C915143   0.581   0.245   4.067  0.4601  0.1406 -0.3194
   48MOL    H1015144   0.794   0.291   4.033  0.5458 -1.1235 -0.5773
   48MOL    H1115145   0.904   8.295   3.825  2.1398  1.7199 -2.3678
   48MOL    H1215146   0.738   8.274   3.642 -1.5217 -1.0607  1.3500
   48MOL    H1315147   0.585   0.039   3.593 -0.8158 -1.2280  1.1777
   48MOL    H1415148   0.570   0.241   3.748 -0.1507 -0.8368  0.2663
   48MOL    H1515149   0.593   0.154   4.125  0.2704 -0.3429 -1.0420
   48MOL    H1615150   0.502   0.234   3.993  0.3484  1.6707 -0.4484
   48MOL    H1715151   0.685   0.371   3.931 -1.0602 -0.8533 -0.4415
   48MOL    C1815152   0.543   0.358   4.168  0.3672  0.2658 -0.2742
   48MOL    C1915153   0.670   0.388   4.248 -0.0243 -0.4012 -0.4577
   48MOL    C2015154   0.739   0.513   4.231  0.3524  0.8999  0.0574
   48MOL   Cl2115155   0.702   0.623   4.101  0.1197  0.1030 -0.0987
   48MOL    C2215156   0.864   0.528   4.299 -0.0064  0.0691  0.4277
   48MOL    C2315157   0.915   0.429   4.387 -0.3430 -0.1349  0.1151
   48MOL    C2415158   0.841   0.312   4.408 -0.2913  0.2575 -0.2115
   48MOL    C2515159   0.713   0.296   4.352  0.0867 -0.1022  0.1619
   48MOL    C2615160   0.421   0.305   4.257 -0.0899  0.6900  0.4470
   48MOL    H2715161   0.514   0.441   4.104  1.8880  1.5575  0.6755
   48MOL    H2815162   0.923   0.618   4.289 -0.3485  0.1979 -0.4774
   48MOL    H2915163   1.008   0.447   4.439  0.8040 -2.3851 -1.0598
   48MOL    H3015164   0.883   0.244   4.480 -1.2660  1.1094  1.1815
   48MOL    H3115165   0.661   0.203   4.371 -0.8887  0.7187  1.6155
   48MOL    H3215166   0.436   0.347   4.356  0.3346  1.4988  0.0567
   48MOL    H3315167   0.440   0.199   4.270  2.6175  1.1051  0.2608
   48MOL    C3415168   0.276   0.320   4.214  1.1364 -0.9476 -0.4022
   48MOL    C3515169   0.241   0.254   4.083  0.6989 -0.2045  0.5692
   48MOL    C3615170   0.237   0.110   4.078  0.0879  0.8257  0.1705
   48MOL   Cl3715171   0.251   0.012   4.222 -0.0210  0.0244  0.1908
   48MOL    C3815172   0.222   0.044   3.954  0.7193 -0.2385  0.3049
   48MOL    C3915173   0.204   0.122   3.842 -0.5204 -0.2131 -0.0066
   48MOL    C4015174   0.207   0.263   3.841  0.4400 -0.0281  0.3690
   48MOL    C4115175   0.228   0.328   3.961 -0.3317  0.2612 -0.5120
   48MOL    C4215176   0.223   0.469   4.227 -0.0897  0.1597  0.0925
   48MOL    H4315177   0.226   0.270   4.297  1.3720 -1.8459 -0.7988
   48MOL    H4415178   0.226   8.357   3.949 -0.1900 -0.2060 -1.8426
   48MOL    H4515179   0.186   0.084   3.743 -4.2615  0.9651  0.1743
   48MOL    H4615180   0.196   0.315   3.748 -1.7293  1.3661  1.3618
   48MOL    H4715181   0.237   0.436   3.969 -0.8624  0.1651  1.8848
   48MOL    H4815182   0.280   0.520   4.149  2.3846 -1.6489  0.6534
   48MOL    H4915183   0.244   0.509   4.326 -2.5596  1.6654  0.0398
   48MOL    C5015184   0.070   0.488   4.200  0.0754 -0.1384  0.2587
   48MOL    C5115185   0.046   0.583   4.085 -0.1275 -1.1035 -0.1828
   48MOL    C5215186   8.384   0.553   3.973 -0.6318 -0.5218 -0.1287
   48MOL   Cl5315187   8.306   0.401   3.958 -0.2847 -0.0582 -0.2025
   48MOL    C5415188   8.360   0.645   3.868 -0.2640  0.2250 -0.0011
   48MOL    C5515189   8.409   0.775   3.878 -1.1892  0.0112 -0.0539
   48MOL    C5615190   0.082   0.810   3.984  0.3685 -0.6127  0.0575
   48MOL    C5715191   0.107   0.715   4.090 -0.2768  0.3900 -0.4781
   48MOL    C5815192   8.416   0.544   4.320 -0.6912  0.1174 -0.6819
   48MOL    H5915193   0.028   0.390   4.179  0.2699 -0.7110  2.4653
   48MOL    H6015194   8.292   0.612   3.791 -0.4609 -0.4887  0.4738
   48MOL    H6115195   8.392   0.847   3.799  1.3932  0.1296 -0.5531
   48MOL    H6215196   0.121   0.910   3.971 -0.3730 -0.5636 -1.9568
   48MOL    H6315197   0.163   0.735   4.179 -1.7478 -0.4297  0.6538
   48MOL    H6415198   8.313   0.570   4.292 -0.8248  1.0140  0.5727
   48MOL    H6515199   0.039   0.638   4.354 -0.9321  0.1252 -0.3904
   48MOL    C6615200   8.403   0.442   4.439  0.8490 -0.6666  0.8095
   48MOL    C6715201   8.325   0.308   4.402 -0.0156 -0.0348  0.2782
   48MOL    C6815202   8.361   0.185   4.456  0.1132 -0.3682  0.5650
   48MOL   Cl6915203   0.075   0.168   4.559  0.1224 -0.4189  0.1324
   48MOL    C7015204   8.280   0.077   4.425  0.6084  0.9915 -0.2298
   48MOL    C7115205   8.173   0.074   4.338  0.2707  0.4598 -0.6955
   48MOL    C7215206   8.131   0.198   4.293  0.3875 -0.4218 -0.6065
   48MOL    C7315207   8.208   0.312   4.322 -0.6752  0.2257 -0.7358
   48MOL    C7415208   8.348   0.510   4.566 -0.0594  0.1075 -0.4502
   48MOL    H7515209   0.085   0.412   4.460  0.9376  0.2378  1.7047
   48MOL    H7615210   8.306   8.406   4.477 -0.7954  0.3566 -0.6453
   48MOL    H7715211   8.115   8.405   4.321  0.3052  0.0447  1.2703
   48MOL    H7815212   8.048   0.197   4.224  0.2917  1.7687 -0.5665
   48MOL    H7915213   8.165   0.409   4.298  0.1021  1.2161  1.7539
   48MOL    H8015214   8.382   0.613   4.564  1.7115 -0.4424  0.2457
   48MOL    H8115215   8.399   0.452   4.643 -1.6131 -1.0069 -0.2275
   48MOL    C8215216   8.200   0.514   4.602 -0.3848  0.6788 -0.1961
   48MOL    C8315217   8.163   0.649   4.659 -0.0871 -0.3989  1.0130
   48MOL    C8415218   8.076   0.743   4.596  0.0497  0.3792 -0.9288
   48MOL   Cl8515219   7.989   0.712   4.450  0.0640  0.3164 -0.1633
   48MOL    C8615220   8.053   0.863   4.660  0.0231 -0.2334  0.1872
   48MOL    C8715221   8.118   0.894   4.776  0.3757 -0.2876  0.0984
   48MOL    C8815222   8.201   0.805   4.843 -0.1493  0.1872  0.0768
   48MOL    C8915223   8.224   0.683   4.784  0.2554  0.2235  0.0014
   48MOL    C9015224   8.159   0.388   4.688  0.2454 -0.1352  0.1034
   48MOL    H9115225   8.144   0.506   4.509 -2.7467 -1.8469  1.3457
   48MOL    H9215226   7.988   0.932   4.609 -0.2568  0.3316  1.3081
   48MOL    H9315227   8.102   0.994   4.813 -3.9452  0.1922 -2.6608
   48MOL    H9415228   8.253   0.829   4.935 -2.1120  1.0462  0.9986
   48MOL    H9515229   8.294   0.621   4.836 -0.2826 -1.0873 -0.8100
   48MOL    H9615230   8.200   0.390   4.789  1.6490  1.6646 -0.4745
   48MOL    H9715231   8.212   0.309   4.634  1.3048  0.1480  0.7140
   48MOL    C9815232   8.007   0.371   4.699 -0.4389 -0.6617 -0.2387
   48MOL    C9915233   7.960   0.251   4.780  0.2763  0.1138  0.3378
   48MOL   C10015234   7.875   0.264   4.894  0.9713 -0.0249  0.0835
   48MOL  Cl10115235   7.795   0.413   4.934 -0.2311  0.1238 -0.3149
   48MOL   C10215236   7.840   0.149   4.975 -0.3408  0.1530  0.6532
   48MOL   C10315237   7.880   0.021   4.937 -0.0875  0.1565 -0.2329
   48MOL   C10415238   7.949   0.004   4.816 -0.1184  0.7381  0.6934
   48MOL   C10515239   7.987   0.116   4.742 -0.3510  0.3025  0.5404
   48MOL   C10615240   7.934   0.382   4.563 -0.1611  0.3276  1.1605
   48MOL   H10715241   7.975   0.459   4.754  1.6518 -0.6342  0.9830
   48MOL   H10815242   7.794   0.173   5.070 -1.2528  0.8670  0.0365
   48MOL   H10915243   7.859   8.355   4.998  2.6394 -1.1013 -1.0044
   48MOL   H11015244   7.975   8.322   4.792  1.3989  1.3189 -0.2030
   48MOL   H11115245   8.043   0.106   4.650 -0.3990 -0.2773  0.5718
   48MOL   H11215246   7.999   0.327   4.496 -3.5707 -1.5867 -0.7135
   48MOL   H11315247   7.928   0.482   4.520 -1.5171  0.2339  1.1086
   48MOL   C11415248   7.788   0.326   4.552 -0.2044 -0.4730  0.2582
   48MOL   C11515249   7.776   0.275   4.404 -0.1177  0.1208 -0.4172
   48MOL   C11615250   7.764   0.142   4.377  0.5857  0.6078  0.5334
   48MOL  Cl11715251   7.776   0.026   4.502  0.2290 -0.2680  0.6047
   48MOL   C11815252   7.743   0.101   4.247  0.3639 -1.1244  0.1741
   48MOL   C11915253   7.737   0.200   4.142  0.0153  0.1763  0.1828
   48MOL   C12015254   7.743   0.337   4.176 -0.5633  0.1157  0.8129
   48MOL   C12115255   7.765   0.375   4.306  0.3482  0.3119  1.4755
   48MOL   C12215256   7.679   0.423   4.595 -0.3954  0.5171  0.3791
   48MOL   H12315257   7.768   0.244   4.621  0.2144 -0.6849  0.1276
   48MOL   H12415258   7.730   0.000   4.211 -0.2388 -1.5170  1.4812
   48MOL   H12515259   7.706   0.160   4.046  0.6743  0.7664 -0.2810
   48MOL   H12615260   7.721   0.414   4.103  0.5957  0.3826  0.7407
   48MOL   H12715261   7.779   0.477   4.337  1.3975  0.9694 -1.1001
   48MOL   H12815262   7.690   0.513   4.535 -1.2443 -0.0806 -0.6988
   48MOL   H12915263   7.693   0.436   4.702 -0.1176  1.2445  0.2524
   48MOL   C13015264   7.531   0.373   4.571  0.4860 -0.1717  0.4901
   48MOL   C13115265   7.448   0.490   4.623  0.7104  0.9110  0.5251
   48MOL   C13215266   7.399   0.593   4.542  0.0598 -0.3993  0.1278
   48MOL  Cl13315267   7.422   0.579   4.369 -0.3131  0.6540 -0.2291
   48MOL   C13415268   7.314   0.692   4.598 -0.1457 -0.1306 -0.0844
   48MOL   C13515269   7.291   0.689   4.738 -0.3068  0.1745  0.0943
   48MOL   C13615270   7.353   0.598   4.825 -0.2419  0.5039 -0.0156
   48MOL   C13715271   7.434   0.493   4.766 -0.1470 -0.4429 -0.4008
   48MOL   C13815272   7.495   0.232   4.642  0.0873  0.4045 -0.0629
   48MOL   H13915273   7.521   0.345   4.466  0.8770 -0.5096  0.5412
   48MOL   H14015274   7.273   0.773   4.538 -2.0622  0.0962  1.4954
   48MOL   H14115275   7.221   0.751   4.792  0.9465  1.4046  0.3420
   48MOL   H14215276   7.338   0.605   4.932 -0.7962  0.9763 -0.1239
   48MOL   H14315277   7.490   0.430   4.833 -0.6681 -1.1049 -0.5916
   48MOL   H14415278   7.514   0.246   4.748 -1.6704 -1.1519  0.4651
   48MOL   H14515279   7.564   0.165   4.592 -1.4260 -1.6308  0.5396
   48MOL   C14615280   7.353   0.177   4.617  0.9447  0.5729 -0.2791
   48MOL   C14715281   7.245   0.258   4.689 -0.5776  0.7233  0.1811
   48MOL   C14815282   7.151   0.335   4.622  0.4526  0.2397 -0.5892
   48MOL  Cl14915283   7.134   0.347   4.450  0.0435  0.1867 -0.1176
   48MOL   C15015284   7.066   0.417   4.693  0.6426  0.3081  0.7226
   48MOL   C15115285   7.064   0.421   4.833  0.3031  0.4225 -0.2725
   48MOL   C15215286   7.154   0.336   4.901  0.4329  0.5482 -0.3241
   48MOL   C15315287   7.239   0.249   4.833 -0.1959 -0.1599  0.0064
   48MOL   C15415288   7.347   0.024   4.641 -0.1851  0.5261 -0.0964
   48MOL   H15515289   7.333   0.196   4.512 -0.9043  0.5277  0.0445
   48MOL   H15615290   6.989   0.478   4.648 -0.0835 -0.0557  1.4562
   48MOL   H15715291   6.996   0.490   4.881 -1.6933 -0.3841 -1.8326
   48MOL   H15815292   7.158   0.349   5.008  1.7900  1.7395 -0.5116
   48MOL   H15915293   7.317   0.191   4.880 -0.8927 -0.6229  0.5738
   48MOL   H16015294   7.255   0.001   4.696  0.2963  0.5929  0.7412
   48MOL   H16115295   7.431   0.004   4.708  0.1259 -0.7329 -0.8608
   48MOL   C16215296   7.367   8.355   4.517  0.3354 -0.1768 -1.1035
   48MOL   C16315297   7.255   8.357   4.413 -0.2987 -0.0993  0.2936
   48MOL   C16415298   7.285   8.392   4.280 -0.0102 -0.6709  0.2833
   48MOL  Cl16515299   7.444   0.007   4.232 -0.0359  0.4366 -0.2724
   48MOL   C16615300   7.172   8.398   4.190  0.7169  0.2048 -0.5277
   48MOL   C16715301   7.041   8.359   4.222  0.0277  0.3388 -0.4654
   48MOL   C16815302   7.022   8.306   4.351 -0.0038 -0.0469  0.5320
   48MOL   C16915303   7.122   8.319   4.449  1.0655  0.2412  0.4028
   48MOL   C17015304   7.394   8.208   4.565 -0.6944 -0.1038 -0.1603
   48MOL   H17115305   7.456   8.404   4.478  0.3899  2.6669  2.3503
   48MOL   H17215306   7.201   8.418   4.088 -1.2695  1.1757 -0.9151
   48MOL   H17315307   6.961   8.353   4.150  1.4658  1.2194 -2.1623
   48MOL   H17415308   6.925   8.272   4.386 -0.3980  0.5886  0.0711
   48MOL   H17515309   7.080   8.295   4.546  0.7474  0.7796  0.4002
   48MOL   H17615310   7.298   8.163   4.590 -0.7356 -0.6436 -1.2653
   48MOL   H17715311   7.446   8.206   4.661 -0.6353  1.9799 -0.1197
   48MOL   C17815312   7.468   8.132   4.447  0.3143  0.4092 -0.0003
   48MOL   C17915313   7.402   7.994   4.434  0.4840  0.1608  0.8372
   48MOL   C18015314   7.331   7.949   4.315 -0.1921  0.1496  0.3613
   48MOL  Cl18115315   7.316   8.065   4.183  0.1960  0.1250  0.1032
   48MOL   C18215316   7.289   7.812   4.304  0.0926 -0.1624 -0.1030
   48MOL   C18315317   7.293   7.727   4.417  0.1475 -0.0771  0.4714
   48MOL   C18415318   7.344   7.774   4.539 -0.8613  0.3258 -0.3514
   48MOL   C18515319   7.394   7.902   4.546 -0.2433 -0.1070 -0.1161
   48MOL   C18615320   7.620   8.111   4.480 -0.4225 -0.0695  0.2818
   48MOL   H18715321   7.456   8.195   4.359 -0.9300  1.2197  0.7380
   48MOL   H18815322   7.256   7.757   4.217  0.6509 -1.3922  0.4581
   48MOL   H18915323   7.272   7.622   4.402 -0.0286  0.1474 -0.8944
   48MOL   H19015324   7.354   7.699   4.616 -0.7615  1.6949  0.9902
   48MOL   H19115325   7.432   7.937   4.641 -0.8086  0.0107  0.0716
   48MOL   H19215326   7.618   8.052   4.572 -0.4379 -1.4753 -0.6087
   48MOL   H19315327   7.670   8.203   4.509 -0.8469 -0.5143  2.5582
   48MOL   C19415328   7.685   8.033   4.360  0.2727 -0.5994 -0.1560
   48MOL   C19515329   7.825   7.970   4.396  0.3629  0.1394  0.1379
   48MOL   C19615330   7.853   7.831   4.366  0.5022 -0.4692 -0.6592
   48MOL  Cl19715331   7.733   7.715   4.314 -0.4421  0.1867 -0.1157
   48MOL   C19815332   7.980   7.782   4.378 -0.1197  0.2703  0.1172
   48MOL   C19915333   8.083   7.865   4.432  0.7426  0.0130 -0.6305
   48MOL   C20015334   8.063   8.002   4.459  0.5248 -0.0281  0.2382
   48MOL   C20115335   7.932   8.057   4.439 -0.1947  0.2352 -0.0904
   48MOL   C20215336   7.695   8.128   4.238 -0.0423  0.2280  0.4788
   48MOL   H20315337   7.616   7.954   4.331  0.0175 -0.1779 -0.6884
   48MOL   H20415338   7.996   7.676   4.366 -1.5336  0.1546 -0.9224
   48MOL   H20515339   8.183   7.827   4.451  0.3730 -0.5405  0.2060
   48MOL   H20615340   8.150   8.057   4.491 -0.2018  1.7924 -0.8422
   48MOL   H20715341   7.904   8.159   4.456 -1.5867  0.2005 -1.9855
   48MOL   H20815342   7.754   8.215   4.267 -0.8961  0.6785  0.8858
   48MOL   H20915343   7.595   8.160   4.209 -1.0328 -3.1394 -0.0495
   48MOL   C21015344   7.760   8.067   4.111 -0.4697 -0.2674 -0.6397
   48MOL   C21115345   7.817   8.180   4.020 -0.3518 -0.0629 -0.4231
   48MOL   C21215346   7.949   8.229   4.045 -0.7219  0.0881  0.1114
   48MOL  Cl21315347   8.057   8.156   4.157  0.2321 -0.2057  0.0222
   48MOL   C21415348   7.998   8.341   3.975 -0.6422 -0.1802 -0.3680
   48MOL   C21515349   7.920   8.406   3.877 -0.0503 -0.1585 -0.9322
   48MOL   C21615350   7.786   8.362   3.855  0.2449  0.2671 -0.8617
   48MOL   C21715351   7.734   8.249   3.926 -1.0141  0.4666  0.1771
   48MOL   C21815352   7.649   7.978   4.038  0.0623  0.3569  0.5206
   48MOL   H21915353   7.835   7.990   4.131 -1.3158 -0.8669  0.2557
   48MOL   H22015354   8.096   8.374   4.006  0.1378 -1.0408 -1.8499
   48MOL   H22115355   7.972   0.060   3.818 -0.2287  0.7699  0.0565
   48MOL   H22215356   7.722   8.410   3.783 -2.7371 -1.1077  0.7664
   48MOL   H22315357   7.632   8.215   3.915 -0.6481  0.0877 -2.4649
   48MOL   H22415358   7.560   8.034   4.009  0.7382  0.0406 -2.2954
   48MOL   H22515359   7.607   7.908   4.110  2.4698 -1.5002  0.1395
   48MOL   C22615360   7.695   7.900   3.904  0.3706  0.2727 -0.1427
   48MOL   C22715361   7.569   7.877   3.820 -0.4625  0.2687  0.7827
   48MOL   C22815362   7.549   7.934   3.686 -0.0007 -0.2458  0.1039
   48MOL  Cl22915363   7.663   8.049   3.616 -0.0027 -0.4733  0.0120
   48MOL   C23015364   7.442   7.889   3.606  0.6379 -0.4807 -0.3322
   48MOL   C23115365   7.353   7.789   3.659 -0.6313  0.2033 -0.8135
   48MOL   C23215366   7.368   7.737   3.791 -0.6018  0.0458 -0.0371
   48MOL   C23315367   7.475   7.781   3.864 -0.0604  0.4770 -0.2745
   48MOL   C23415368   7.787   7.781   3.935  0.4762  0.3117  0.2704
   48MOL   H23515369   7.750   7.977   3.850 -0.4744  1.5738  0.8005
   48MOL   H23615370   7.426   7.924   3.505 -0.1495 -1.6723 -0.6400
   48MOL   H23715371   7.266   7.754   3.605 -0.3191  2.1319 -2.6391
   48MOL   H23815372   7.295   7.673   3.839 -1.3374  0.2114 -0.9132
   48MOL   H23915373   7.471   7.755   3.969  0.8867 -0.3047 -0.4281
   48MOL   H24015374   7.750   7.701   3.871 -1.8272 -0.0449  2.0045
   48MOL   H24115375   7.762   7.746   4.035  1.1397  0.2386  0.4133
   48MOL   C24215376   7.938   7.801   3.907  0.5266 -0.1887  0.1781
   48MOL   C24315377   7.980   7.816   3.765 -0.2637  0.0258 -0.5508
   48MOL   C24415378   8.044   7.928   3.711  0.2881 -0.1942  0.7958
   48MOL  Cl24515379   8.095   8.067   3.807 -0.3670 -0.2727 -0.3256
   48MOL   C24615380   8.085   7.927   3.572 -0.5624  0.5486 -1.0077
   48MOL   C24715381   8.051   7.829   3.481 -0.3428  0.5892  0.2606
   48MOL   C24815382   7.994   7.711   3.531 -0.1000 -0.1837 -0.2535
   48MOL   C24915383   7.958   7.711   3.668  0.1245 -0.0330  0.2613
   48MOL   C25015384   8.013   7.683   3.973  0.2694  0.4949 -0.3085
   48MOL   H25115385   7.968   7.897   3.950  0.0225  0.3132 -0.5941
   48MOL   H25215386   8.136   8.014   3.534  0.2254  0.8839  0.7878
   48MOL   H25315387   8.075   7.838   3.376 -1.0696 -1.7373 -0.1366
   48MOL   H25415388   7.963   7.627   3.470 -2.3980  0.9778 -0.7199
   48MOL   H25515389   7.906   7.622   3.702  0.2673  1.2098  3.8916
   48MOL   H25615390   7.988   7.591   3.920  2.1000 -0.6098  0.6858
   48MOL   H25715391   7.979   7.667   4.075 -1.8414 -1.5762 -1.3096
   48MOL   C25815392   8.163   7.706   3.974  0.2833  0.0918 -0.7109
   48MOL   C25915393   8.234   7.576   3.995  0.3147 -0.0797  0.1723
   48MOL   C26015394   8.309   7.507   3.896 -0.5380  0.0144 -0.6523
   48MOL  Cl26115395   8.322   7.570   3.739  0.1337 -0.0414 -0.0077
   48MOL   C26215396   8.374   7.384   3.918  0.1246 -0.1958  0.5959
   48MOL   C26315397   8.366   7.330   4.043 -0.0413  0.5687 -0.0058
   48MOL   C26415398   8.284   7.390   4.143 -0.1238  0.3556  0.3242
   48MOL   C26515399   8.224   7.513   4.123  0.0451 -0.1586 -0.6851
   48MOL   C26615400   8.206   7.827   4.069  1.5162 -0.1185 -0.1121
   48MOL   H26715401   8.196   7.736   3.874  3.4401  1.1533  0.5811
   48MOL   H26815402   0.016   7.334   3.845 -0.3732  0.6275 -0.4100
   48MOL   H26915403   0.003   7.243   4.070  0.1142  0.0633 -1.9541
   48MOL   H27015404   8.288   7.344   4.241  1.9486 -0.3557 -0.0661
   48MOL   H27115405   8.164   7.551   4.204  0.9928  0.6020 -0.3329
   48MOL   H27215406   8.160   7.803   4.165 -0.8891  2.0574 -0.6400
   48MOL   H27315407   8.156   7.920   4.040  0.0703  0.2140  3.2000
   48MOL   C27415408   8.359   7.840   4.100  0.1334  0.3270  0.8176
   48MOL   C27515409   8.393   7.942   4.213  0.8702  0.0177  0.2584
   48MOL   C27615410   0.024   7.902   4.340 -0.6440 -0.0392 -0.4820
   48MOL  Cl27715411   0.039   7.733   4.388  0.4614  0.1881 -0.1224
   48MOL   C27815412   0.073   8.004   4.427  0.4496 -0.1378  0.0818
   48MOL   C27915413   0.056   8.140   4.395 -0.7629  0.5343  0.1126
   48MOL   C28015414   8.408   8.178   4.277 -0.3568 -0.0420  0.3490
   48MOL   C28115415   8.373   8.080   4.189  0.1854  0.3572  0.1549
   48MOL   C28215416   0.019   7.869   3.968 -0.0185  0.5965 -0.5915
   48MOL   H28315417   8.388   7.741   4.135  0.0653 -0.4050 -1.1442
   48MOL   H28415418   0.124   7.972   4.517 -0.6427 -2.6982 -0.1701
   48MOL   H28515419   0.077   8.206   4.478 -1.2624  0.2494  0.4679
   48MOL   H28615420   8.381   8.281   4.261 -0.7909  0.0561  1.6370
   48MOL   H28715421   8.328   8.106   4.094  2.2653  0.4922 -0.8068
   48MOL   H28815422   0.001   7.974   3.942 -0.2848  0.8167  0.4643
   48MOL   H28915423   8.400   7.807   3.887 -1.1033  1.8956 -1.0813
   48MOL   C29015424   0.176   7.841   3.979  1.0054 -0.6001  0.6949
   48MOL   C29115425   0.255   7.917   3.874  0.5243 -0.0952  0.1673
   48MOL   C29215426   0.333   8.032   3.899 -0.2293  0.4972  0.2546
   48MOL  Cl29315427   0.353   8.107   4.055 -0.0468 -0.1360  0.0226
   48MOL   C29415428   0.396   8.101   3.792  0.2008 -0.0311 -0.7175
   48MOL   C29515429   0.394   8.053   3.664 -0.1216 -0.1567 -0.6532
   48MOL   C29615430   0.324   7.934   3.640 -0.2277  0.5728 -0.6597
   48MOL   C29715431   0.253   7.870   3.741 -0.5226  0.5481  0.6139
   48MOL   C29815432   0.207   7.689   3.983 -0.0631  0.0638 -0.3327
   48MOL   H29915433   0.212   7.885   4.072 -0.3947  0.8483  0.5714
   48MOL   H30015434   0.451   8.191   3.817 -1.4207  0.4939  1.1440
   48MOL   H30115435   0.458   8.105   3.594 -0.8618 -0.1978 -1.3738
   48MOL   H30215436   0.324   7.890   3.541 -0.3010  1.0478 -0.8713
   48MOL   H30315437   0.198   7.780   3.716  1.0127 -0.0885 -0.6154
   48MOL   H30415438   0.195   7.657   3.880  1.3552 -0.6751 -0.2936
   48MOL   H30515439   0.141   7.644   4.057  1.4069  1.1307  1.7188
   48MOL   C30615440   0.344   7.641   4.035  0.3822  0.8389  0.4555
   48MOL   C30715441   0.376   7.671   4.181  0.7745 -0.6616 -0.2286
   48MOL   C30815442   0.320   7.598   4.288  0.7859  0.1220  0.6417
   48MOL  Cl30915443   0.198   7.483   4.274  0.0692  0.0545 -0.1228
   48MOL   C31015444   0.356   7.637   4.422  0.8628  0.0660  0.0902
   48MOL   C31115445   0.454   7.734   4.445 -0.0151 -0.1322 -0.3997
   48MOL   C31215446   0.514   7.804   4.338  0.5079 -0.1779 -0.5025
   48MOL   C31315447   0.477   7.772   4.205 -0.6298  0.6593 -0.0545
   48MOL   C31415448   0.464   7.671   3.935  1.0946 -0.1648 -0.2063
   48MOL   H31515449   0.327   7.534   4.025  1.2987  0.4937  2.3122
   48MOL   H31615450   0.305   7.580   4.497 -0.9146  1.2691 -0.1852
   48MOL   H31715451   0.483   7.756   4.546  0.5299 -2.4152 -0.0469
   48MOL   H31815452   0.589   7.880   4.354 -0.7653  1.2008 -0.9891
   48MOL   H31915453   0.523   7.826   4.123  1.5340 -2.0577 -0.7038
   48MOL   H32015454   0.436   7.630   3.837 -0.1499  1.9535 -0.7650
   48MOL   H32115455   0.548   7.619   3.980  0.6167 -0.4595  0.3597
   48MOL   H32215456   0.491   7.774   3.917 -1.9841  0.5788 -0.9780
   49MOL     C115457   3.511   5.649   6.919 -0.3827 -0.2230  0.3996
   49MOL     C215458   3.498   5.758   7.027 -0.5148  0.1043  0.4962
   49MOL     C315459   3.474   5.717   7.168  0.2522  0.8446 -0.5147
   49MOL    Cl415460   3.466   5.557   7.224  0.0406 -0.0070  0.4735
   49MOL     C515461   3.469   5.821   7.264 -0.3068  0.3518  0.5721
   49MOL     C615462   3.487   5.953   7.222  0.0151 -0.2068 -0.5760
   49MOL     C715463   3.511   5.991   7.087 -0.8594  0.6435 -0.2291
   49MOL     C815464   3.516   5.893   6.993 -0.1960  0.0439 -0.4503
   49MOL     C915465   3.656   5.612   6.886 -0.2157  0.3531  0.1339
   49MOL    H1015466   3.455   5.559   6.945  0.9444 -1.3715 -0.6120
   49MOL    H1115467   3.467   5.802   7.371 -2.1503  1.2606  0.7295
   49MOL    H1215468   3.495   6.035   7.292 -0.7792 -0.8689  0.2912
   49MOL    H1315469   3.529   6.096   7.072  3.0234  0.1816  0.7694
   49MOL    H1415470   3.551   5.927   6.896  0.1434  1.0005  0.0004
   49MOL    H1515471   3.689   5.547   6.967 -1.6738 -2.0382 -1.1320
   49MOL    H1615472   3.708   5.707   6.901 -0.1115 -0.0017  2.2103
   49MOL    H1715473   3.469   5.692   6.827 -0.5470 -1.7721 -0.2604
   49MOL    C1815474   3.689   5.554   6.747  0.4387  0.4344  0.1764
   49MOL    C1915475   3.823   5.479   6.759  0.1542  0.9058 -0.3059
   49MOL    C2015476   3.953   5.535   6.781 -0.1176  0.1889 -0.1533
   49MOL   Cl2115477   3.958   5.709   6.795 -0.0183  0.2708  0.0871
   49MOL    C2215478   4.069   5.462   6.793 -0.4448  0.3689 -0.6146
   49MOL    C2315479   4.062   5.323   6.780  0.0334  0.3597  0.7239
   49MOL    C2415480   3.938   5.258   6.762 -0.1182 -0.4396 -0.6578
   49MOL    C2515481   3.819   5.340   6.767  0.0420 -0.2655  0.1443
   49MOL    C2615482   3.670   5.662   6.635  0.7658  0.0667  0.1632
   49MOL    H2715483   3.616   5.475   6.728  1.2747 -0.1341 -0.7725
   49MOL    H2815484   4.164   5.510   6.810  0.2802 -1.4118  0.5143
   49MOL    H2915485   4.150   5.263   6.798 -0.1048  0.1403  0.6738
   49MOL    H3015486   3.926   5.150   6.762 -1.2421 -0.3205 -0.3903
   49MOL    H3115487   3.728   5.284   6.774  0.8553 -1.5914  0.2242
   49MOL    H3215488   3.716   5.752   6.676 -0.5325  0.7921  0.0833
   49MOL    H3315489   3.562   5.675   6.624  1.1329  0.9516 -2.7314
   49MOL    C3415490   3.741   5.625   6.500  0.1018  0.0350 -0.2163
   49MOL    C3515491   3.762   5.756   6.420  0.1150 -0.3642 -0.3738
   49MOL    C3615492   3.892   5.784   6.359  0.0666  0.3453 -0.6864
   49MOL   Cl3715493   4.020   5.663   6.367 -0.3615 -0.0976 -0.1482
   49MOL    C3815494   3.909   5.912   6.308 -1.0312  0.5064  0.1434
   49MOL    C3915495   3.799   6.000   6.290 -0.4663 -0.3998  0.5544
   49MOL    C4015496   3.670   5.964   6.338  0.2969 -0.0541 -0.6219
   49MOL    C4115497   3.656   5.845   6.408  0.7086 -1.0278  0.4370
   49MOL    C4215498   3.663   5.521   6.415 -0.3764 -0.3665  0.0453
   49MOL    H4315499   3.841   5.588   6.526  1.0809  1.3566 -1.9813
   49MOL    H4415500   3.999   5.926   6.250 -1.5078 -2.6084 -1.4579
   49MOL    H4515501   3.810   6.096   6.242 -0.5845 -0.0977  1.1288
   49MOL    H4615502   3.589   6.034   6.337  2.2299  2.2308 -0.6149
   49MOL    H4715503   3.564   5.827   6.461  0.0009  1.2439  0.0496
   49MOL    H4815504   3.576   5.574   6.375 -2.0974 -0.2829  3.6852
   49MOL    H4915505   3.610   5.444   6.472  0.8074 -2.1836 -1.2632
   49MOL    C5015506   3.740   5.451   6.304  0.1455 -0.6799 -0.0058
   49MOL    C5115507   3.647   5.411   6.188  0.0600 -0.5925  0.0448
   49MOL    C5215508   3.654   5.484   6.063  0.1568 -0.9740 -0.2362
   49MOL   Cl5315509   3.738   5.634   6.042  0.2677 -0.1935 -0.0883
   49MOL    C5415510   3.581   5.435   5.957 -0.2343 -0.0984 -0.2557
   49MOL    C5515511   3.497   5.324   5.968 -0.2579 -0.6206 -0.0525
   49MOL    C5615512   3.489   5.252   6.089 -0.2449 -0.5648 -0.4335
   49MOL    C5715513   3.558   5.296   6.203  0.5963  0.6389  0.2528
   49MOL    C5815514   3.817   5.328   6.364 -0.4405 -0.3787 -0.3355
   49MOL    H5915515   3.803   5.531   6.265  0.0541 -0.8236 -0.4524
   49MOL    H6015516   3.589   5.501   5.872  0.6954  1.0213  0.6795
   49MOL    H6115517   3.439   5.299   5.880 -1.0977  0.8712  0.0628
   49MOL    H6215518   3.412   5.177   6.100 -1.4471  0.8351  0.9253
   49MOL    H6315519   3.550   5.236   6.292  0.6947  1.1025  0.5706
   49MOL    H6415520   3.753   5.256   6.416 -0.0973 -1.1051 -0.9135
   49MOL    H6515521   3.882   5.355   6.448  1.6123 -2.2924 -1.2619
   49MOL    C6615522   3.900   5.242   6.262 -0.4059 -0.2977 -0.2809
   49MOL    C6715523   3.957   5.121   6.330 -0.1380 -0.0167 -0.1376
   49MOL    C6815524   3.908   4.991   6.304  0.2765  0.9228  0.5380
   49MOL   Cl6915525   3.761   4.961   6.211  0.0943 -0.0062  0.4015
   49MOL    C7015526   3.956   4.880   6.369 -0.1870 -0.4583 -0.2465
   49MOL    C7115527   4.060   4.893   6.466  0.1815 -0.2850 -0.0589
   49MOL    C7215528   4.125   5.018   6.478  0.8411 -0.5288 -0.1568
   49MOL    C7315529   4.064   5.133   6.421 -0.2497  0.4985  0.1392
   49MOL    C7415530   4.006   5.326   6.185  0.6094  0.2261  0.9222
   49MOL    H7515531   3.822   5.214   6.191 -0.8291 -1.1554  0.5256
   49MOL    H7615532   3.912   4.783   6.355  1.0962 -0.8620 -1.6068
   49MOL    H7715533   4.096   4.800   6.507 -2.0755 -1.9704 -1.7691
   49MOL    H7815534   4.214   5.035   6.537  0.6451  2.1710 -0.5732
   49MOL    H7915535   4.117   5.226   6.441 -1.5827  1.1418  0.7001
   49MOL    H8015536   4.068   5.373   6.260  1.0463  1.2780 -0.0796
   49MOL    H8115537   3.955   5.404   6.128  0.7615 -1.6370 -1.8482
   49MOL    C8215538   4.094   5.246   6.091  0.3731  0.7691  0.4236
   49MOL    C8315539   4.187   5.348   6.031 -0.3034 -0.3065  0.3073
   49MOL    C8415540   4.296   5.388   6.107 -0.5616  0.1765 -0.0925
   49MOL   Cl8515541   4.318   5.331   6.267  0.2237 -0.4340  0.2014
   49MOL    C8615542   4.388   5.477   6.051 -0.2682  0.3743 -0.1066
   49MOL    C8715543   4.376   5.529   5.921  1.1971  0.6065  0.0855
   49MOL    C8815544   4.266   5.496   5.846  0.3470  0.2473  0.5747
   49MOL    C8915545   4.174   5.404   5.899 -0.5687  0.0100 -0.1162
   49MOL    C9015546   4.009   5.170   5.977 -0.2459 -0.5439 -0.6856
   49MOL    H9115547   4.155   5.171   6.142  1.4154  1.0249 -0.4273
   49MOL    H9215548   4.466   5.508   6.119  0.0222 -1.1288  0.2646
   49MOL    H9315549   4.455   5.584   5.873 -0.2609  2.8173  0.1370
   49MOL    H9415550   4.266   5.553   5.754 -2.4035 -0.6952 -0.0498
   49MOL    H9515551   4.080   5.390   5.847 -0.6820 -0.0398  0.1023
   49MOL    H9615552   3.926   5.229   5.938  0.6244 -0.9018 -3.2357
   49MOL    H9715553   3.947   5.101   6.034  0.6649  0.6680  1.8405
   49MOL    C9815554   4.103   5.102   5.866  0.2911  0.6591 -0.5866
   49MOL    C9915555   4.043   5.084   5.732  0.0140 -0.5569  0.3231
   49MOL   C10015556   4.113   5.134   5.618 -0.0596  0.6030  0.0771
   49MOL  Cl10115557   4.264   5.212   5.614  0.3910  0.3863  0.2303
   49MOL   C10215558   4.055   5.122   5.491  1.2689  0.1881  0.1468
   49MOL   C10315559   3.934   5.055   5.473  0.5954 -0.2959 -0.1819
   49MOL   C10415560   3.867   5.003   5.586  0.0317  0.5682  0.8752
   49MOL   C10515561   3.918   5.021   5.713  0.5170  0.4437 -0.1793
   49MOL   C10615562   4.161   4.972   5.930 -0.1548  0.2715 -0.5468
   49MOL   H10715563   4.185   5.169   5.840  0.4589  1.1332  1.0894
   49MOL   H10815564   4.110   5.166   5.410  0.4910 -0.2475 -0.6264
   49MOL   H10915565   3.891   5.045   5.375 -1.1317  0.0406  0.5290
   49MOL   H11015566   3.774   4.950   5.572  1.2757 -0.9837 -1.9007
   49MOL   H11115567   3.866   4.986   5.801  2.8307 -1.3509  0.5034
   49MOL   H11215568   4.095   4.896   5.890 -1.1905  0.9663 -0.1736
   49MOL   H11315569   4.153   4.978   6.039 -0.6440  0.2538 -0.5798
   49MOL   C11415570   4.316   4.956   5.900 -0.5756  0.3741 -0.2988
   49MOL   C11515571   4.339   4.805   5.870  0.2122 -0.7631 -0.7369
   49MOL   C11615572   4.335   4.760   5.734 -0.2056  0.0072 -0.3571
   49MOL  Cl11715573   4.311   4.861   5.599  0.2978 -0.1751  0.5956
   49MOL   C11815574   4.343   4.619   5.712 -0.3097 -0.5585 -0.0708
   49MOL   C11915575   4.368   4.530   5.815 -0.4173  0.5563 -0.3174
   49MOL   C12015576   4.377   4.573   5.953 -0.1499 -0.3393 -0.1923
   49MOL   C12115577   4.363   4.716   5.978  0.0850  0.8081 -0.0090
   49MOL   C12215578   4.409   5.015   6.011  0.1960 -0.1297  0.9024
   49MOL   H12315579   4.349   5.001   5.806  0.7543  0.2510  0.1051
   49MOL   H12415580   4.345   4.588   5.609  2.4042 -0.3704 -0.0860
   49MOL   H12515581   4.369   4.425   5.793 -2.5256  0.1258  1.3945
   49MOL   H12615582   4.402   4.501   6.029  1.1956  1.4099  1.0539
   49MOL   H12715583   4.373   4.753   6.079 -1.3164 -0.9401  0.7851
   49MOL   H12815584   4.378   4.985   6.111 -1.9782 -0.8075  0.0579
   49MOL   H12915585   4.389   5.122   6.008  2.6952  0.3495 -1.6062
   49MOL   C13015586   4.557   4.985   6.015  0.3381  0.5055 -0.8098
   49MOL   C13115587   4.625   5.064   6.132  0.3518  0.2814  0.7325
   49MOL   C13215588   4.694   4.999   6.236 -0.8303  0.0452 -0.5935
   49MOL  Cl13315589   4.678   4.832   6.271 -0.4223  0.2146 -0.1546
   49MOL   C13415590   4.776   5.077   6.317  0.3052 -0.2339  0.4683
   49MOL   C13515591   4.786   5.215   6.305  0.8429 -0.4243 -0.5678
   49MOL   C13615592   4.710   5.282   6.207 -0.1256 -0.0267 -0.3621
   49MOL   C13715593   4.625   5.205   6.124  0.0417 -0.1976  0.1903
   49MOL   C13815594   4.611   5.015   5.872 -0.1930 -0.2576  0.3339
   49MOL   H13915595   4.564   4.878   6.033 -3.4287  0.4485  0.6568
   49MOL   H14015596   4.835   5.028   6.393  2.0182  2.1813  0.7530
   49MOL   H14115597   4.856   5.262   6.372  0.1480  1.4941 -1.1679
   49MOL   H14215598   4.707   5.389   6.196 -0.6788  0.0997  0.9625
   49MOL   H14315599   4.579   5.250   6.038 -0.1307 -1.2029 -0.2463
   49MOL   H14415600   4.560   5.102   5.830 -0.2408 -0.4637 -0.0278
   49MOL   H14515601   4.594   4.931   5.804 -0.0595  0.2159 -0.2823
   49MOL   C14615602   4.763   5.048   5.869  0.1063 -0.2976  0.4575
   49MOL   C14715603   4.806   5.096   5.725  0.1269 -0.6755 -0.1148
   49MOL   C14815604   4.905   5.194   5.704  0.1861  0.0095 -0.4460
   49MOL  Cl14915605   4.967   5.276   5.834  0.1448  0.1294  0.2194
   49MOL   C15015606   4.974   5.188   5.582  0.1906  0.0264  0.2404
   49MOL   C15115607   4.928   5.119   5.468 -0.1349 -0.1167  0.0915
   49MOL   C15215608   4.809   5.044   5.483  0.1084 -0.3319  1.0570
   49MOL   C15315609   4.756   5.022   5.608 -0.2217  0.3553 -0.2604
   49MOL   C15415610   4.838   4.918   5.910 -0.3651  0.7985 -0.8533
   49MOL   H15515611   4.777   5.132   5.937 -2.0704 -0.3609  1.0116
   49MOL   H15615612   5.066   5.240   5.560 -0.0903 -0.9307 -3.4642
   49MOL   H15715613   4.975   5.139   5.373  0.9370  2.8874  1.2056
   49MOL   H15815614   4.767   4.991   5.399  0.4799 -0.4750  0.9589
   49MOL   H15915615   4.685   4.941   5.617 -0.0088  0.0492 -1.3615
   49MOL   H16015616   4.815   4.844   5.834 -2.5239 -0.9374  1.4221
   49MOL   H16115617   4.802   4.884   6.007 -0.6452 -0.3841 -1.3666
   49MOL   C16215618   4.989   4.934   5.926  0.0177  0.1376 -0.2745
   49MOL   C16315619   5.073   4.798   5.932  0.1771 -0.4012  0.1100
   49MOL   C16415620   5.186   4.784   5.847  0.2075  0.7028 -0.1690
   49MOL  Cl16515621   5.208   4.876   5.706 -0.1708 -0.1679 -0.3254
   49MOL   C16615622   5.267   4.674   5.873 -0.2142  0.3695 -0.1065
   49MOL   C16715623   5.236   4.583   5.974 -0.6710 -0.1233  0.1609
   49MOL   C16815624   5.112   4.590   6.048  0.4417 -0.3950 -0.7882
   49MOL   C16915625   5.031   4.702   6.023 -0.4156  0.7996 -0.3808
   49MOL   C17015626   5.013   5.016   6.057  0.2530 -0.0448 -0.2511
   49MOL   H17115627   5.029   4.999   5.848  1.0405 -0.2035 -0.0451
   49MOL   H17215628   5.356   4.658   5.813  0.5452 -2.6146  1.6866
   49MOL   H17315629   5.306   4.509   6.010  2.2771  2.3520 -0.3048
   49MOL   H17415630   5.079   4.525   6.127  0.9171  0.7745  0.4121
   49MOL   H17515631   4.946   4.723   6.087  2.1612  0.7505  3.1814
   49MOL   H17615632   4.982   4.960   6.145  1.2074 -1.8279 -1.0042
   49MOL   H17715633   4.957   5.109   6.055  0.8050  0.2857 -0.3792
   49MOL   C17815634   5.163   5.049   6.093  0.5267  0.1753 -0.8052
   49MOL   C17915635   5.186   5.075   6.241  0.7749  0.5760 -0.1569
   49MOL   C18015636   5.270   4.995   6.328  0.2270  0.4819 -0.3993
   49MOL  Cl18115637   5.356   4.861   6.275 -0.1526  0.0587  0.1254
   49MOL   C18215638   5.289   5.038   6.463  0.2843  0.2666  0.0092
   49MOL   C18315639   5.214   5.150   6.511 -0.6559 -0.5534  0.1153
   49MOL   C18415640   5.124   5.222   6.432 -0.4596  0.1792  0.0153
   49MOL   C18515641   5.113   5.183   6.294 -0.2406  0.1406 -0.7296
   49MOL   C18615642   5.213   5.166   6.004 -0.0600  0.0583 -0.9475
   49MOL   H18715643   5.225   4.960   6.078  2.1069  0.6397  2.5024
   49MOL   H18815644   5.355   4.977   6.522  1.9450  0.2613 -1.7935
   49MOL   H18915645   5.253   5.180   6.607 -0.2936  0.1621 -0.2531
   49MOL   H19015646   5.073   5.300   6.486  0.5791 -0.8768  2.6106
   49MOL   H19115647   5.043   5.244   6.238  0.3910 -0.0521 -1.7403
   49MOL   H19215648   5.152   5.255   6.020 -0.4265 -0.4461  0.5595
   49MOL   H19315649   5.192   5.141   5.900 -0.9202  0.4014 -0.8532
   49MOL   C19415650   5.368   5.214   6.007  0.3731  0.3885  0.1200
   49MOL   C19515651   5.398   5.312   6.117  0.1884 -1.0557  0.2874
   49MOL   C19615652   5.496   5.292   6.213 -0.5494 -0.0533 -0.1439
   49MOL  Cl19715653   5.601   5.157   6.223  0.1264  0.0130  0.1999
   49MOL   C19815654   5.525   5.390   6.309  0.0801  0.2291 -0.1392
   49MOL   C19915655   5.441   5.498   6.315  0.9170  0.1670 -0.0663
   49MOL   C20015656   5.340   5.525   6.224 -0.2569 -0.0064 -0.6636
   49MOL   C20115657   5.317   5.432   6.118 -0.1545 -0.2579 -0.3527
   49MOL   C20215658   5.413   5.263   5.872  0.1794  0.4771 -0.0960
   49MOL   H20315659   5.432   5.126   6.020  1.2825  1.1463  0.8558
   49MOL   H20415660   5.596   5.388   6.390 -0.3226  2.8651  0.3237
   49MOL   H20515661   5.465   5.564   6.397  2.2928 -0.3185 -0.0614
   49MOL   H20615662   5.303   5.626   6.234  2.8188  1.2437 -1.2133
   49MOL   H20715663   5.231   5.458   6.058  1.2705 -1.0914 -2.8279
   49MOL   H20815664   5.488   5.338   5.899  1.1124 -0.6625  0.5012
   49MOL   H20915665   5.341   5.338   5.838  0.5906  0.6465 -0.6088
   49MOL   C21015666   5.458   5.153   5.773 -0.5185 -0.2182 -0.3192
   49MOL   C21115667   5.609   5.120   5.792 -0.5483 -0.1515 -0.2913
   49MOL   C21215668   5.656   4.997   5.842 -0.1586  0.0443  0.1980
   49MOL  Cl21315669   5.551   4.867   5.881  0.1989  0.0372  0.3112
   49MOL   C21415670   5.791   4.975   5.834 -0.3733 -1.0217 -0.3793
   49MOL   C21515671   5.893   5.073   5.803 -0.0780  0.6038  0.0994
   49MOL   C21615672   5.843   5.199   5.777  0.4963  1.1066 -0.5951
   49MOL   C21715673   5.705   5.223   5.769 -0.0003 -0.0112  0.0942
   49MOL   C21815674   5.431   5.187   5.625 -0.3750  0.1804  0.1404
   49MOL   H21915675   5.400   5.062   5.789  0.0414 -0.4549  0.4195
   49MOL   H22015676   5.829   4.882   5.874  0.3849 -0.7015 -0.3376
   49MOL   H22115677   5.998   5.052   5.815  0.0078  1.0228  0.0669
   49MOL   H22215678   5.907   5.285   5.759  2.4923  0.0427  1.1682
   49MOL   H22315679   5.678   5.324   5.744 -0.0412  0.1021  0.5771
   49MOL   H22415680   5.476   5.278   5.584  0.7586 -0.1270  0.6766
   49MOL   H22515681   5.323   5.201   5.624 -0.5499 -1.1129 -1.3168
   49MOL   C22615682   5.476   5.077   5.529  0.3280  1.0254  0.0755
   49MOL   C22715683   5.624   5.080   5.487 -1.1021 -0.1232  0.2949
   49MOL   C22815684   5.698   4.957   5.496  0.2097 -0.0486  0.6107
   49MOL  Cl22915685   5.634   4.809   5.549  0.1532  0.0128 -0.1678
   49MOL   C23015686   5.826   4.945   5.441 -0.0405  0.3535 -0.1125
   49MOL   C23115687   5.886   5.054   5.377  0.4411  0.3999  0.8686
   49MOL   C23215688   5.823   5.179   5.375  0.1536 -0.0130 -0.4382
   49MOL   C23315689   5.689   5.187   5.420 -0.0889 -0.4550  0.2317
   49MOL   C23415690   5.390   5.094   5.406  0.2610 -0.5410  0.6141
   49MOL   H23515691   5.456   4.982   5.579  1.4504  0.0018 -1.3870
   49MOL   H23615692   5.873   4.848   5.440 -0.0029  0.3642  0.5545
   49MOL   H23715693   5.988   5.048   5.342 -0.2083 -2.8194 -0.6078
   49MOL   H23815694   5.860   5.262   5.316  1.9148  0.1461  0.8336
   49MOL   H23915695   5.627   5.274   5.407 -0.1542 -0.3186  1.4383
   49MOL   H24015696   5.421   5.184   5.353  0.0925 -0.3120  0.9027
   49MOL   H24115697   5.285   5.107   5.430 -0.3390 -1.8422 -1.1667
   49MOL   C24215698   5.396   4.973   5.304 -0.1133 -0.1407 -0.8624
   49MOL   C24315699   5.396   5.028   5.163 -0.5086 -0.2887  0.3900
   49MOL   C24415700   5.510   5.029   5.079 -0.4829 -0.0186 -0.3815
   49MOL  Cl24515701   5.665   4.950   5.128  0.5170 -0.1160 -0.0057
   49MOL   C24615702   5.505   5.084   4.949 -0.1760  0.4776 -0.3485
   49MOL   C24715703   5.385   5.136   4.900 -0.2902 -0.4450 -0.0456
   49MOL   C24815704   5.271   5.143   4.979 -0.7319 -0.3733 -0.4567
   49MOL   C24915705   5.278   5.091   5.111 -0.2812 -0.6164  0.3452
   49MOL   C25015706   5.280   4.869   5.335  0.2205  0.4905  0.1934
   49MOL   H25115707   5.492   4.924   5.321  1.7582  3.2652 -1.0585
   49MOL   H25215708   5.593   5.060   4.891  0.2700 -0.6956  0.7797
   49MOL   H25315709   5.390   5.166   4.796  0.3876  0.8463  0.3483
   49MOL   H25415710   5.182   5.194   4.948  0.2429  1.5776 -0.1064
   49MOL   H25515711   5.192   5.097   5.175  0.9669 -0.7452  2.0863
   49MOL   H25615712   5.192   4.883   5.272  0.7348 -0.5253 -0.7557
   49MOL   H25715713   5.249   4.881   5.439  3.7706  2.0816  1.1432
   49MOL   C25815714   5.320   4.724   5.321  0.2041 -0.5542 -0.6672
   49MOL   C25915715   5.342   4.678   5.179  0.9996  0.5865  0.2170
   49MOL   C26015716   5.462   4.617   5.130  0.0461 -0.3860 -0.3497
   49MOL  Cl26115717   5.602   4.603   5.236 -0.0023  0.0910  0.4806
   49MOL   C26215718   5.469   4.562   5.005 -0.3313  0.4898 -0.0327
   49MOL   C26315719   5.357   4.561   4.921 -0.2577  0.6029 -0.2687
   49MOL   C26415720   5.243   4.629   4.960  0.4145 -0.3312 -0.9068
   49MOL   C26515721   5.235   4.687   5.088  0.5284  0.5147 -0.5484
   49MOL   C26615722   5.229   4.627   5.398  0.1618 -0.5738  0.6843
   49MOL   H26715723   5.415   4.726   5.375 -0.6632 -2.8690  0.9747
   49MOL   H26815724   5.561   4.508   4.984  1.1689  0.9483  4.7777
   49MOL   H26915725   5.360   4.502   4.830  0.1797  0.6314 -0.2723
   49MOL   H27015726   5.152   4.630   4.902  0.0470 -0.9907 -0.3498
   49MOL   H27115727   5.141   4.734   5.112  0.2693 -0.2170 -0.0974
   49MOL   H27215728   5.139   4.614   5.336 -1.1646  2.4621  1.8978
   49MOL   H27315729   5.202   4.662   5.497 -0.7871 -1.7681  0.8700
   49MOL   C27415730   5.275   4.483   5.411  0.2832  0.1389  0.0888
   49MOL   C27515731   5.154   4.392   5.436  1.2137  0.1633 -0.2511
   49MOL   C27615732   5.110   4.291   5.340 -0.5025  0.0478  0.1484
   49MOL  Cl27715733   5.200   4.272   5.193  0.1622 -0.0244  0.0450
   49MOL   C27815734   4.995   4.212   5.363 -0.1634 -0.6524 -0.0999
   49MOL   C27915735   4.924   4.229   5.484  0.0712 -0.0967  0.5517
   49MOL   C28015736   4.967   4.326   5.578 -0.3632  0.1163  0.0461
   49MOL   C28115737   5.076   4.410   5.550  0.2774 -0.2634  0.0075
   49MOL   C28215738   5.381   4.467   5.518 -0.3454 -0.1993 -0.0359
   49MOL   H28315739   5.321   4.455   5.317  0.7733  0.1793  0.3153
   49MOL   H28415740   4.972   4.129   5.298 -1.9079  0.8807 -1.5028
   49MOL   H28515741   4.851   4.154   5.511  0.8248 -1.6253 -1.6083
   49MOL   H28615742   4.916   4.330   5.673 -0.0064 -0.5386  0.2632
   49MOL   H28715743   5.106   4.485   5.621 -2.6222  0.7730  0.2004
   49MOL   H28815744   5.334   4.482   5.615 -1.4816  3.2685 -1.0343
   49MOL   H28915745   5.464   4.538   5.513  0.6863 -1.4803 -2.2655
   49MOL   C29015746   5.444   4.330   5.536 -0.1835 -0.4849  0.7928
   49MOL   C29115747   5.506   4.327   5.675 -0.3387 -0.0435  0.9275
   49MOL   C29215748   5.458   4.244   5.779  0.6868 -0.2196 -0.2676
   49MOL  Cl29315749   5.338   4.124   5.753  0.1058  0.2961 -0.0777
   49MOL   C29415750   5.522   4.248   5.905  0.0286 -0.6061 -0.4174
   49MOL   C29515751   5.626   4.339   5.931 -0.0728  0.0623 -0.4011
   49MOL   C29615752   5.662   4.432   5.830 -0.6335 -0.8694  0.3255
   49MOL   C29715753   5.611   4.418   5.700  0.0103 -0.3597 -0.7727
   49MOL   C29815754   5.544   4.311   5.416  0.0344  0.3510 -0.3944
   49MOL   H29915755   5.362   4.258   5.526 -0.8072  0.3176  0.0682
   49MOL   H30015756   5.494   4.176   5.980 -1.4617  0.0293 -0.3460
   49MOL   H30115757   5.682   4.338   6.023 -2.4397  1.8687  1.1023
   49MOL   H30215758   5.737   4.508   5.844 -2.0737  0.3637  1.5729
   49MOL   H30315759   5.645   4.486   5.625 -0.8916 -0.1926 -1.0398
   49MOL   H30415760   5.627   4.381   5.416  0.3629 -0.0331 -0.3753
   49MOL   H30515761   5.495   4.321   5.320  0.5384 -0.1987 -0.7112
   49MOL   C30615762   5.602   4.168   5.422 -0.1930 -0.5079  0.0940
   49MOL   C30715763   5.723   4.171   5.332 -0.1556 -0.5438  0.1367
   49MOL   C30815764   5.714   4.192   5.188  0.1354 -0.6195  0.0771
   49MOL  Cl30915765   5.567   4.208   5.097 -0.0345 -0.1641  0.0688
   49MOL   C31015766   5.828   4.189   5.113  0.2135 -0.3374 -0.6457
   49MOL   C31115767   5.953   4.168   5.179  0.1556 -0.0610  1.0961
   49MOL   C31215768   5.957   4.147   5.314  0.7071 -0.5771  0.0034
   49MOL   C31315769   5.848   4.153   5.398  0.2337 -0.3463  0.2338
   49MOL   C31415770   5.499   4.053   5.398 -0.0179 -0.5021 -0.4179
   49MOL   H31515771   5.624   4.163   5.529 -2.6038  1.4309  0.7482
   49MOL   H31615772   5.825   4.208   5.007 -0.9851 -0.8958 -0.7224
   49MOL   H31715773   6.047   4.153   5.129  1.2906  0.9846  2.8503
   49MOL   H31815774   6.052   4.127   5.362  1.1269  0.5117 -0.3393
   49MOL   H31915775   5.848   4.125   5.502 -0.1413 -0.4270  0.2150
   49MOL   H32015776   5.441   4.070   5.307 -0.2143 -1.6713 -0.5218
   49MOL   H32115777   5.424   4.050   5.477 -2.7854  2.6324 -2.8023
   49MOL   H32215778   5.547   3.955   5.404  1.1317  0.1782  2.0900
   50MOL     C115779   6.249   5.427   1.068 -0.9469 -0.8533 -0.0478
   50MOL     C215780   6.104   5.417   1.112 -0.2518 -1.1124  0.5872
   50MOL     C315781   6.001   5.373   1.025  0.4139 -0.0905 -0.5888
   50MOL    Cl415782   6.028   5.361   0.859 -0.0742  0.1125  0.2167
   50MOL     C515783   5.871   5.356   1.080 -0.1537 -0.1441 -0.6909
   50MOL     C615784   5.841   5.394   1.212  0.3049 -0.0171 -0.5299
   50MOL     C715785   5.942   5.444   1.299 -0.2579 -0.6061  0.1685
   50MOL     C815786   6.078   5.452   1.247 -0.1375  0.4506  0.2857
   50MOL     C915787   6.332   5.307   1.129 -0.3426 -0.4210 -0.6323
   50MOL    H1015788   6.256   5.443   0.961 -1.0944 -1.1293 -0.0995
   50MOL    H1115789   5.792   5.327   1.012 -2.3343  1.5782  1.0119
   50MOL    H1215790   5.738   5.380   1.241  0.3352 -0.2530 -0.5355
   50MOL    H1315791   5.919   5.471   1.401  0.2933 -2.4858  0.8042
   50MOL    H1415792   6.158   5.494   1.306 -0.0753 -0.2509  0.7132
   50MOL    H1515793   6.280   5.211   1.115 -0.8188 -0.1196 -0.9458
   50MOL    H1615794   6.337   5.313   1.238 -0.5147  0.7453 -0.6895
   50MOL    H1715795   6.297   5.518   1.103  0.1992 -0.1790 -3.2778
   50MOL    C1815796   6.479   5.288   1.081  0.6677 -0.0726  0.6556
   50MOL    C1915797   6.559   5.199   1.179 -0.6087  0.2747 -0.2135
   50MOL    C2015798   6.580   5.062   1.147  0.0512 -0.8374  0.0174
   50MOL   Cl2115799   6.524   4.998   0.995  0.0851 -0.0035 -0.3542
   50MOL    C2215800   6.655   4.974   1.229 -0.6229  0.5253 -0.8111
   50MOL    C2315801   6.694   5.027   1.347  0.6992  0.0951 -0.4578
   50MOL    C2415802   6.675   5.160   1.393 -0.2676  0.3082  0.5618
   50MOL    C2515803   6.604   5.244   1.307  0.4470 -0.3213  0.0673
   50MOL    C2615804   6.561   5.419   1.039  0.0301 -0.8646  0.4503
   50MOL    H2715805   6.469   5.235   0.987 -1.1373  0.0752  0.7428
   50MOL    H2815806   6.660   4.869   1.206 -1.7148  0.6842 -1.8373
   50MOL    H2915807   6.749   4.966   1.418 -0.6201 -1.0111 -0.3582
   50MOL    H3015808   6.702   5.191   1.493  1.7516 -1.3889  0.5697
   50MOL    H3115809   6.579   5.345   1.337  1.7929  0.5026 -1.4678
   50MOL    H3215810   6.581   5.474   1.131  0.7604  0.8692 -0.7296
   50MOL    H3315811   6.503   5.483   0.973  2.4676 -1.3135 -2.2089
   50MOL    C3415812   6.698   5.391   0.972  0.0642  0.2577 -0.4468
   50MOL    C3515813   6.811   5.345   1.057 -1.0271 -0.6044  0.3346
   50MOL    C3615814   6.889   5.227   1.035 -0.8153  0.5330  0.4548
   50MOL   Cl3715815   6.852   5.113   0.907 -0.7361 -0.2372  0.6114
   50MOL    C3815816   6.998   5.197   1.125 -0.2430 -0.1705  0.0742
   50MOL    C3915817   7.029   5.281   1.231 -0.0641  0.1328 -0.9282
   50MOL    C4015818   6.946   5.393   1.258 -0.3550 -0.0350  0.4898
   50MOL    C4115819   6.843   5.425   1.171  0.2167  0.3071  0.2234
   50MOL    C4215820   6.757   5.503   0.872 -0.1279 -0.2046  0.4110
   50MOL    H4315821   6.686   5.300   0.912  1.5609  0.6356 -1.3483
   50MOL    H4415822   7.050   5.104   1.106 -0.1592 -0.8362  3.3000
   50MOL    H4515823   7.112   5.262   1.298 -1.1447  2.0469  1.0081
   50MOL    H4615824   6.967   5.457   1.342 -0.6904  1.1931 -0.3571
   50MOL    H4715825   6.798   5.523   1.180  0.5454  0.4040  0.8564
   50MOL    H4815826   6.826   5.571   0.921  0.6344  0.7970 -2.0050
   50MOL    H4915827   6.688   5.582   0.842  1.6313  1.0910 -0.2486
   50MOL    C5015828   6.818   5.443   0.738  0.2832  0.0345  0.0355
   50MOL    C5115829   6.916   5.542   0.676  0.1577 -0.2413  0.2542
   50MOL    C5215830   7.052   5.507   0.648  0.2404 -0.1078 -0.1810
   50MOL   Cl5315831   7.112   5.350   0.670 -0.4574  0.2782  0.2962
   50MOL    C5415832   7.137   5.601   0.595  0.5042 -0.5305 -0.3214
   50MOL    C5515833   7.103   5.737   0.573  0.4017  0.0279 -0.8754
   50MOL    C5615834   6.972   5.776   0.603 -0.1854 -0.1183  1.1035
   50MOL    C5715835   6.878   5.676   0.654  0.4745  0.2399  0.6468
   50MOL    C5815836   6.708   5.402   0.635  0.1984  0.0576  0.5593
   50MOL    H5915837   6.868   5.354   0.775 -1.3759 -0.4785  1.1089
   50MOL    H6015838   7.241   5.574   0.581  0.5879 -0.7199  0.5898
   50MOL    H6115839   7.166   5.815   0.532 -0.8724  0.9165 -1.1687
   50MOL    H6215840   6.929   5.873   0.579 -1.6988 -1.5680 -2.3761
   50MOL    H6315841   6.778   5.712   0.672  0.5285  0.9924 -0.5036
   50MOL    H6415842   6.647   5.485   0.598  0.4964  0.9101  1.9444
   50MOL    H6515843   6.642   5.327   0.680 -0.4088 -1.4000 -2.5985
   50MOL    C6615844   6.763   5.330   0.501  0.8562  0.2398  0.1376
   50MOL    C6715845   6.674   5.356   0.371  0.4625 -0.7226 -0.1178
   50MOL    C6815846   6.727   5.374   0.247 -0.8355 -0.2389  0.2913
   50MOL   Cl6915847   6.889   5.319   0.231 -0.1483  0.1411  0.4113
   50MOL    C7015848   6.654   5.411   0.134 -0.7801  0.2801  0.0479
   50MOL    C7115849   6.516   5.425   0.146 -0.4868 -0.2217  1.1049
   50MOL    C7215850   6.456   5.410   0.274 -0.4859 -0.2181 -0.2862
   50MOL    C7315851   6.538   5.381   0.388 -0.3263 -0.3344  0.4999
   50MOL    C7415852   6.804   5.180   0.516 -0.9977 -0.3011  0.5503
   50MOL    H7515853   6.855   5.384   0.480  2.8765 -2.8613  0.6396
   50MOL    H7615854   6.705   5.408   0.039  1.7585  0.4204  1.3537
   50MOL    H7715855   6.459   5.464   0.063  0.7800  0.6342  0.6253
   50MOL    H7815856   6.353   5.442   0.282 -0.6263 -1.1000  1.6450
   50MOL    H7915857   6.492   5.381   0.486 -0.3838  1.3860  0.4898
   50MOL    H8015858   6.830   5.154   0.618  2.8316 -0.7781 -0.5054
   50MOL    H8115859   6.899   5.192   0.465 -1.9652  0.9808 -1.0081
   50MOL    C8215860   6.719   5.065   0.455 -0.4153 -0.1398 -0.0675
   50MOL    C8315861   6.569   5.072   0.489 -0.7785 -0.2265 -0.9426
   50MOL    C8415862   6.472   5.068   0.385 -0.2741  0.6720  0.0911
   50MOL   Cl8515863   6.520   5.027   0.227 -0.3283 -0.1502  0.1132
   50MOL    C8615864   6.343   5.099   0.409 -0.2784 -1.0246  0.1970
   50MOL    C8715865   6.298   5.115   0.545  0.2136 -0.0788  0.4158
   50MOL    C8815866   6.388   5.114   0.651 -1.0528 -0.3638  0.9116
   50MOL    C8915867   6.526   5.097   0.622 -0.0815 -0.2848  0.1458
   50MOL    C9015868   6.777   4.926   0.491  0.1139  0.7240 -0.1930
   50MOL    H9115869   6.732   5.087   0.348 -2.1611  0.0940 -0.2530
   50MOL    H9215870   6.269   5.111   0.331 -1.1286  0.6569  1.2213
   50MOL    H9315871   6.195   5.147   0.553 -0.4664 -0.4491 -4.8613
   50MOL    H9415872   6.352   5.127   0.752  1.1797 -0.3014  1.7247
   50MOL    H9515873   6.601   5.097   0.699  0.2770 -0.9661 -0.1988
   50MOL    H9615874   6.718   4.848   0.444  1.9139 -0.7908  0.0179
   50MOL    H9715875   6.749   4.909   0.595 -2.1761 -2.5106 -1.2462
   50MOL    C9815876   6.925   4.899   0.462 -0.5127  0.6086 -0.0171
   50MOL    C9915877   6.971   4.948   0.325  0.1787  0.3882  0.1029
   50MOL   C10015878   7.082   5.030   0.306 -0.1689 -0.4674  0.7422
   50MOL  Cl10115879   7.199   5.079   0.434 -0.4238 -0.0116  0.1013
   50MOL   C10215880   7.111   5.084   0.178 -0.0584 -0.1123  0.0263
   50MOL   C10315881   7.026   5.043   0.070 -0.4484  0.0053  0.4691
   50MOL   C10415882   6.920   4.953   0.092 -0.2259 -0.4363 -0.2147
   50MOL   C10515883   6.898   4.903   0.220  0.4331  0.6367  0.3660
   50MOL   C10615884   6.971   4.754   0.485 -0.1288 -0.3813  0.0148
   50MOL   H10715885   6.968   4.968   0.536  0.0358 -0.7811  0.9834
   50MOL   H10815886   7.196   5.149   0.162 -0.8366  0.6941 -0.8860
   50MOL   H10915887   7.055   5.080   8.393  0.1957  1.2109  1.0950
   50MOL   H11015888   6.869   4.917   0.004  0.3710 -2.1644  0.1180
   50MOL   H11115889   6.828   4.823   0.239  1.7853 -1.1577 -1.8596
   50MOL   H11215890   6.953   4.684   0.404 -0.9505 -0.8815  0.6151
   50MOL   H11315891   6.907   4.703   0.557 -1.8644 -0.9370 -1.8960
   50MOL   C11415892   7.117   4.727   0.526 -0.2606 -0.4697  0.2820
   50MOL   C11515893   7.140   4.575   0.521 -0.4108  0.3915 -0.5602
   50MOL   C11615894   7.233   4.525   0.431 -0.2992 -0.0842  0.6225
   50MOL  Cl11715895   7.286   4.622   0.293  0.1081 -0.3622  0.3054
   50MOL   C11815896   7.281   4.393   0.441 -0.2541  0.2385  0.0565
   50MOL   C11915897   7.234   4.308   0.540 -0.4641 -0.6720 -0.2717
   50MOL   C12015898   7.132   4.354   0.629  0.8084 -0.0884 -0.1690
   50MOL   C12115899   7.086   4.489   0.623  0.1809  0.1149 -0.1934
   50MOL   C12215900   7.158   4.790   0.662 -0.6508  0.3923 -0.0985
   50MOL   H12315901   7.176   4.784   0.454 -1.3291 -0.9021 -0.9696
   50MOL   H12415902   7.350   4.346   0.373 -0.1079 -1.3298  1.2607
   50MOL   H12515903   7.280   4.210   0.541 -0.0819 -0.5022 -0.9136
   50MOL   H12615904   7.098   4.282   0.702 -0.4558  0.2016 -0.4478
   50MOL   H12715905   7.021   4.534   0.697  1.5620  2.0865 -0.1525
   50MOL   H12815906   7.078   4.750   0.724  0.6086 -1.2449  0.5239
   50MOL   H12915907   7.156   4.899   0.658  0.0198  0.4092 -0.0383
   50MOL   C13015908   7.291   4.742   0.727  0.2281  0.4692 -0.0971
   50MOL   C13115909   7.297   4.790   0.873 -0.0429 -0.7619  0.3621
   50MOL   C13215910   7.308   4.699   0.975  0.7094  0.3382  0.9065
   50MOL  Cl13315911   7.311   4.527   0.947  0.2894 -0.5594  0.0267
   50MOL   C13415912   7.309   4.745   1.111 -0.4301 -0.0944 -0.0282
   50MOL   C13515913   7.309   4.880   1.149  0.5833  0.0694  0.1365
   50MOL   C13615914   7.297   4.968   1.036 -0.3883  0.7124 -0.2656
   50MOL   C13715915   7.282   4.924   0.907 -0.3110  0.5104 -0.5048
   50MOL   C13815916   7.410   4.784   0.634 -0.0234 -0.4821  0.4205
   50MOL   H13915917   7.294   4.633   0.728 -0.9545  0.4350  0.3469
   50MOL   H14015918   7.299   4.670   1.187  0.3292 -2.1798 -1.9213
   50MOL   H14115919   7.313   4.915   1.250  2.4057  1.9122 -0.5486
   50MOL   H14215920   7.295   5.074   1.060 -1.2648  1.1190 -2.0473
   50MOL   H14315921   7.270   5.002   0.832 -2.5509 -0.3011 -1.0338
   50MOL   H14415922   7.387   4.880   0.588 -2.6161 -0.4745  1.6146
   50MOL   H14515923   7.405   4.722   0.544 -0.3239  0.4242 -0.1903
   50MOL   C14615924   7.547   4.767   0.694  0.2751  0.6287  0.2370
   50MOL   C14715925   7.599   4.880   0.788  0.3508  0.8047 -0.4217
   50MOL   C14815926   7.667   4.843   0.908  0.5803  0.1974 -0.3211
   50MOL  Cl14915927   7.683   4.680   0.967 -0.1282 -0.0589  0.3864
   50MOL   C15015928   7.705   4.941   1.000  0.1414  1.0533  0.0248
   50MOL   C15115929   7.678   5.076   0.970 -0.1009 -0.1175 -0.2861
   50MOL   C15215930   7.619   5.113   0.843  0.1277  0.8144 -0.4391
   50MOL   C15315931   7.578   5.013   0.760  0.8513  0.0150  0.2860
   50MOL   C15415932   7.640   4.737   0.572  0.2957  0.3342 -0.0094
   50MOL   H15515933   7.546   4.675   0.752  0.1451 -0.5114 -1.5319
   50MOL   H15615934   7.748   4.923   1.097 -0.0577  0.9780  0.0989
   50MOL   H15715935   7.697   5.156   1.040 -0.9717  0.4691 -0.7025
   50MOL   H15815936   7.595   5.218   0.830 -1.3459  0.3946 -1.1222
   50MOL   H15915937   7.520   5.032   0.671 -1.2544  0.9177  1.7937
   50MOL   H16015938   7.656   4.819   0.502  3.5403  1.6606  2.1634
   50MOL   H16115939   7.603   4.651   0.515  0.2491  1.3510 -1.5466
   50MOL   C16215940   7.783   4.692   0.622 -0.5198  0.7850  0.5201
   50MOL   C16315941   7.877   4.810   0.664  0.7217 -0.1725  0.4793
   50MOL   C16415942   7.968   4.795   0.769  0.0261  0.0044 -0.6617
   50MOL  Cl16515943   7.990   4.650   0.862  0.4609  0.2726 -0.0529
   50MOL   C16615944   8.051   4.903   0.802 -0.9431  0.4447 -0.0306
   50MOL   C16715945   8.051   5.022   0.731  0.3701  0.5237 -0.2884
   50MOL   C16815946   7.967   5.031   0.618  0.3113  0.2659  0.3069
   50MOL   C16915947   7.875   4.932   0.587 -0.2506  0.3040 -0.0087
   50MOL   C17015948   7.852   4.604   0.507 -0.1812 -0.9596  0.2740
   50MOL   H17115949   7.780   4.623   0.707  0.7505  1.7772  1.3992
   50MOL   H17215950   8.123   4.888   0.881 -0.9671  1.0692  0.1139
   50MOL   H17315951   8.116   5.104   0.759  2.0339  0.6910 -4.2787
   50MOL   H17415952   7.967   5.120   0.556 -0.6820  0.8288  1.0902
   50MOL   H17515953   7.816   4.939   0.497  0.6601 -1.0846 -0.7314
   50MOL   H17615954   7.960   4.601   0.522 -0.4151  0.9994  2.5216
   50MOL   H17715955   7.831   4.652   0.411 -1.7742  0.0096  1.0880
   50MOL   C17815956   7.819   4.454   0.495 -0.3285  0.4651 -0.2161
   50MOL   C17915957   7.822   4.385   0.634 -0.8623 -0.6021  0.2165
   50MOL   C18015958   7.705   4.354   0.702 -0.3291  0.2168  0.2154
   50MOL  Cl18115959   7.547   4.391   0.642 -0.0248  0.2106 -0.3059
   50MOL   C18215960   7.721   4.291   0.828  0.1897  1.1057  0.9351
   50MOL   C18315961   7.845   4.260   0.883 -0.1519 -0.8752  0.2631
   50MOL   C18415962   7.960   4.301   0.816 -0.5012 -0.2795  0.6098
   50MOL   C18515963   7.951   4.361   0.687  0.7902  0.4875  0.8413
   50MOL   C18615964   7.908   4.374   0.391 -0.2285 -0.0405 -0.2206
   50MOL   H18715965   7.714   4.445   0.469 -0.0865  0.7435 -1.3114
   50MOL   H18815966   7.631   4.276   0.885 -1.4536  1.7576 -1.4193
   50MOL   H18915967   7.858   4.214   0.980  1.4111  1.4185  1.1760
   50MOL   H19015968   8.057   4.279   0.859  0.8544 -1.2314 -2.7280
   50MOL   H19115969   8.038   4.379   0.625 -0.3461 -0.2572 -1.0167
   50MOL   H19215970   7.900   4.265   0.396 -3.0845  0.1402 -0.1399
   50MOL   H19315971   8.013   4.401   0.408 -0.0802  0.3782 -1.6691
   50MOL   C19415972   7.878   4.408   0.244  0.2068 -0.3650  0.0827
   50MOL   C19515973   7.739   4.342   0.216 -0.3062  1.3454 -0.2800
   50MOL   C19615974   7.622   4.418   0.202 -0.2401  0.0365 -0.4389
   50MOL  Cl19715975   7.612   4.585   0.241 -0.3094  0.1825  0.0042
   50MOL   C19815976   7.501   4.350   0.163  0.3802 -0.8281  0.3444
   50MOL   C19915977   7.498   4.213   0.133  0.6160 -0.1787  0.5016
   50MOL   C20015978   7.616   4.143   0.155  0.1005  0.0349 -0.4238
   50MOL   C20115979   7.733   4.204   0.200 -0.9363 -0.3351  1.0012
   50MOL   C20215980   7.981   4.359   0.147 -0.3672  0.2844  0.2141
   50MOL   H20315981   7.871   4.515   0.225  0.4349  0.0819  2.4073
   50MOL   H20415982   7.413   4.407   0.138  2.1235  0.7527 -2.3900
   50MOL   H20515983   7.409   4.164   0.097  0.3132 -0.2155  1.3043
   50MOL   H20615984   7.628   4.037   0.138 -0.8374  0.0159 -1.0012
   50MOL   H20715985   7.813   4.136   0.225  0.3716  0.5777 -0.5753
   50MOL   H20815986   7.924   4.346   0.056 -3.2193  1.0937  1.8176
   50MOL   H20915987   8.003   4.255   0.170  1.0943  0.4291 -0.4918
   50MOL   C21015988   8.105   4.446   0.127  0.4674  0.4821  0.2786
   50MOL   C21115989   8.070   4.570   0.041 -0.2885 -0.1863  0.2203
   50MOL   C21215990   8.043   4.699   0.093 -0.3187  0.1569 -0.5607
   50MOL  Cl21315991   8.040   4.732   0.265 -0.0633  0.6339 -0.2259
   50MOL   C21415992   7.994   4.806   0.009  0.5845 -0.3924  0.5571
   50MOL   C21515993   7.992   4.783   8.287 -0.3560 -0.2276  0.2462
   50MOL   C21615994   8.035   4.664   8.224  0.2071 -0.2115 -0.0285
   50MOL   C21715995   8.064   4.558   8.318 -0.9963  0.4379  0.0901
   50MOL   C21815996   8.225   4.358   0.055  0.0704  0.3561 -0.2237
   50MOL   H21915997   8.144   4.467   0.226 -1.5449 -1.2511  1.4667
   50MOL   H22015998   7.965   4.902   0.050 -2.9430 -0.8878 -0.6249
   50MOL   H22115999   7.954   4.859   8.220  0.6144  0.2031  0.1676
   50MOL   H22216000   8.025   4.640   8.119  0.0532 -0.3989  0.0289
   50MOL   H22316001   8.082   4.463   8.270  1.9321  0.6242  0.7153
   50MOL   H22416002   8.311   4.419   0.031  0.4784 -0.2369 -0.2797
   50MOL   H22516003   8.184   4.329   8.379  1.5256 -0.7215 -0.5310
   50MOL   C22616004   8.274   4.231   0.121 -0.0154  0.3658 -0.2447
   50MOL   C22716005   8.280   4.248   0.276 -0.2405  0.1365 -0.0095
   50MOL   C22816006   8.216   4.174   0.377 -0.1557 -0.0951  0.5233
   50MOL  Cl22916007   8.103   4.052   0.323  0.1444 -0.2063 -0.1526
   50MOL   C23016008   8.230   4.200   0.515 -0.7971  0.8396 -0.2955
   50MOL   C23116009   8.323   4.290   0.562 -0.0717 -0.2990 -0.9421
   50MOL   C23216010   8.392   4.369   0.470 -0.0256  0.3361  0.0938
   50MOL   C23316011   8.370   4.349   0.331  0.3733  0.5536  0.1106
   50MOL   C23416012   8.412   4.191   0.073 -0.0943  0.2420  0.5290
   50MOL   H23516013   8.205   4.150   0.096 -0.3270  0.4201  0.4291
   50MOL   H23616014   8.177   4.141   0.588 -0.8948 -0.2165 -1.2137
   50MOL   H23716015   8.320   4.297   0.670 -0.7286 -2.7126 -0.7873
   50MOL   H23816016   0.040   4.444   0.506  0.7751 -1.1205  1.6895
   50MOL   H23916017   0.012   4.411   0.269  0.6895 -0.0224 -0.1419
   50MOL   H24016018   0.035   4.118   0.142 -0.0611  0.1949  0.4573
   50MOL   H24116019   0.058   4.278   0.069  0.2508  0.0152  1.0850
   50MOL   C24216020   8.406   4.151   8.341  0.2447 -0.5325 -0.2278
   50MOL   C24316021   8.312   4.023   8.325 -0.9418  0.4284  0.6761
   50MOL   C24416022   8.187   4.031   8.257 -0.2782  0.7223 -0.9418
   50MOL  Cl24516023   8.129   4.179   8.190 -0.7953  0.0022 -0.1905
   50MOL   C24616024   8.103   3.911   8.248  0.1569 -0.6019 -0.1538
   50MOL   C24716025   8.154   3.789   8.285 -0.0261 -0.4280  0.2384
   50MOL   C24816026   8.276   3.788   8.359 -0.2560 -0.0077 -0.3034
   50MOL   C24916027   8.352   3.901   8.381 -0.1617  0.2280  0.0829
   50MOL   C25016028   0.130   4.109   8.287  0.1905 -0.5878  0.6291
   50MOL   H25116029   8.375   4.234   8.277  1.9961 -1.6460 -2.6504
   50MOL   H25216030   8.008   3.909   8.196  0.5149  1.0231 -0.9080
   50MOL   H25316031   8.095   3.699   8.272 -3.8905  1.9352  0.5964
   50MOL   H25416032   8.287   3.695   8.413  0.2998  1.0190  1.3840
   50MOL   H25516033   0.009   3.899   0.036 -0.2326  1.7202  0.1973
   50MOL   H25616034   0.114   4.077   8.184 -0.5617  4.0364 -0.8129
   50MOL   H25716035   0.166   4.025   8.346 -4.2941 -3.5635 -0.5815
   50MOL   C25816036   0.238   4.227   8.296  0.3553  0.5310  0.3599
   50MOL   C25916037   0.179   4.357   8.244 -0.0230 -0.8625  0.3781
   50MOL   C26016038   0.183   4.474   8.320  0.3191  0.2777 -0.6019
   50MOL  Cl26116039   0.263   4.474   0.058 -0.2634 -0.4693  0.2320
   50MOL   C26216040   0.126   4.596   8.282  0.9572 -0.6547  0.1016
   50MOL   C26316041   0.064   4.602   8.156 -0.2313  0.5001  0.7457
   50MOL   C26416042   0.039   4.481   8.075  0.1321  0.0922  0.2001
   50MOL   C26516043   0.107   4.364   8.117  0.1232  0.2715  0.2962
   50MOL   C26616044   0.370   4.197   8.222  0.2520  0.1869 -0.1009
   50MOL   H26716045   0.255   4.237   8.403 -0.5864  1.2014  0.4599
   50MOL   H26816046   0.140   4.688   8.337  2.8932  0.2643 -1.8204
   50MOL   H26916047   0.019   4.695   8.124 -1.0901 -0.4374 -0.8419
   50MOL   H27016048   8.400   4.488   7.985 -0.1226  2.0525  0.4983
   50MOL   H27116049   0.096   4.277   8.054 -0.3712  0.2630  0.3938
   50MOL   H27216050   0.425   4.291   8.229 -2.3443  1.6691  1.2471
   50MOL   H27316051   0.352   4.182   8.116 -1.7121  0.2960  0.2015
   50MOL   C27416052   0.467   4.096   8.283 -0.2992 -0.3095 -0.0170
   50MOL   C27516053   0.497   4.135   0.001  0.4069 -0.1582 -0.6366
   50MOL   C27616054   0.449   4.071   0.117  0.6068  0.5132 -0.1798
   50MOL  Cl27716055   0.346   3.936   0.104  0.2751 -0.0924 -0.0737
   50MOL   C27816056   0.476   4.122   0.246 -0.3704 -0.2965 -0.6906
   50MOL   C27916057   0.532   4.246   0.263  0.7972 -0.0149 -0.6682
   50MOL   C28016058   0.588   4.307   0.154 -0.7735  0.5405 -0.6440
   50MOL   C28116059   0.581   4.246   0.025  0.0806 -0.3905 -0.2526
   50MOL   C28216060   0.593   4.068   8.200 -0.1780 -0.2218  0.2175
   50MOL   H28316061   0.408   4.004   8.282  2.5971 -2.2186 -2.3019
   50MOL   H28416062   0.448   4.076   0.340  1.4468  0.9482  0.4885
   50MOL   H28516063   0.541   4.280   0.365 -0.6993  0.6800 -0.7576
   50MOL   H28616064   0.643   4.399   0.156  0.9878 -0.4879 -1.0730
   50MOL   H28716065   0.625   4.290   8.357 -1.8564 -1.8657 -1.9875
   50MOL   H28816066   0.636   4.164   8.171 -0.8263 -0.0373 -0.1362
   50MOL   H28916067   0.567   4.037   8.099  1.9276  0.2468 -0.4934
   50MOL   C29016068   0.698   3.976   8.259  0.2730 -0.2933 -0.1120
   50MOL   C29116069   0.837   4.034   8.241 -0.8488  0.0714 -0.8037
   50MOL   C29216070   0.923   4.066   8.352 -0.3733  0.6105  0.2980
   50MOL  Cl29316071   0.869   4.051   0.089  0.1536 -0.4319  0.0825
   50MOL   C29416072   1.060   4.101   8.328 -0.2182 -0.2145  0.0372
   50MOL   C29516073   1.104   4.115   8.198 -0.2128 -0.0873  0.0774
   50MOL   C29616074   1.026   4.084   8.083  0.9673  0.6100 -0.3223
   50MOL   C29716075   0.890   4.047   8.104 -0.1889 -0.6919  0.4311
   50MOL   C29816076   0.706   3.833   8.207  0.6464 -0.3048 -0.0171
   50MOL   H29916077   0.678   3.963   8.366  0.3609  0.5770  0.0124
   50MOL   H30016078   1.126   4.116   8.413  1.2156 -1.0146 -0.9064
   50MOL   H30116079   1.206   4.146   8.185 -0.4050  1.3663  1.8213
   50MOL   H30216080   1.066   4.078   7.982 -0.6164 -1.7205 -0.8516
   50MOL   H30316081   0.829   4.017   8.020  1.4424  0.2995 -1.1284
   50MOL   H30416082   0.763   3.825   8.114 -0.8149 -1.6502 -0.8212
   50MOL   H30516083   0.608   3.791   8.188  0.2546  1.8703 -3.3069
   50MOL   C30616084   0.766   3.724   8.301  0.4173  0.8603 -0.7177
   50MOL   C30716085   0.804   3.605   8.223 -0.8725 -0.0434 -0.3852
   50MOL   C30816086   0.934   3.602   8.168  0.3678 -0.1834 -0.7956
   50MOL  Cl30916087   1.045   3.727   8.181  0.4145 -0.0208 -0.0291
   50MOL   C31016088   0.973   3.493   8.090  0.0502  0.0855 -0.3200
   50MOL   C31116089   0.881   3.394   8.053 -0.0581  0.9014  0.3914
   50MOL   C31216090   0.746   3.410   8.082  0.3797 -0.2784 -0.1470
   50MOL   C31316091   0.705   3.518   8.170 -0.4437  0.3254 -0.2174
   50MOL   C31416092   0.668   3.688   0.001 -0.2935 -0.1201  0.3496
   50MOL   H31516093   0.851   3.768   8.354 -1.3179  2.1471  1.0815
   50MOL   H31616094   1.076   3.496   8.056 -0.2624  1.6628 -1.1352
   50MOL   H31716095   0.915   3.308   7.998  0.6442  1.0104  0.6522
   50MOL   H31816096   0.663   3.350   8.047  0.6306 -0.8186  0.1743
   50MOL   H31916097   0.602   3.520   8.202 -0.0771  0.7684  0.9685
   50MOL   H32016098   0.642   3.761   0.078  0.1377  2.8054 -2.1802
   50MOL   H32116099   0.722   3.606   0.046 -0.1682  0.5938  1.5313
   50MOL   H32216100   0.572   3.648   8.388  0.4121 -1.2884 -0.3106
   51MOL     C116101   4.762   2.633   4.960 -0.4525  0.6550 -0.0016
   51MOL     C216102   4.815   2.758   4.896  0.2908  0.2727 -0.1673
   51MOL     C316103   4.756   2.817   4.783  0.4768 -0.3740  0.0819
   51MOL    Cl416104   4.607   2.766   4.713  0.1693  0.1389  0.0445
   51MOL     C516105   4.824   2.917   4.706  0.9405 -0.0298 -0.5140
   51MOL     C616106   4.948   2.961   4.752 -0.3377 -0.2239 -0.6963
   51MOL     C716107   5.004   2.910   4.869 -0.4135 -0.1303  0.0610
   51MOL     C816108   4.935   2.817   4.950 -0.2182  0.2171  0.4859
   51MOL     C916109   4.708   2.666   5.103 -0.1333 -0.1622  0.0394
   51MOL    H1016110   4.695   2.584   4.890  0.2212  0.2238 -0.3519
   51MOL    H1116111   4.778   2.955   4.617 -0.4098  0.3748  0.3355
   51MOL    H1216112   5.009   3.035   4.702 -0.9952  1.6857  1.2739
   51MOL    H1316113   5.101   2.951   4.892 -0.7470  0.4115  0.5270
   51MOL    H1416114   4.983   2.776   5.037 -0.4896 -0.5542  0.2716
   51MOL    H1516115   4.679   2.770   5.118 -0.0430 -0.2904  1.1294
   51MOL    H1616116   4.789   2.643   5.172  1.1128 -0.0760 -1.3569
   51MOL    H1716117   4.842   2.564   4.989 -0.0243  1.4241  0.6856
   51MOL    C1816118   4.594   2.569   5.135 -0.0818  0.9899 -0.1695
   51MOL    C1916119   4.461   2.597   5.062  0.3451 -0.2880 -0.6543
   51MOL    C2016120   4.412   2.508   4.960 -0.5775  0.1942 -0.2260
   51MOL   Cl2116121   4.504   2.364   4.910  0.5946 -0.0547  0.2280
   51MOL    C2216122   4.292   2.539   4.892 -0.0919 -0.3497  0.3520
   51MOL    C2316123   4.219   2.653   4.924  0.4350  0.1876 -0.4945
   51MOL    C2416124   4.258   2.737   5.029  0.4461  0.8232  0.8208
   51MOL    C2516125   4.376   2.704   5.097  0.1217 -0.4839 -0.4420
   51MOL    C2616126   4.568   2.570   5.293  0.5159 -0.0190  0.1265
   51MOL    H2716127   4.632   2.474   5.096 -0.5187  0.6582  0.2052
   51MOL    H2816128   4.249   2.471   4.819 -0.7128 -2.1935  2.3808
   51MOL    H2916129   4.130   2.673   4.866  1.2629 -0.1454 -1.9156
   51MOL    H3016130   4.194   2.819   5.056  0.4396  0.7075  1.1570
   51MOL    H3116131   4.402   2.768   5.180 -1.2897  0.0586 -0.4098
   51MOL    H3216132   4.461   2.554   5.308  1.2566 -3.8426  2.1312
   51MOL    H3316133   4.584   2.669   5.336 -2.1579  0.1854  0.7710
   51MOL    C3416134   4.652   2.461   5.368  0.7572  0.2004 -0.2075
   51MOL    C3516135   4.585   2.327   5.360  0.0099 -0.1409 -0.2251
   51MOL    C3616136   4.653   2.213   5.311 -0.0101 -0.8908  0.2870
   51MOL   Cl3716137   4.824   2.210   5.271 -0.0834  0.0296  0.0346
   51MOL    C3816138   4.583   2.089   5.305  0.3725 -0.1995 -0.4043
   51MOL    C3916139   4.449   2.084   5.344  0.0237  0.7266 -0.1675
   51MOL    C4016140   4.384   2.196   5.397 -0.1989 -0.0388  0.2739
   51MOL    C4116141   4.448   2.318   5.404 -0.6671 -0.0914  0.0565
   51MOL    C4216142   4.692   2.505   5.513 -0.0632 -0.7062  0.7130
   51MOL    H4316143   4.747   2.461   5.315 -1.2626  0.8818 -4.0237
   51MOL    H4416144   4.630   1.996   5.277  1.2430 -0.7525  2.6877
   51MOL    H4516145   4.404   1.987   5.332  1.8861 -0.0190 -1.2955
   51MOL    H4616146   4.279   2.185   5.419 -0.5161 -0.9873 -1.6690
   51MOL    H4716147   4.398   2.407   5.440  0.6325  0.8072 -0.2965
   51MOL    H4816148   4.752   2.418   5.540  0.6991 -0.2142  0.6169
   51MOL    H4916149   4.597   2.504   5.566  0.5830  1.9293  2.0179
   51MOL    C5016150   4.772   2.637   5.530 -0.0437  0.2215  0.1789
   51MOL    C5116151   4.894   2.647   5.441 -0.1738 -0.6601 -0.1024
   51MOL    C5216152   4.927   2.774   5.377  0.3710  0.3019 -0.1762
   51MOL   Cl5316153   4.829   2.915   5.394  0.5405  0.1316  0.2505
   51MOL    C5416154   5.041   2.788   5.300 -0.3085 -0.0297  0.2105
   51MOL    C5516155   5.123   2.673   5.275 -0.2321 -0.2245 -0.0423
   51MOL    C5616156   5.099   2.548   5.337  0.2395 -0.0437  0.5897
   51MOL    C5716157   4.984   2.536   5.425 -0.2987 -0.0371 -0.0957
   51MOL    C5816158   4.810   2.674   5.673 -0.4908  0.0010  0.3975
   51MOL    H5916159   4.691   2.707   5.505  0.2854  0.3730 -0.4869
   51MOL    H6016160   5.058   2.878   5.244 -1.1621 -0.7844 -1.2879
   51MOL    H6116161   5.210   2.691   5.213 -1.7140 -1.1798 -2.4352
   51MOL    H6216162   5.177   2.478   5.311 -1.2354 -1.6274  0.3752
   51MOL    H6316163   4.962   2.447   5.483  0.1682 -1.1328 -1.5920
   51MOL    H6416164   4.709   2.674   5.715 -0.1819  0.7663  1.1296
   51MOL    H6516165   4.838   2.779   5.680 -0.3390  0.1279 -1.6868
   51MOL    C6616166   4.911   2.580   5.734  0.3555 -0.5263  0.5208
   51MOL    C6716167   4.878   2.543   5.879  0.1811  0.2783 -0.0794
   51MOL    C6816168   4.885   2.408   5.929  0.8190 -0.1285  0.0490
   51MOL   Cl6916169   4.922   2.280   5.825 -0.0371 -0.0030  0.5307
   51MOL    C7016170   4.861   2.383   6.068 -0.9143  0.2628 -0.3052
   51MOL    C7116171   4.827   2.491   6.157 -0.3410  0.1587 -1.0706
   51MOL    C7216172   4.811   2.621   6.106  0.2635  0.2504 -0.3953
   51MOL    C7316173   4.840   2.644   5.975 -0.6538 -0.0722  0.1952
   51MOL    C7416174   5.049   2.651   5.720 -0.2808 -0.1941 -0.0810
   51MOL    H7516175   4.908   2.487   5.677 -0.7482 -1.0107  1.3434
   51MOL    H7616176   4.869   2.278   6.094 -1.6553  0.1955 -0.3242
   51MOL    H7716177   4.807   2.471   6.261 -0.1219  0.3564 -0.9889
   51MOL    H7816178   4.779   2.700   6.173  2.3485  0.8570 -0.0737
   51MOL    H7916179   4.830   2.747   5.944  0.0124  0.4408  1.6339
   51MOL    H8016180   5.054   2.742   5.779 -2.0360  1.0579 -1.7984
   51MOL    H8116181   5.054   2.684   5.616  2.6306  0.1196  0.1237
   51MOL    C8216182   5.176   2.561   5.771  0.8056 -0.0235  0.4031
   51MOL    C8316183   5.203   2.544   5.919  0.3876  0.0162 -0.0900
   51MOL    C8416184   5.265   2.433   5.980  0.4393 -0.3902  0.4164
   51MOL   Cl8516185   5.293   2.287   5.903 -0.0299  0.2417  0.0652
   51MOL    C8616186   5.293   2.432   6.122 -0.5041  0.7051 -0.7773
   51MOL    C8716187   5.250   2.531   6.206 -0.1926  0.0088  0.3467
   51MOL    C8816188   5.189   2.650   6.149 -0.5462  0.1753 -1.2541
   51MOL    C8916189   5.171   2.649   6.009 -0.2979 -0.1516 -0.4943
   51MOL    C9016190   5.300   2.606   5.691 -0.1387 -0.6590 -0.0250
   51MOL    H9116191   5.141   2.463   5.736  0.8699  0.3561 -0.7377
   51MOL    H9216192   5.339   2.348   6.171  0.3599  1.6412  0.0323
   51MOL    H9316193   5.259   2.513   6.312 -1.4072 -1.2325  0.2453
   51MOL    H9416194   5.155   2.728   6.216 -0.4621  0.2296 -1.2748
   51MOL    H9516195   5.116   2.733   5.969 -1.3426 -0.5529  0.0635
   51MOL    H9616196   5.282   2.605   5.583  0.4444  0.5558 -0.1477
   51MOL    H9716197   5.376   2.528   5.701 -0.5260 -0.9789  0.4046
   51MOL    C9816198   5.362   2.740   5.736 -0.3523  0.2183 -0.2641
   51MOL    C9916199   5.274   2.865   5.704 -0.1469 -0.1692  0.5345
   51MOL   C10016200   5.239   2.960   5.805  0.2327 -0.1847  0.1718
   51MOL  Cl10116201   5.285   2.938   5.966  0.0937 -0.4500 -0.4163
   51MOL   C10216202   5.176   3.090   5.770  0.4698  1.0117 -0.0131
   51MOL   C10316203   5.150   3.114   5.636  0.3586 -0.2638 -0.1808
   51MOL   C10416204   5.186   3.023   5.534 -0.0205 -0.2315 -0.7503
   51MOL   C10516205   5.244   2.896   5.570 -0.8025 -0.7676  0.7617
   51MOL   C10616206   5.506   2.750   5.673 -0.3196  0.2650  0.3422
   51MOL   H10716207   5.380   2.743   5.843 -0.5743 -1.7920 -0.1513
   51MOL   H10816208   5.143   3.161   5.844  1.2727  0.4072  0.9347
   51MOL   H10916209   5.094   3.202   5.607  0.7155 -0.4419 -1.4106
   51MOL   H11016210   5.167   3.049   5.431 -1.3454 -0.0630 -0.4708
   51MOL   H11116211   5.270   2.824   5.494 -1.3500 -0.7911  0.6003
   51MOL   H11216212   5.526   2.857   5.675  3.1555 -0.0683 -5.2664
   51MOL   H11316213   5.501   2.722   5.567  0.9956  2.1909 -0.2519
   51MOL   C11416214   5.622   2.670   5.742  0.3068 -0.5852 -0.4416
   51MOL   C11516215   5.615   2.684   5.898  1.2810 -0.4083 -0.7664
   51MOL   C11616216   5.620   2.571   5.988  0.0709 -0.3154  0.1687
   51MOL  Cl11716217   5.609   2.407   5.926 -0.2103  0.1944  0.1153
   51MOL   C11816218   5.610   2.596   6.127 -0.8486 -0.0551 -0.4771
   51MOL   C11916219   5.610   2.723   6.186 -0.5817 -1.3401  0.3482
   51MOL   C12016220   5.595   2.834   6.104  0.4552  0.1577 -0.7728
   51MOL   C12116221   5.606   2.816   5.959 -0.5302 -0.2656 -0.2764
   51MOL   C12216222   5.768   2.702   5.697 -0.0477  0.5713 -0.2126
   51MOL   H12316223   5.603   2.565   5.719  0.2221 -0.1471 -2.4556
   51MOL   H12416224   5.591   2.522   6.203 -0.6139  1.6168  1.2361
   51MOL   H12516225   5.598   2.736   6.292  0.5587  1.1187  0.2056
   51MOL   H12616226   5.594   2.926   6.160  0.6735  1.5650 -3.0152
   51MOL   H12716227   5.609   2.896   5.887  1.4484 -2.1035 -2.2980
   51MOL   H12816228   5.840   2.628   5.732 -0.0331  0.0075 -1.3912
   51MOL   H12916229   5.805   2.798   5.731  2.9630 -0.6938  0.2736
   51MOL   C13016230   5.782   2.698   5.541 -0.1025  0.4193  0.2206
   51MOL   C13116231   5.723   2.578   5.473  0.0382  0.1902 -0.8413
   51MOL   C13216232   5.629   2.580   5.370  0.2538  0.6063  0.1619
   51MOL  Cl13316233   5.549   2.723   5.303 -0.0214 -0.2116 -0.3637
   51MOL   C13416234   5.591   2.459   5.309 -0.2013 -0.2248  0.3991
   51MOL   C13516235   5.631   2.335   5.363 -0.1016 -0.1623  0.0328
   51MOL   C13616236   5.713   2.331   5.480 -0.2299 -0.2383 -0.8519
   51MOL   C13716237   5.769   2.453   5.524 -0.5433  0.4033  0.1894
   51MOL   C13816238   5.923   2.710   5.492 -0.5484 -0.2660  0.3675
   51MOL   H13916239   5.724   2.786   5.513 -1.6232 -0.5995  0.0805
   51MOL   H14016240   5.522   2.458   5.225 -0.3471 -0.7338  0.5215
   51MOL   H14116241   5.581   2.255   5.311  1.8945 -2.3318  1.2852
   51MOL   H14216242   5.743   2.233   5.515 -3.0181 -0.4185  1.1565
   51MOL   H14316243   5.842   2.445   5.604  0.3657 -0.4862 -0.7159
   51MOL   H14416244   5.925   2.708   5.383 -0.2753 -3.1966  0.3768
   51MOL   H14516245   5.978   2.621   5.522  0.0525 -0.1499 -0.3942
   51MOL   C14616246   6.003   2.838   5.539 -0.3148 -0.4650  0.5012
   51MOL   C14716247   5.949   2.960   5.459 -0.0924 -0.3409 -0.3681
   51MOL   C14816248   5.896   3.074   5.522 -0.3197  0.6441 -0.4467
   51MOL  Cl14916249   5.893   3.113   5.692 -0.0845 -0.5079  0.0934
   51MOL   C15016250   5.822   3.166   5.445 -1.2058  0.3084  0.5750
   51MOL   C15116251   5.815   3.163   5.299 -0.2058 -0.1220 -0.8395
   51MOL   C15216252   5.880   3.057   5.238 -0.3926 -0.2329 -0.1506
   51MOL   C15316253   5.947   2.959   5.319 -0.2878  0.6594  0.3956
   51MOL   C15416254   6.152   2.817   5.503 -0.2101 -0.0213  0.6924
   51MOL   H15516255   5.982   2.852   5.645  0.4021 -1.6824  0.8216
   51MOL   H15616256   5.771   3.245   5.499 -2.3304 -0.3256  0.4541
   51MOL   H15716257   5.769   3.237   5.235  0.4803 -1.9473 -3.4864
   51MOL   H15816258   5.894   3.058   5.131  1.7728 -6.9062 -0.1741
   51MOL   H15916259   6.001   2.876   5.276 -1.7353 -1.2226  2.0632
   51MOL   H16016260   6.160   2.770   5.405 -2.1140 -0.4447  0.7269
   51MOL   H16116261   6.195   2.739   5.567  0.3081 -0.4707 -0.1898
   51MOL   C16216262   6.249   2.944   5.506 -0.4603  0.0221 -0.1639
   51MOL   C16316263   6.387   2.898   5.461 -0.0668  0.5968  0.4527
   51MOL   C16416264   6.446   2.937   5.338 -0.2580 -0.0761 -0.4651
   51MOL  Cl16516265   6.355   3.027   5.219 -0.1390  0.0120  0.1600
   51MOL   C16616266   6.571   2.885   5.292  0.8405  0.8649 -0.0037
   51MOL   C16716267   6.649   2.799   5.380 -0.5872  0.6470 -0.3787
   51MOL   C16816268   6.603   2.771   5.504 -0.0870 -0.9386  0.1897
   51MOL   C16916269   6.474   2.815   5.546 -0.2613 -0.3450 -0.6560
   51MOL   C17016270   6.262   3.011   5.645  0.6290  0.5143  0.3921
   51MOL   H17116271   6.212   3.023   5.441  0.1097  1.5953  1.3895
   51MOL   H17216272   6.622   2.913   5.201 -0.3194 -1.2894 -1.3587
   51MOL   H17316273   6.752   2.767   5.368 -0.8294 -1.1638  2.0304
   51MOL   H17416274   6.664   2.717   5.575 -1.4548 -1.2320  1.1719
   51MOL   H17516275   6.439   2.785   5.644  2.7827 -0.0576  0.5623
   51MOL   H17616276   6.312   2.943   5.713 -0.6605  0.8627  1.7102
   51MOL   H17716277   6.165   3.029   5.692  0.5511 -0.9104  0.8015
   51MOL   C17816278   6.325   3.155   5.668  0.3073  0.3158  0.3781
   51MOL   C17916279   6.457   3.177   5.590 -0.2524  0.1618  0.2821
   51MOL   C18016280   6.458   3.240   5.467  0.7220  0.0119  0.0324
   51MOL  Cl18116281   6.321   3.317   5.396 -0.2679  0.0707  0.2804
   51MOL   C18216282   6.570   3.240   5.391  0.5060  0.3336  0.3646
   51MOL   C18316283   6.680   3.162   5.430 -0.4018  0.2740  0.3541
   51MOL   C18416284   6.690   3.111   5.559 -0.1815 -0.6448 -0.0080
   51MOL   C18516285   6.580   3.127   5.644 -0.5465  0.1915  0.0071
   51MOL   C18616286   6.338   3.191   5.819 -0.1208 -0.4255 -0.1455
   51MOL   H18716287   6.242   3.217   5.633  0.1486  0.8676  1.6969
   51MOL   H18816288   6.566   3.294   5.297 -0.3228 -0.6338 -0.1678
   51MOL   H18916289   6.764   3.143   5.364 -0.3359  1.4181  0.1011
   51MOL   H19016290   6.771   3.045   5.586  0.8141  0.0610 -1.2236
   51MOL   H19116291   6.588   3.068   5.734 -0.0334 -0.1974 -0.2884
   51MOL   H19216292   6.413   3.128   5.867 -0.1262 -0.6814 -0.4693
   51MOL   H19316293   6.241   3.167   5.864 -0.8026  0.7235 -0.9703
   51MOL   C19416294   6.376   3.333   5.858 -0.5566  0.7404  0.4711
   51MOL   C19516295   6.366   3.350   6.004 -0.2149 -0.8229 -0.2705
   51MOL   C19616296   6.469   3.319   6.088 -0.6624  0.4576  0.4373
   51MOL  Cl19716297   6.600   3.233   6.034  0.1825  0.0728  0.1421
   51MOL   C19816298   6.463   3.348   6.228 -0.7211 -0.7109  0.9409
   51MOL   C19916299   6.351   3.410   6.280 -0.3130 -0.0594  0.6610
   51MOL   C20016300   6.241   3.438   6.200 -0.0975  0.2962 -0.1756
   51MOL   C20116301   6.252   3.405   6.064  0.3144 -0.2456  0.5290
   51MOL   C20216302   6.302   3.435   5.770 -0.7371  0.0917 -0.1885
   51MOL   H20316303   6.483   3.328   5.834 -0.5972  2.4910 -0.1239
   51MOL   H20416304   6.550   3.325   6.287 -0.8228 -1.1187  0.9373
   51MOL   H20516305   6.346   3.438   6.384  2.3349  1.2375  0.4848
   51MOL   H20616306   6.156   3.491   6.239 -0.0969  0.2269 -0.0808
   51MOL   H20716307   6.164   3.422   6.003  1.6280  0.1872 -1.2576
   51MOL   H20816308   6.194   3.426   5.777 -0.7252  0.4805  0.6001
   51MOL   H20916309   6.334   3.412   5.669 -1.8539  0.5875 -0.6551
   51MOL   C21016310   6.330   3.585   5.790 -0.1449  0.3219 -0.1488
   51MOL   C21116311   6.239   3.672   5.702 -0.1155  0.2843 -0.0449
   51MOL   C21216312   6.156   3.766   5.767 -0.1341  0.5703  0.7168
   51MOL  Cl21316313   6.147   3.781   5.938  0.2109  0.4681  0.4104
   51MOL   C21416314   6.080   3.853   5.684 -0.6768  0.2859  0.0537
   51MOL   C21516315   6.076   3.837   5.542  0.5335  0.5382 -0.3594
   51MOL   C21616316   6.170   3.750   5.483  0.1219 -0.0559 -0.0868
   51MOL   C21716317   6.252   3.669   5.565 -0.0590  0.5939  0.9630
   51MOL   C21816318   6.481   3.613   5.763 -0.3350 -0.1374 -0.3946
   51MOL   H21916319   6.308   3.597   5.896 -0.2480 -0.9183 -0.0277
   51MOL   H22016320   6.008   3.924   5.721 -2.0293 -0.8080 -0.4180
   51MOL   H22116321   6.013   3.893   5.474 -1.2222 -1.1217 -0.1387
   51MOL   H22216322   6.166   3.726   5.378 -0.7848 -1.3910  0.2433
   51MOL   H22316323   6.320   3.607   5.509  1.1935  2.7611 -0.0001
   51MOL   H22416324   6.518   3.588   5.663  1.2376 -2.2356  0.6777
   51MOL   H22516325   6.551   3.563   5.830 -1.2597  1.1147  1.5456
   51MOL   C22616326   6.510   3.764   5.783 -0.4085  0.0005 -0.3908
   51MOL   C22716327   6.641   3.808   5.721  0.1715  0.0724  0.2176
   51MOL   C22816328   6.639   3.889   5.603 -0.3250 -0.5946 -0.4222
   51MOL  Cl22916329   6.494   3.950   5.529  0.1437 -0.1189 -0.0507
   51MOL   C23016330   6.760   3.935   5.545 -0.3064 -0.5442 -0.7400
   51MOL   C23116331   6.885   3.904   5.603  0.7385  0.0414 -0.4251
   51MOL   C23216332   6.891   3.823   5.721  0.4663  0.4899  0.6171
   51MOL   C23316333   6.769   3.780   5.778  0.4235 -0.2238 -0.1011
   51MOL   C23416334   6.503   3.798   5.936  0.5543  0.6332 -0.2007
   51MOL   H23516335   6.432   3.816   5.728  0.7209  0.2405 -1.7773
   51MOL   H23616336   6.755   4.001   5.460 -0.8198  0.2984 -0.0703
   51MOL   H23716337   6.971   3.939   5.546  1.7666 -0.1939  0.9618
   51MOL   H23816338   6.986   3.787   5.757 -0.2657  0.6729  2.8083
   51MOL   H23916339   6.763   3.706   5.857 -0.7511 -3.6896 -3.2820
   51MOL   H24016340   6.576   3.734   5.984  0.1706 -1.1329 -1.9016
   51MOL   H24116341   6.412   3.763   5.984  0.1170  0.5573 -1.0765
   51MOL   C24216342   6.530   3.946   5.962 -0.4250  0.2423  0.2399
   51MOL   C24316343   6.569   3.970   6.112  0.1743 -0.0141 -0.8684
   51MOL   C24416344   6.694   4.020   6.151 -0.5687  0.1430  0.0966
   51MOL  Cl24516345   6.823   4.044   6.040 -0.2179 -0.2493  0.4870
   51MOL   C24616346   6.718   4.057   6.287 -0.3775 -0.3762 -0.3032
   51MOL   C24716347   6.624   4.025   6.387  0.4225  0.0203  0.3683
   51MOL   C24816348   6.503   3.963   6.348  0.2472 -0.1362 -0.0142
   51MOL   C24916349   6.477   3.937   6.213 -0.7152 -0.0198 -0.1514
   51MOL   C25016350   6.410   4.033   5.920  0.7140 -0.5406  0.5825
   51MOL   H25116351   6.614   3.989   5.906  0.1238  0.2611  1.0577
   51MOL   H25216352   6.811   4.106   6.313 -1.1505  1.0769 -0.2442
   51MOL   H25316353   6.646   4.036   6.492  0.5049 -0.6181  0.4235
   51MOL   H25416354   6.435   3.922   6.422  1.3296 -4.1894 -1.1504
   51MOL   H25516355   6.381   3.899   6.181 -1.5349  1.8302  0.0333
   51MOL   H25616356   6.335   4.022   5.998  0.9147 -1.0722  0.7075
   51MOL   H25716357   6.362   3.998   5.828  1.2295  1.7699 -0.6107
   51MOL   C25816358   6.432   4.190   5.913 -0.5288  0.2144  0.6518
   51MOL   C25916359   6.295   4.263   5.947  0.1130 -0.0799  0.0385
   51MOL   C26016360   6.290   4.370   6.040  0.3767 -0.0133 -0.5880
   51MOL  Cl26116361   6.421   4.416   6.137  0.2539  0.3278  0.2934
   51MOL   C26216362   6.170   4.443   6.057 -0.2177  0.2083  0.0524
   51MOL   C26316363   6.057   4.410   5.982  0.0048 -0.7995  0.5264
   51MOL   C26416364   6.055   4.301   5.896 -0.7910  0.1367  0.4827
   51MOL   C26516365   6.176   4.231   5.873  0.1218 -0.1683 -0.7467
   51MOL   C26616366   6.481   4.227   5.769  0.7540  0.8677  0.1865
   51MOL   H26716367   6.511   4.220   5.982  1.4745 -2.6121 -0.3506
   51MOL   H26816368   6.158   4.511   6.140  1.0995  1.0469 -0.4355
   51MOL   H26916369   5.965   4.467   5.988  2.1949  3.0785 -0.4574
   51MOL   H27016370   5.964   4.274   5.845 -0.3820 -1.2359  0.4573
   51MOL   H27116371   6.176   4.153   5.798 -0.6423  1.0315 -2.0316
   51MOL   H27216372   6.398   4.227   5.698 -1.4422  1.2658  2.6613
   51MOL   H27316373   6.544   4.148   5.730 -0.6175 -0.0390 -0.1883
   51MOL   C27416374   6.565   4.353   5.743  0.7511  0.6421  0.4116
   51MOL   C27516375   6.714   4.340   5.783 -0.7316  0.9536  0.7429
   51MOL   C27616376   6.820   4.309   5.684  0.6249 -0.7118  0.4549
   51MOL  Cl27716377   6.781   4.298   5.517 -0.2880  0.0048 -0.1767
   51MOL   C27816378   6.955   4.307   5.721  0.1133  0.0134  0.8770
   51MOL   C27916379   6.983   4.332   5.857  0.0241  0.7580  0.2509
   51MOL   C28016380   6.885   4.371   5.949 -0.2466 -0.4623  0.3417
   51MOL   C28116381   6.751   4.375   5.911  0.3876  0.5825  0.2932
   51MOL   C28216382   6.500   4.493   5.758  0.1385  0.4418  0.6419
   51MOL   H28316383   6.568   4.338   5.635 -0.6556  1.5666  0.2304
   51MOL   H28416384   7.036   4.285   5.653  1.4811  0.8623  2.1886
   51MOL   H28516385   7.082   4.320   5.899  0.0674  0.7051  0.1342
   51MOL   H28616386   6.917   4.402   6.047  0.5800 -0.5944  0.1194
   51MOL   H28716387   6.679   4.420   5.978 -0.4586  2.3310 -1.7171
   51MOL   H28816388   6.564   4.561   5.700 -0.6328 -1.3630 -2.4494
   51MOL   H28916389   6.498   4.529   5.861  2.3072  0.6753  0.6341
   51MOL   C29016390   6.372   4.513   5.680  0.0404 -0.6619  0.0765
   51MOL   C29116391   6.399   4.516   5.527 -0.0150 -0.1837 -0.0494
   51MOL   C29216392   6.354   4.418   5.432  0.1687 -0.8345  0.6967
   51MOL  Cl29316393   6.253   4.289   5.483 -0.0426  0.4695  0.0434
   51MOL   C29416394   6.372   4.440   5.295  0.0693  0.2162  0.8028
   51MOL   C29516395   6.450   4.552   5.250 -0.3194  0.1416 -0.4982
   51MOL   C29616396   6.493   4.646   5.348  0.6694 -0.2067  0.7705
   51MOL   C29716397   6.464   4.633   5.484 -0.0529  0.2477  0.1873
   51MOL   C29816398   6.279   4.634   5.725  0.2374  0.4016 -0.4461
   51MOL   H29916399   6.316   4.421   5.697 -1.0736 -0.0581 -0.2082
   51MOL   H30016400   6.329   4.372   5.224 -1.7886  1.6434  0.5073
   51MOL   H30116401   6.469   4.576   5.147 -0.4043  1.3417 -0.2426
   51MOL   H30216402   6.555   4.724   5.308  1.9069 -0.5840  1.9068
   51MOL   H30316403   6.497   4.708   5.554 -0.8189  1.8209 -1.1080
   51MOL   H30416404   6.324   4.729   5.694 -1.3976  1.2673 -0.2636
   51MOL   H30516405   6.285   4.640   5.834 -0.8555 -1.2210 -0.2826
   51MOL   C30616406   6.134   4.623   5.698 -0.4565  0.3067  0.3564
   51MOL   C30716407   6.090   4.626   5.553 -0.2523 -0.3071 -0.0799
   51MOL   C30816408   5.997   4.534   5.502 -0.3194 -0.0275 -0.0101
   51MOL  Cl30916409   5.923   4.420   5.599  0.0550  0.0116 -0.0012
   51MOL   C31016410   5.957   4.538   5.366  0.0722 -0.0504 -0.4824
   51MOL   C31116411   6.008   4.634   5.281 -0.3088 -0.3179  0.2650
   51MOL   C31216412   6.090   4.733   5.330 -0.0174  0.4173 -0.1318
   51MOL   C31316413   6.128   4.732   5.466 -0.1083  0.7015 -0.2655
   51MOL   C31416414   6.052   4.713   5.789  0.5117  0.3910  0.2773
   51MOL   H31516415   6.111   4.524   5.738  1.3700 -0.7279 -1.0855
   51MOL   H31616416   5.891   4.459   5.334  1.0611 -1.5294  1.0338
   51MOL   H31716417   5.994   4.632   5.174  0.8428  1.8722  0.0580
   51MOL   H31816418   6.134   4.805   5.263 -1.7344 -0.9271 -2.7967
   51MOL   H31916419   6.197   4.812   5.488 -0.9743  1.3873 -0.0054
   51MOL   H32016420   6.069   4.818   5.764 -0.0131  0.1310 -1.1730
   51MOL   H32116421   6.062   4.707   5.898 -2.1180 -1.7382  0.4459
   51MOL   H32216422   5.947   4.691   5.771  0.6205  1.5702 -1.9570
   52MOL     C116423   8.106   5.370   3.247 -0.6891  0.6360  0.1979
   52MOL     C216424   8.021   5.246   3.252  0.8758  0.1857  0.0490
   52MOL     C316425   7.876   5.270   3.249 -0.2105 -0.1329 -0.6126
   52MOL    Cl416426   7.811   5.425   3.221  0.4529 -0.1212 -0.3032
   52MOL     C516427   7.791   5.165   3.270 -0.5422  0.0406 -0.2524
   52MOL     C616428   7.846   5.039   3.299 -0.0625  0.2078 -0.2867
   52MOL     C716429   7.983   5.010   3.303  0.1767  0.1607  0.0085
   52MOL     C816430   8.075   5.114   3.278  0.2896 -0.6869  0.2036
   52MOL     C916431   8.115   5.428   3.384  0.9692  0.1302  0.0985
   52MOL    H1016432   8.207   5.348   3.211 -0.7566  0.7009 -0.0307
   52MOL    H1116433   7.684   5.179   3.271 -0.6640 -0.8054  1.7555
   52MOL    H1216434   7.777   4.956   3.310 -0.1291  0.6560  3.0872
   52MOL    H1316435   8.021   4.910   3.315  2.5766  0.8433 -1.5599
   52MOL    H1416436   8.182   5.101   3.288  0.0404 -2.2211  1.0296
   52MOL    H1516437   8.186   5.367   3.441  2.1774  0.3394 -1.1587
   52MOL    H1616438   8.022   5.429   3.441  1.5279  2.8988  1.0553
   52MOL    H1716439   8.067   5.434   3.167  0.1752 -0.6899 -1.3053
   52MOL    C1816440   8.172   5.572   3.382 -0.3652  0.1911  0.1957
   52MOL    C1916441   8.313   5.587   3.319  0.0316 -0.9588 -0.0101
   52MOL    C2016442   8.333   5.667   3.199  0.6978  0.2591  0.6159
   52MOL   Cl2116443   8.207   5.755   3.130 -0.0594  0.4403 -0.3010
   52MOL    C2216444   0.043   5.668   3.141 -0.5880  0.1202 -0.0102
   52MOL    C2316445   0.150   5.599   3.198  0.0906  0.3186  0.0205
   52MOL    C2416446   0.132   5.525   3.315 -0.9330  0.2449  0.0050
   52MOL    C2516447   8.419   5.513   3.369 -0.2602  0.0533  0.0531
   52MOL    C2616448   8.167   5.623   3.537  0.3324  0.8194  0.1997
   52MOL    H2716449   8.093   5.635   3.341 -1.2112 -0.8025  0.2827
   52MOL    H2816450   0.060   5.726   3.051 -4.1076 -3.1136 -2.9585
   52MOL    H2916451   0.242   5.605   3.141 -0.0812  0.4233 -0.2461
   52MOL    H3016452   0.223   5.481   3.352 -0.4128  1.8982  0.7373
   52MOL    H3116453   8.413   5.450   3.456  1.0304  1.1172  0.9396
   52MOL    H3216454   8.256   5.673   3.575  0.6493 -0.4917  1.1939
   52MOL    H3316455   8.144   5.547   3.611 -0.2076 -0.9500 -1.7402
   52MOL    C3416456   8.054   5.721   3.573  0.3281  0.3333 -0.4313
   52MOL    C3516457   8.074   5.848   3.494 -0.4819  0.4225  0.4013
   52MOL    C3616458   7.988   5.887   3.388 -0.1137 -0.6108 -0.2608
   52MOL   Cl3716459   7.840   5.797   3.359  0.4453  0.2059  0.1208
   52MOL    C3816460   8.011   6.004   3.312  0.7004 -0.0832 -0.6181
   52MOL    C3916461   8.126   6.080   3.341  0.3267  0.6341 -0.3740
   52MOL    C4016462   8.217   6.042   3.439  0.5877 -0.0083 -0.4287
   52MOL    C4116463   8.192   5.927   3.519  0.0826  0.3931  0.1527
   52MOL    C4216464   8.031   5.748   3.735  0.2853  0.4070  0.1344
   52MOL    H4316465   7.968   5.672   3.528  1.4651 -2.0560 -0.0935
   52MOL    H4416466   7.944   6.040   3.236 -0.9616 -1.0622  0.3392
   52MOL    H4516467   8.140   6.176   3.293  0.3203  0.8721  0.0956
   52MOL    H4616468   8.293   6.114   3.463 -0.0975  0.2659  0.9484
   52MOL    H4716469   8.266   5.927   3.598 -0.2270  1.9745  0.4705
   52MOL    H4816470   7.978   5.842   3.749  0.0082  0.4685 -1.2626
   52MOL    H4916471   8.136   5.756   3.764 -0.0919  1.8144  1.1825
   52MOL    C5016472   7.984   5.636   3.830  0.9299  0.0154 -0.3574
   52MOL    C5116473   7.835   5.604   3.802 -0.3327 -0.2651  0.1167
   52MOL    C5216474   7.793   5.486   3.739 -0.4989 -1.2886  0.2879
   52MOL   Cl5316475   7.916   5.369   3.701  0.1025 -0.3355 -0.1171
   52MOL    C5416476   7.661   5.450   3.721 -0.0202 -0.1962  0.2475
   52MOL    C5516477   7.566   5.543   3.763  0.1158  0.9101 -0.0945
   52MOL    C5616478   7.596   5.658   3.828 -0.7581 -0.1000  0.2252
   52MOL    C5716479   7.731   5.692   3.850 -0.0748 -0.7038  0.5561
   52MOL    C5816480   8.021   5.656   3.979  0.0718 -1.0037 -0.0823
   52MOL    H5916481   8.047   5.548   3.817 -0.9603 -1.6821  1.5749
   52MOL    H6016482   7.644   5.353   3.675 -0.5130 -0.2440  0.5168
   52MOL    H6116483   7.464   5.515   3.738  0.6794 -1.9564  0.6113
   52MOL    H6216484   7.525   5.732   3.863 -0.5371 -1.2237  3.1915
   52MOL    H6316485   7.743   5.788   3.899 -0.4681  0.6263 -1.9002
   52MOL    H6416486   7.978   5.749   4.015  0.8611 -1.2915  1.6387
   52MOL    H6516487   8.129   5.663   3.985 -0.0990  1.4176  0.5575
   52MOL    C6616488   7.969   5.527   4.060 -0.8896 -0.8874  0.3702
   52MOL    C6716489   7.838   5.555   4.133  0.0470 -0.3901  0.7683
   52MOL    C6816490   7.741   5.452   4.139  0.4991  0.4186  0.2796
   52MOL   Cl6916491   7.741   5.312   4.044 -0.0160 -0.1350  0.3880
   52MOL    C7016492   7.619   5.476   4.210  1.0070 -0.2402 -0.6022
   52MOL    C7116493   7.595   5.590   4.281  0.5453 -0.6322 -0.6120
   52MOL    C7216494   7.695   5.693   4.281 -0.5718 -0.6144  0.0025
   52MOL    C7316495   7.818   5.673   4.211 -0.0871 -0.8086 -0.0809
   52MOL    C7416496   8.069   5.489   4.172 -0.0017 -0.4063  0.1368
   52MOL    H7516497   7.955   5.440   3.996 -0.0001 -0.4911 -0.3910
   52MOL    H7616498   7.538   5.406   4.201 -0.7327  1.9404 -2.5840
   52MOL    H7716499   7.503   5.586   4.338  1.9037 -0.1396  1.6652
   52MOL    H7816500   7.677   5.778   4.345 -2.6870  1.1492 -2.8323
   52MOL    H7916501   7.896   5.745   4.232 -1.3075  0.5359 -0.1252
   52MOL    H8016502   8.026   5.395   4.209 -1.0686  0.5154  1.2822
   52MOL    H8116503   8.059   5.554   4.259 -3.0931 -1.0146  0.3107
   52MOL    C8216504   8.214   5.447   4.129  0.2621 -1.5474 -0.4261
   52MOL    C8316505   8.214   5.353   4.004 -0.4000 -0.2470 -0.1646
   52MOL    C8416506   8.271   5.397   3.880 -0.0249  1.2057  0.1425
   52MOL   Cl8516507   8.360   5.537   3.856  0.1140  0.2976 -0.2843
   52MOL    C8616508   8.267   5.311   3.773  0.1542 -0.5073  0.0786
   52MOL    C8716509   8.219   5.179   3.780  0.1232 -0.3017 -1.2434
   52MOL    C8816510   8.170   5.135   3.903  0.4744  0.7424 -0.3544
   52MOL    C8916511   8.159   5.223   4.014 -0.0412  0.1422  0.0340
   52MOL    C9016512   8.297   5.395   4.247  0.6900 -0.4582  0.5948
   52MOL    H9116513   8.278   5.528   4.094 -0.4657 -1.0039 -0.5058
   52MOL    H9216514   8.302   5.356   3.680  0.2260 -0.1903  0.2569
   52MOL    H9316515   8.225   5.111   3.696  0.6751 -2.2196  0.3187
   52MOL    H9416516   8.133   5.034   3.908  0.0404  0.9406  0.4514
   52MOL    H9516517   8.117   5.188   4.107 -0.2621  3.0661  1.0999
   52MOL    H9616518   8.386   5.338   4.223  2.4263  2.2502  0.4314
   52MOL    H9716519   8.235   5.329   4.309  0.1697  0.0235  0.5904
   52MOL    C9816520   8.345   5.514   4.344 -0.2749 -0.3135  0.5624
   52MOL    C9916521   0.012   5.626   4.288  0.2599 -0.2406  0.1435
   52MOL   C10016522   0.001   5.761   4.334  0.5399 -0.6827  0.1909
   52MOL  Cl10116523   8.297   5.821   4.443  0.5746  0.2889 -0.3038
   52MOL   C10216524   0.094   5.853   4.286  0.2240 -0.2385 -0.3032
   52MOL   C10316525   0.180   5.826   4.184  0.3029  0.0443 -0.0319
   52MOL   C10416526   0.177   5.703   4.122 -0.0712 -0.3368  0.1929
   52MOL   C10516527   0.102   5.596   4.180  0.8477 -0.5339  1.0915
   52MOL   C10616528   8.408   5.459   4.476 -0.1638  0.2407 -0.0889
   52MOL   H10716529   8.263   5.580   4.371  1.7520  2.3551  0.3716
   52MOL   H10816530   0.100   5.949   4.336  1.6361 -2.0164  3.1209
   52MOL   H10916531   0.253   5.899   4.154 -0.1490  1.2230  1.6795
   52MOL   H11016532   0.247   5.688   4.040 -1.1789 -2.3748 -0.4128
   52MOL   H11116533   0.112   5.494   4.145  1.5900  0.0887 -0.5962
   52MOL   H11216534   0.048   5.536   4.525 -0.6196  0.2147  0.5179
   52MOL   H11316535   0.059   5.383   4.444 -1.9240 -1.2990 -0.4273
   52MOL   C11416536   8.309   5.392   4.578  0.1613 -0.0415  0.0559
   52MOL   C11516537   8.171   5.449   4.575 -0.2590 -0.1651 -0.1328
   52MOL   C11616538   8.058   5.371   4.536  0.2407 -0.1116 -0.5387
   52MOL  Cl11716539   8.072   5.203   4.485  0.1708 -0.0699 -0.3397
   52MOL   C11816540   7.927   5.430   4.525 -0.8348 -0.3791 -0.1669
   52MOL   C11916541   7.907   5.565   4.567  0.0078 -0.0185  0.0962
   52MOL   C12016542   8.023   5.641   4.602 -0.4877  0.7451 -0.7041
   52MOL   C12116543   8.152   5.583   4.613  0.2623 -0.1615  0.0959
   52MOL   C12216544   8.359   5.390   4.722  0.3401 -0.2810 -0.2375
   52MOL   H12316545   8.308   5.288   4.545  1.7374  0.0786 -0.4328
   52MOL   H12416546   7.851   5.362   4.490 -0.8551  0.2515 -1.3924
   52MOL   H12516547   7.811   5.614   4.578  1.0038  1.2392  3.8078
   52MOL   H12616548   8.007   5.745   4.628  0.4480  1.1178 -1.5857
   52MOL   H12716549   8.226   5.647   4.659  0.1990 -0.1653  0.2014
   52MOL   H12816550   8.272   5.380   4.787  0.7177  2.3088  0.7206
   52MOL   H12916551   8.401   5.486   4.752  0.5878  0.2592 -2.2012
   52MOL   C13016552   0.033   5.272   4.749  0.0919  0.0740 -0.1115
   52MOL   C13116553   8.393   5.128   4.753 -0.9169 -0.4788 -0.5657
   52MOL   C13216554   0.018   5.030   4.659 -0.2446  0.0808 -0.4371
   52MOL  Cl13316555   0.162   5.057   4.571  0.1209 -0.4130  0.2061
   52MOL   C13416556   8.371   4.910   4.643 -0.4787  0.5527  0.0108
   52MOL   C13516557   8.255   4.884   4.719  0.2648  0.1571 -0.4128
   52MOL   C13616558   8.205   4.979   4.813 -0.5567 -0.4813  0.1471
   52MOL   C13716559   8.281   5.094   4.830 -0.0593 -0.4592 -0.0256
   52MOL   C13816560   0.120   5.286   4.879  0.3976  0.6549  0.7005
   52MOL   H13916561   0.106   5.278   4.668 -1.5451  0.3085 -1.5973
   52MOL   H14016562   8.405   4.833   4.575  1.1768 -0.1555  1.5931
   52MOL   H14116563   8.211   4.788   4.698  1.0240 -0.1527 -0.5774
   52MOL   H14216564   8.115   4.943   4.861 -1.2531  1.8099  0.6078
   52MOL   H14316565   8.247   5.162   4.907  0.2426  1.7590 -1.7888
   52MOL   H14416566   0.182   5.197   4.888 -0.7317 -0.6150 -3.1770
   52MOL   H14516567   0.057   5.282   4.968  1.2163  2.7876  1.3952
   52MOL   C14616568   0.216   5.406   4.883  0.0438  0.0107  0.2343
   52MOL   C14716569   0.290   5.438   4.753 -0.3602 -0.2672  0.3075
   52MOL   C14816570   0.293   5.570   4.695  0.1138 -0.4181 -0.4342
   52MOL  Cl14916571   0.238   5.707   4.782  0.1829  0.0442 -0.1159
   52MOL   C15016572   0.355   5.585   4.573 -0.0021  0.2106  0.0241
   52MOL   C15116573   0.399   5.473   4.498  0.5441  0.3360  0.0654
   52MOL   C15216574   0.411   5.350   4.561 -0.2249 -0.0748  0.8728
   52MOL   C15316575   0.354   5.335   4.693  0.7568  0.5070 -0.0162
   52MOL   C15416576   0.309   5.407   5.006  0.0460  0.8404 -0.3447
   52MOL   H15516577   0.152   5.491   4.904 -0.7344 -0.0374 -1.8926
   52MOL   H15616578   0.351   5.680   4.522  1.7833  0.2105 -0.1317
   52MOL   H15716579   0.435   5.491   4.398 -0.4786  2.8644  0.1008
   52MOL   H15816580   0.447   5.264   4.506 -0.0789 -0.2034  1.1658
   52MOL   H15916581   0.364   5.235   4.732  0.1062 -0.4119 -2.0982
   52MOL   H16016582   0.404   5.459   4.991  0.2160  0.1844 -1.5369
   52MOL   H16116583   0.342   5.305   5.025 -0.8763  0.5328 -0.3637
   52MOL   C16216584   0.240   5.462   5.130  0.1321  0.2740  0.6044
   52MOL   C16316585   0.230   5.615   5.115  0.1184  0.0848 -0.2674
   52MOL   C16416586   0.108   5.683   5.107 -0.0904  0.2179 -0.3767
   52MOL  Cl16516587   8.379   5.608   5.142  0.0271 -0.1622  0.1032
   52MOL   C16616588   0.112   5.824   5.111  0.4456 -0.1327  0.5572
   52MOL   C16716589   0.233   5.896   5.104  0.1352 -0.4331 -0.3667
   52MOL   C16816590   0.356   5.832   5.120 -0.7141  0.3455  0.2240
   52MOL   C16916591   0.352   5.692   5.121 -0.6146 -0.5251 -0.0288
   52MOL   C17016592   0.286   5.417   5.272 -0.1495  0.0794  0.3207
   52MOL   H17116593   0.139   5.419   5.129  0.2632 -0.0606 -2.0070
   52MOL   H17216594   0.023   5.884   5.128  0.1707 -0.3471 -0.1065
   52MOL   H17316595   0.225   6.003   5.109 -0.5133 -0.5478  2.2178
   52MOL   H17416596   0.445   5.891   5.135  0.5574 -1.4494 -0.0724
   52MOL   H17516597   0.446   5.639   5.126  0.7583  1.6384 -2.0339
   52MOL   H17616598   0.233   5.476   5.347  1.4555 -0.1717  1.6872
   52MOL   H17716599   0.391   5.443   5.291 -0.0733  0.7674 -0.9672
   52MOL   C17816600   0.258   5.269   5.315 -0.3681  0.4411 -0.2617
   52MOL   C17916601   0.114   5.221   5.275 -0.3240 -0.5674  0.7701
   52MOL   C18016602   0.093   5.105   5.193 -0.4023  0.9682 -0.0007
   52MOL  Cl18116603   0.228   5.019   5.125 -0.0684  0.2739 -0.4098
   52MOL   C18216604   8.384   5.048   5.168  0.4187  0.0446 -0.1062
   52MOL   C18316605   8.277   5.107   5.236  0.5045  0.1448 -0.5323
   52MOL   C18416606   8.295   5.225   5.317  0.0018 -0.1512  0.5374
   52MOL   C18516607   0.001   5.284   5.326  0.2326 -0.4733  0.2767
   52MOL   C18616608   0.265   5.252   5.469 -0.2516  0.1458  0.2336
   52MOL   H18716609   0.342   5.209   5.281  0.4809  1.0974  0.6607
   52MOL   H18816610   8.379   4.967   5.097  0.4705 -1.1325  1.2103
   52MOL   H18916611   8.177   5.065   5.238  0.3718  0.4798  0.2187
   52MOL   H19016612   8.208   5.278   5.355  0.8000  1.5564  0.0237
   52MOL   H19116613   0.008   5.379   5.376  1.3598 -1.3563  1.8666
   52MOL   H19216614   0.217   5.163   5.509  0.3894 -0.0493  0.5720
   52MOL   H19316615   0.187   5.322   5.500  0.3374  0.1071  1.8437
   52MOL   C19416616   0.394   5.297   5.540 -0.2701 -0.9226 -0.5421
   52MOL   C19516617   0.499   5.185   5.544 -0.1235  0.1666 -0.2445
   52MOL   C19616618   0.638   5.210   5.517  0.3835 -0.0815 -0.3873
   52MOL  Cl19716619   0.694   5.367   5.488  0.2050  0.4755 -0.0483
   52MOL   C19816620   0.730   5.102   5.533 -0.8289  0.0342  0.4302
   52MOL   C19916621   0.689   4.975   5.566  0.0907  0.3591  0.0869
   52MOL   C20016622   0.554   4.952   5.605 -0.9788  0.2156  0.0634
   52MOL   C20116623   0.463   5.055   5.592 -0.2381  0.4425  0.0151
   52MOL   C20216624   0.363   5.340   5.686 -0.2100 -0.9701 -0.5984
   52MOL   H20316625   0.439   5.380   5.487  1.6939 -1.1376  0.7454
   52MOL   H20416626   0.834   5.121   5.508 -0.8689 -1.8400 -1.3617
   52MOL   H20516627   0.758   4.894   5.588  0.0236 -0.6967 -3.2957
   52MOL   H20616628   0.539   4.853   5.645  2.6499 -0.4000  0.0037
   52MOL   H20716629   0.363   5.046   5.632 -0.3566  0.9347 -0.1599
   52MOL   H20816630   0.450   5.352   5.751 -1.7764 -0.4032  1.4535
   52MOL   H20916631   0.299   5.260   5.723 -0.1473 -1.2366 -1.0718
   52MOL   C21016632   0.289   5.486   5.695 -0.2473  0.4538 -0.1712
   52MOL   C21116633   0.351   5.603   5.619  0.3931 -0.2720  0.1869
   52MOL   C21216634   0.267   5.693   5.546  0.1194 -0.4367 -0.1887
   52MOL  Cl21316635   0.092   5.674   5.525 -0.3523 -0.1862  0.0902
   52MOL   C21416636   0.320   5.800   5.478 -0.0975 -0.5602  0.4492
   52MOL   C21516637   0.460   5.814   5.481  0.0171 -0.6519  0.0311
   52MOL   C21616638   0.543   5.723   5.549  0.6089 -0.4964 -0.6104
   52MOL   C21716639   0.491   5.617   5.619 -0.0233  0.2375  0.2320
   52MOL   C21816640   0.265   5.524   5.839  0.5928 -0.4111 -0.5687
   52MOL   H21916641   0.189   5.479   5.653  0.6041  2.2307 -2.6019
   52MOL   H22016642   0.253   5.871   5.433 -0.2941  0.9888  3.1171
   52MOL   H22116643   0.500   5.903   5.436 -1.3041  0.9802  2.0238
   52MOL   H22216644   0.650   5.730   5.534  0.8664 -0.7860  1.0362
   52MOL   H22316645   0.570   5.563   5.669  0.3208  0.0754 -0.4762
   52MOL   H22416646   0.235   5.627   5.856 -1.1544 -0.9170 -0.5548
   52MOL   H22516647   0.362   5.514   5.888  0.4782  3.0098  0.4666
   52MOL   C22616648   0.161   5.434   5.904 -0.3981 -0.1572 -0.5313
   52MOL   C22716649   0.015   5.444   5.849  0.6671 -0.4724 -0.3777
   52MOL   C22816650   8.373   5.335   5.786 -0.6941  0.4532 -0.1496
   52MOL  Cl22916651   0.014   5.174   5.775  0.3205 -0.0254 -0.0879
   52MOL   C23016652   8.248   5.355   5.726 -0.8499  0.0666  0.0807
   52MOL   C23116653   8.180   5.474   5.728 -0.2170 -0.8887 -0.1465
   52MOL   C23216654   8.236   5.588   5.790 -0.4589 -1.3114 -0.3169
   52MOL   C23316655   8.362   5.568   5.853  0.2909 -0.0889 -0.2684
   52MOL   C23416656   0.165   5.448   6.055  0.5362  0.8694  0.0803
   52MOL   H23516657   0.183   5.328   5.906 -1.4792 -0.3734 -0.0413
   52MOL   H23616658   8.196   5.272   5.680 -0.8690  1.6804 -2.9491
   52MOL   H23716659   8.084   5.488   5.682  0.3515 -1.0367 -1.3862
   52MOL   H23816660   8.176   5.674   5.819  0.2503 -1.1048  0.5588
   52MOL   H23916661   8.416   5.652   5.894  0.6191  0.4594 -1.7776
   52MOL   H24016662   0.077   5.396   6.093 -0.5670  0.6696 -2.5927
   52MOL   H24116663   0.137   5.551   6.078  0.1503  0.5369  1.1366
   52MOL   C24216664   0.287   5.397   6.134  0.2432 -0.3144  0.4608
   52MOL   C24316665   0.351   5.270   6.080 -0.0965  0.0597 -0.3558
   52MOL   C24416666   0.482   5.259   6.035 -0.8444 -0.0522 -0.6231
   52MOL  Cl24516667   0.596   5.390   6.021 -0.0575  0.3113 -0.0032
   52MOL   C24616668   0.523   5.137   5.979  0.3627 -0.3661  0.9634
   52MOL   C24716669   0.443   5.022   5.975 -0.1467 -0.1958 -0.0911
   52MOL   C24816670   0.318   5.035   6.037 -0.2597 -0.4080 -0.1391
   52MOL   C24916671   0.268   5.156   6.082 -0.1281 -0.0586 -0.0755
   52MOL   C25016672   0.274   5.389   6.289  0.8979 -0.7137  0.9322
   52MOL   H25116673   0.368   5.469   6.119 -0.1188 -0.1778 -0.9090
   52MOL   H25216674   0.621   5.129   5.934 -0.2496  0.7737 -0.6098
   52MOL   H25316675   0.481   4.928   5.938  2.7202  1.5888 -1.8822
   52MOL   H25416676   0.258   4.946   6.048 -0.2252 -0.3837  0.2467
   52MOL   H25516677   0.176   5.161   6.138  1.8269  0.6812  3.2184
   52MOL   H25616678   0.363   5.354   6.341  1.7669  0.6402  0.3992
   52MOL   H25716679   0.196   5.319   6.316  1.5414 -1.0333  2.0094
   52MOL   C25816680   0.239   5.530   6.349  0.1927 -0.2897 -0.7016
   52MOL   C25916681   0.339   5.634   6.300  0.2115 -0.5732  0.4221
   52MOL   C26016682   0.294   5.755   6.239 -0.1915  0.1243  0.3425
   52MOL  Cl26116683   0.125   5.790   6.212  0.1916  0.0819  0.2060
   52MOL   C26216684   0.387   5.853   6.214  0.3234 -0.1506  0.5635
   52MOL   C26316685   0.522   5.837   6.240  1.1041 -0.1484  0.3657
   52MOL   C26416686   0.562   5.721   6.305 -0.2409  0.2579 -0.8941
   52MOL   C26516687   0.467   5.624   6.347 -0.5402  0.3088 -0.0888
   52MOL   C26616688   0.234   5.523   6.503 -0.2102 -0.3170  0.3149
   52MOL   H26716689   0.144   5.563   6.309  1.0755  1.1008 -1.7002
   52MOL   H26816690   0.349   5.944   6.170 -0.4552 -0.9921 -0.5423
   52MOL   H26916691   0.605   5.899   6.211  2.1034 -1.2760  0.7445
   52MOL   H27016692   0.665   5.702   6.331 -0.3777 -1.1320 -1.3012
   52MOL   H27116693   0.506   5.534   6.393 -1.6152  0.2752  0.7902
   52MOL   H27216694   0.229   5.622   6.547  2.6332  0.2303 -0.5428
   52MOL   H27316695   0.331   5.485   6.534 -0.6443 -0.8235  1.1038
   52MOL   C27416696   0.124   5.445   6.572 -0.9439  0.5139  0.1177
   52MOL   C27516697   8.409   5.470   6.516  0.0829 -1.1461  0.1177
   52MOL   C27616698   8.311   5.367   6.502  0.1567  0.2457 -0.3706
   52MOL  Cl27716699   8.345   5.208   6.556  0.1635 -0.3862 -0.0931
   52MOL   C27816700   8.189   5.400   6.454 -0.9981  0.5868 -0.5053
   52MOL   C27916701   8.153   5.531   6.406  0.1512  0.2181 -0.3376
   52MOL   C28016702   8.249   5.627   6.430 -0.5689 -0.8053  0.0171
   52MOL   C28116703   8.369   5.601   6.491 -0.0714  0.2446  0.5055
   52MOL   C28216704   0.125   5.472   6.726  0.1567  0.3443 -0.6984
   52MOL   H28316705   0.146   5.339   6.563 -3.0692  0.1614 -1.3872
   52MOL   H28416706   8.110   5.327   6.442 -0.5098  0.0360 -0.3939
   52MOL   H28516707   8.055   5.566   6.375  0.6536  2.0658  0.1228
   52MOL   H28616708   8.226   5.731   6.410 -2.3027 -0.9127  1.3722
   52MOL   H28716709   0.018   5.683   6.503 -1.9004  1.9107  0.0130
   52MOL   H28816710   0.042   5.422   6.776 -0.7844  1.0338 -1.5456
   52MOL   H28916711   0.096   5.576   6.739  3.2459  1.1315  0.1873
   52MOL   C29016712   0.249   5.465   6.814 -0.2048  0.0312 -0.4596
   52MOL   C29116713   0.282   5.318   6.839  0.5966 -0.2809  0.3055
   52MOL   C29216714   0.394   5.261   6.769  0.5367  0.0392 -0.2039
   52MOL  Cl29316715   0.493   5.346   6.652  0.2304 -0.0397 -0.4163
   52MOL   C29416716   0.422   5.130   6.796  0.4953  0.4068 -0.0849
   52MOL   C29516717   0.366   5.052   6.895  0.3078 -0.0367 -0.0054
   52MOL   C29616718   0.252   5.110   6.960  0.1926  0.4381  1.4389
   52MOL   C29716719   0.207   5.240   6.932  0.8603 -0.7447 -0.0020
   52MOL   C29816720   0.235   5.541   6.948 -0.0551  0.2687 -0.8961
   52MOL   H29916721   0.337   5.500   6.760 -0.9581 -0.3089 -1.9203
   52MOL   H30016722   0.491   5.092   6.722 -0.4608  4.9760 -3.5354
   52MOL   H30116723   0.395   4.949   6.909  2.6268  0.4145 -1.2024
   52MOL   H30216724   0.197   5.049   7.031 -2.1432  1.4873  0.5974
   52MOL   H30316725   0.116   5.263   6.986  0.4977 -2.2730  0.0632
   52MOL   H30416726   0.310   5.518   7.024 -0.1197 -0.0497 -0.9260
   52MOL   H30516727   0.145   5.518   7.004  0.5873 -1.1302 -0.4101
   52MOL   C30616728   0.239   5.694   6.935  0.2640  0.0090  0.0082
   52MOL   C30716729   0.345   5.742   6.838  0.1810  0.5786 -0.2010
   52MOL   C30816730   0.311   5.816   6.721 -0.3210  0.2373  0.0109
   52MOL  Cl30916731   0.151   5.870   6.684 -0.0380  0.3150  0.2332
   52MOL   C31016732   0.415   5.849   6.631 -0.5118 -0.0358 -0.3077
   52MOL   C31116733   0.550   5.814   6.656 -0.1767  0.2993 -0.4319
   52MOL   C31216734   0.588   5.749   6.775  0.9065 -0.2608  0.1090
   52MOL   C31316735   0.483   5.716   6.862  0.6640 -0.2416 -0.7203
   52MOL   C31416736   0.262   5.769   7.070 -0.4375  0.6464 -0.5893
   52MOL   H31516737   0.143   5.730   6.898 -0.2275 -1.5743 -0.3113
   52MOL   H31616738   0.388   5.902   6.542  0.9958  1.4581  0.0945
   52MOL   H31716739   0.622   5.820   6.575  0.1574 -1.3629 -0.2786
   52MOL   H31816740   0.691   5.719   6.786  0.1824 -3.1519 -0.5851
   52MOL   H31916741   0.508   5.668   6.955 -1.0246 -0.7683 -0.5127
   52MOL   H32016742   0.178   5.752   7.138  0.5176 -0.1963  0.4162
   52MOL   H32116743   0.270   5.877   7.064 -0.5005  0.7699  1.2093
   52MOL   H32216744   0.352   5.733   7.119  0.7655  0.4189 -2.9044
   53MOL     C116745   3.724   0.593   5.092 -0.3427  0.6747 -0.6153
   53MOL     C216746   3.876   0.598   5.098  0.5356  0.2070  0.2432
   53MOL     C316747   3.953   0.479   5.094  0.7549 -0.4593 -0.1472
   53MOL    Cl416748   3.879   0.321   5.086 -0.0908  0.5548  0.0434
   53MOL     C516749   4.091   0.486   5.086  0.7080  0.5616 -0.6817
   53MOL     C616750   4.151   0.610   5.081 -0.0049 -0.6670 -0.2430
   53MOL     C716751   4.073   0.729   5.074 -0.5128  0.0863  0.1098
   53MOL     C816752   3.936   0.724   5.094  0.4313  0.1499  0.7790
   53MOL     C916753   3.662   0.634   4.956  0.5232  0.1673  1.6036
   53MOL    H1016754   3.694   0.496   5.131 -2.5573  0.7857 -1.9382
   53MOL    H1116755   4.151   0.395   5.086  1.8904  1.3246  0.4027
   53MOL    H1216756   4.258   0.618   5.077 -0.1169  0.6315 -1.0280
   53MOL    H1316757   4.118   0.827   5.062 -1.8081  1.0542  2.6787
   53MOL    H1416758   3.873   0.812   5.095  0.8280  0.4551 -0.1108
   53MOL    H1516759   3.738   0.615   4.881 -3.2042 -1.4159 -1.9510
   53MOL    H1616760   3.647   0.742   4.947 -0.3628 -0.1766 -1.7149
   53MOL    H1716761   3.676   0.668   5.156 -0.5000 -0.7260  0.9290
   53MOL    C1816762   3.554   0.538   4.908 -0.0877  0.8259 -0.7088
   53MOL    C1916763   3.534   0.564   4.757  0.8631  0.1136 -1.1738
   53MOL    C2016764   3.612   0.486   4.665 -0.2635 -0.3865  0.0657
   53MOL   Cl2116765   3.739   0.380   4.708  0.3294  0.1147  0.3445
   53MOL    C2216766   3.582   0.499   4.527  0.4084  0.3815  0.6964
   53MOL    C2316767   3.487   0.596   4.483 -0.5826  0.6295  0.1699
   53MOL    C2416768   3.421   0.674   4.572  0.0654 -0.4757  0.4233
   53MOL    C2516769   3.442   0.659   4.709 -0.0982 -0.4190  0.2192
   53MOL    C2616770   3.422   0.542   4.990 -0.2362 -0.3894 -0.2355
   53MOL    H2716771   3.595   0.437   4.908 -2.7906 -0.3462  1.2403
   53MOL    H2816772   3.642   0.443   4.457 -1.6878 -0.7080 -0.2768
   53MOL    H2916773   3.473   0.616   4.378  3.4042  0.2990 -0.5297
   53MOL    H3016774   3.358   0.760   4.550  1.3442  0.1545 -0.8500
   53MOL    H3116775   3.379   0.715   4.776 -0.4651 -1.8128  1.0700
   53MOL    H3216776   3.380   0.643   4.988 -1.1613 -0.7840 -0.4359
   53MOL    H3316777   3.443   0.531   5.096 -0.4244  3.3335  0.2494
   53MOL    C3416778   3.311   0.444   4.942 -0.5963 -0.1860 -0.1516
   53MOL    C3516779   3.190   0.521   4.900 -0.8307 -0.1038  0.2363
   53MOL    C3616780   3.144   0.512   4.765 -0.5503  0.0851 -0.2127
   53MOL   Cl3716781   3.228   0.419   4.642  0.2892  0.4987  0.1619
   53MOL    C3816782   3.033   0.580   4.724 -0.1687  0.6580  0.3463
   53MOL    C3916783   2.974   0.669   4.814 -0.3837 -0.4947 -0.0034
   53MOL    C4016784   3.014   0.688   4.947  0.1827 -0.6496 -0.5610
   53MOL    C4116785   3.125   0.616   4.985  0.3820  0.5821 -0.1402
   53MOL    C4216786   3.273   0.338   5.051  0.7039 -0.1032  0.0113
   53MOL    H4316787   3.357   0.396   4.855  0.6953 -0.4497  0.6526
   53MOL    H4416788   2.999   0.559   4.623  1.6401  1.2355 -0.3936
   53MOL    H4516789   2.890   0.727   4.777  1.1673  1.9265  0.1196
   53MOL    H4616790   2.962   0.752   5.017 -0.7247 -1.2606 -0.6580
   53MOL    H4716791   3.167   0.614   5.084  0.7513  1.1293 -0.2836
   53MOL    H4816792   3.219   0.382   5.134 -0.7710 -1.0257 -0.4411
   53MOL    H4916793   3.370   0.320   5.098 -0.8230  0.1089  3.3689
   53MOL    C5016794   3.209   0.206   5.009 -0.1732  0.2295  0.2623
   53MOL    C5116795   3.075   0.217   4.939  0.1230 -0.1845 -0.2666
   53MOL    C5216796   3.045   0.148   4.821  0.7088 -0.2369  0.6210
   53MOL   Cl5316797   3.159   0.039   4.747 -0.0544 -0.0072 -0.0026
   53MOL    C5416798   2.913   0.156   4.769  0.3656  0.1614  0.5010
   53MOL    C5516799   2.820   0.256   4.819  0.0574 -0.5284  0.2659
   53MOL    C5616800   2.853   0.329   4.935 -0.3505  0.1049 -0.2279
   53MOL    C5716801   2.977   0.305   4.992 -0.5393  0.0335 -0.5642
   53MOL    C5816802   3.206   0.113   5.124  0.0084  0.5521  1.3210
   53MOL    H5916803   3.270   0.168   4.927  1.8496  0.5018  1.6074
   53MOL    H6016804   2.886   0.099   4.682  2.0533 -0.2242  0.2085
   53MOL    H6116805   2.724   0.272   4.772  0.3518 -1.0192 -0.5225
   53MOL    H6216806   2.777   0.394   4.974  2.2876  3.1127  0.0498
   53MOL    H6316807   3.008   0.371   5.072  0.0513  0.1544 -0.8887
   53MOL    H6416808   3.126   0.043   5.102 -1.1654  2.4025 -0.4699
   53MOL    H6516809   3.157   0.165   5.206 -0.5186 -0.1401  1.4446
   53MOL    C6616810   3.345   0.045   5.157 -0.2649  0.0295  0.1381
   53MOL    C6716811   3.379   8.364   5.055  0.0662 -0.2694  0.4988
   53MOL    C6816812   3.491   8.384   4.960 -0.2324 -0.5516 -1.0862
   53MOL   Cl6916813   3.571   0.115   4.943  0.4301 -0.2411  0.1772
   53MOL    C7016814   3.525   8.280   4.874 -0.0406 -0.7795  0.2645
   53MOL    C7116815   3.464   8.160   4.887 -0.4318 -0.1540 -0.3030
   53MOL    C7216816   3.345   8.144   4.965 -0.3574  0.4631  0.0569
   53MOL    C7316817   3.304   8.239   5.055 -1.0526  0.0435  0.5068
   53MOL    C7416818   3.358   8.406   5.297  0.3450 -0.0167 -0.2084
   53MOL    H7516819   3.426   0.118   5.152 -1.1134  0.8108 -3.1367
   53MOL    H7616820   3.614   8.298   4.816  1.8142  1.6272  3.6853
   53MOL    H7716821   3.496   8.079   4.823  2.2387  1.0860 -0.5627
   53MOL    H7816822   3.291   8.052   4.974  0.7437 -0.8064 -4.5874
   53MOL    H7916823   3.213   8.217   5.110 -1.4613 -1.1650 -0.6441
   53MOL    H8016824   3.447   8.345   5.307  0.3963 -0.3807 -2.5885
   53MOL    H8116825   3.274   8.338   5.307 -0.5917  1.2670  0.9078
   53MOL    C8216826   3.356   0.092   5.410  0.0114 -0.9810 -0.1512
   53MOL    C8316827   3.484   0.178   5.415  0.3471 -0.0986 -0.1614
   53MOL    C8416828   3.467   0.324   5.408  0.4428 -0.4197  0.1077
   53MOL   Cl8516829   3.312   0.412   5.407  0.2792 -0.3998 -0.2393
   53MOL    C8616830   3.585   0.393   5.386  0.7081 -0.3247  0.3512
   53MOL    C8716831   3.712   0.337   5.378  0.0240  0.1748 -0.0507
   53MOL    C8816832   3.726   0.199   5.391  0.0454 -0.3481 -0.1341
   53MOL    C8916833   3.615   0.124   5.412 -0.1407 -0.3363  0.1372
   53MOL    C9016834   3.329   0.028   5.550 -0.2981 -0.2764  0.1882
   53MOL    H9116835   3.265   0.149   5.391 -0.7465 -1.7553  1.0937
   53MOL    H9216836   3.567   0.498   5.369  2.6107 -0.1411 -0.7743
   53MOL    H9316837   3.798   0.400   5.364 -0.7664  1.9013  2.6394
   53MOL    H9416838   3.816   0.140   5.382  1.0027  1.1012 -0.3953
   53MOL    H9516839   3.626   0.017   5.406 -2.1460 -0.7476  3.0544
   53MOL    H9616840   3.339   0.114   5.616 -2.8254  1.4426 -1.5645
   53MOL    H9716841   3.407   8.379   5.580 -0.7426 -0.4622  0.9240
   53MOL    C9816842   3.184   8.398   5.577 -0.3661 -0.4790  0.1675
   53MOL    C9916843   3.080   0.071   5.514  0.0285 -0.3701  0.3888
   53MOL   C10016844   3.000   0.027   5.405  0.7711  0.7598  0.5749
   53MOL  Cl10116845   2.987   8.279   5.367 -0.2695 -0.1789  0.3376
   53MOL   C10216846   2.914   0.118   5.341  0.3840  0.0963 -0.5634
   53MOL   C10316847   2.912   0.248   5.383 -0.5048 -0.2426 -0.5633
   53MOL   C10416848   2.993   0.300   5.489 -0.2633 -0.3449  0.6019
   53MOL   C10516849   3.078   0.205   5.553  0.2004  0.4537 -0.8538
   53MOL   C10616850   3.154   8.376   5.723 -0.2399  0.7568  0.0451
   53MOL   H10716851   3.186   8.302   5.524 -0.2185 -0.7158  0.5985
   53MOL   H10816852   2.843   0.095   5.262  1.0587  0.9539 -1.4349
   53MOL   H10916853   2.833   0.306   5.339 -0.3237 -0.2429 -0.8953
   53MOL   H11016854   2.991   0.402   5.523 -1.9210  0.5636 -2.0782
   53MOL   H11116855   3.138   0.241   5.635  2.4905  1.5666 -2.9540
   53MOL   H11216856   3.050   8.350   5.737 -0.2979  1.2506  0.5475
   53MOL   H11316857   3.170   0.049   5.778 -0.0958  0.5919  0.2841
   53MOL   C11416858   3.238   8.255   5.786  0.4491  0.4650 -0.4790
   53MOL   C11516859   3.174   8.115   5.763  0.0467 -0.6803  0.2538
   53MOL   C11616860   3.215   8.033   5.654 -0.5440 -0.3890 -0.3371
   53MOL  Cl11716861   3.360   8.057   5.562  0.0864  0.0063  0.1238
   53MOL   C11816862   3.137   7.921   5.627 -0.1137  0.9088 -0.4830
   53MOL   C11916863   3.018   7.887   5.700 -0.6240 -0.3301 -0.6842
   53MOL   C12016864   2.966   7.968   5.800 -0.3377  0.6160 -0.4102
   53MOL   C12116865   3.045   8.082   5.831 -0.4527 -0.7280  0.3889
   53MOL   C12216866   3.252   8.279   5.938 -0.1786 -0.1464 -0.4943
   53MOL   H12316867   3.333   8.258   5.733  0.4786  1.8537 -0.3644
   53MOL   H12416868   3.167   7.856   5.546 -0.6846 -1.3401  1.0528
   53MOL   H12516869   2.951   7.808   5.670 -3.4043  1.5272  0.4117
   53MOL   H12616870   2.875   7.932   5.846  0.7830 -2.0483 -0.1791
   53MOL   H12716871   3.009   8.153   5.905  0.7002 -1.4974  1.7138
   53MOL   H12816872   3.241   8.184   5.989 -0.0808  0.2031  0.1837
   53MOL   H12916873   3.177   8.355   5.961  1.2544  1.5376 -1.2101
   53MOL   C13016874   3.384   8.340   5.981 -0.7185  0.2810 -0.4726
   53MOL   C13116875   3.504   8.245   5.965  0.2865  0.5809 -0.5522
   53MOL   C13216876   3.598   8.259   5.875 -0.6751  0.0013  0.4067
   53MOL  Cl13316877   3.605   8.390   5.758  0.0111  0.2408 -0.3836
   53MOL   C13416878   3.697   8.155   5.854  0.2009 -0.4433  0.3396
   53MOL   C13516879   3.707   8.043   5.925 -0.0594 -0.5233 -0.4564
   53MOL   C13616880   3.609   8.027   6.028  0.0610  0.0822 -0.0017
   53MOL   C13716881   3.510   8.125   6.046 -0.4007 -0.6498  0.0625
   53MOL   C13816882   3.383   8.397   6.128 -0.3471  0.0255  0.6957
   53MOL   H13916883   3.404   0.001   5.912 -1.0761  0.6918 -0.0961
   53MOL   H14016884   3.769   8.177   5.777  0.6921 -2.1312  0.2939
   53MOL   H14116885   3.777   7.963   5.903  0.7560  0.8038 -2.9392
   53MOL   H14216886   3.591   7.932   6.075 -1.2260 -0.4328 -1.5014
   53MOL   H14316887   3.424   8.105   6.108 -1.9324  0.4148 -1.6869
   53MOL   H14416888   3.486   8.411   6.161 -0.1517 -1.7323  0.8429
   53MOL   H14516889   3.350   8.318   6.194  0.3871 -1.2402 -0.4302
   53MOL   C14616890   3.295   0.104   6.153 -0.0811  0.9167  0.3641
   53MOL   C14716891   3.295   0.202   6.033  0.0283  0.1223 -0.6833
   53MOL   C14816892   3.170   0.261   5.999 -0.3500 -0.4436  1.1502
   53MOL  Cl14916893   3.015   0.220   6.071  0.1049 -0.2462 -0.1174
   53MOL   C15016894   3.171   0.347   5.890  0.3567  0.3343 -0.4437
   53MOL   C15116895   3.289   0.389   5.827 -0.2563  0.5176 -0.3217
   53MOL   C15216896   3.411   0.327   5.863  0.1952  0.5947  0.1084
   53MOL   C15316897   3.415   0.244   5.975 -0.3515  0.2146  0.7415
   53MOL   C15416898   3.343   0.180   6.283 -0.6189 -0.1855  0.6843
   53MOL   H15516899   3.195   0.062   6.151  0.8458 -1.3507 -3.1406
   53MOL   H15616900   3.080   0.392   5.855 -1.5455 -1.9791  1.3408
   53MOL   H15716901   3.293   0.465   5.751  1.9872  2.6399  1.8301
   53MOL   H15816902   3.505   0.350   5.814 -1.9474  2.6738 -3.2366
   53MOL   H15916903   3.512   0.218   6.014  0.9601  2.3144 -0.9774
   53MOL   H16016904   3.444   0.218   6.267 -1.8845  2.6341 -0.9499
   53MOL   H16116905   3.356   0.112   6.368  3.7613 -0.3341  0.0172
   53MOL   C16216906   3.256   0.296   6.332  0.3874  0.5565 -1.0159
   53MOL   C16316907   3.345   0.401   6.397  0.3753  0.2500  0.1395
   53MOL   C16416908   3.366   0.531   6.336  0.1254  0.0247 -0.3086
   53MOL  Cl16516909   3.308   0.576   6.180 -0.2704  0.3922 -0.1939
   53MOL   C16616910   3.430   0.631   6.413  0.4011  0.0779 -0.1517
   53MOL   C16716911   3.477   0.601   6.543 -0.1653  0.4643 -0.3320
   53MOL   C16816912   3.471   0.473   6.596  0.3125 -0.4552  0.3663
   53MOL   C16916913   3.406   0.375   6.521 -0.0881 -0.0684  0.1735
   53MOL   C17016914   3.145   0.245   6.420  0.1841  0.0354 -0.2240
   53MOL   H17116915   3.199   0.333   6.247 -0.5260  0.7887 -0.3179
   53MOL   H17216916   3.435   0.736   6.389  1.4522 -0.3027 -1.6349
   53MOL   H17316917   3.514   0.675   6.613 -4.6305  2.4045  0.1432
   53MOL   H17416918   3.503   0.439   6.693  0.1391 -0.8855  0.2738
   53MOL   H17516919   3.414   0.273   6.555  1.5049  0.4545  1.3877
   53MOL   H17616920   3.174   0.233   6.525  2.3243  1.1284 -0.6562
   53MOL   H17716921   3.118   0.146   6.384 -1.2122  0.2719  0.1524
   53MOL   C17816922   3.015   0.323   6.409  0.3387 -0.7258 -0.1897
   53MOL   C17916923   3.030   0.462   6.477 -0.2937  0.1123  0.3468
   53MOL   C18016924   3.028   0.584   6.401 -0.1364  0.4256  0.0400
   53MOL  Cl18116925   2.993   0.586   6.238  0.2869 -0.0813 -0.8132
   53MOL   C18216926   3.055   0.705   6.469  1.2658  0.5022  0.5139
   53MOL   C18316927   3.080   0.709   6.607 -0.3273 -0.0338  0.4413
   53MOL   C18416928   3.097   0.590   6.673  0.3854 -0.3169 -0.5962
   53MOL   C18516929   3.062   0.469   6.608  0.6846 -0.3011 -0.6239
   53MOL   C18616930   2.897   0.250   6.470  0.5202  0.6334  0.0027
   53MOL   H18716931   2.994   0.335   6.303 -1.4110 -0.7995  0.1308
   53MOL   H18816932   3.035   0.798   6.418 -0.0212  0.5372  1.0799
   53MOL   H18916933   3.092   0.800   6.664 -1.6950 -0.9328  2.2202
   53MOL   H19016934   3.111   0.590   6.780 -0.6714 -0.6555 -0.4500
   53MOL   H19116935   3.076   0.376   6.661 -2.0845 -1.0553 -1.1436
   53MOL   H19216936   2.889   0.275   6.575 -1.5512 -0.5452  0.1427
   53MOL   H19316937   2.920   0.143   6.471 -1.2479  0.2579  1.3010
   53MOL   C19416938   2.762   0.260   6.400 -0.2085  0.2634 -0.1167
   53MOL   C19516939   2.710   0.406   6.389  0.2792 -0.5696 -0.4297
   53MOL   C19616940   2.649   0.463   6.272 -0.5119  0.1793 -0.5863
   53MOL  Cl19716941   2.648   0.367   6.126  0.1064  0.4750 -0.1317
   53MOL   C19816942   2.608   0.595   6.264  0.0461 -0.7373 -0.6428
   53MOL   C19916943   2.625   0.678   6.373  0.0675  0.7783  0.2426
   53MOL   C20016944   2.686   0.628   6.494  0.6493 -0.0931  0.3717
   53MOL   C20116945   2.719   0.491   6.501  0.3640  1.0084 -0.0542
   53MOL   C20216946   2.641   0.163   6.448 -0.4696  0.5785 -0.1545
   53MOL   H20316947   2.797   0.234   6.300  0.4097  1.0269 -0.1042
   53MOL   H20416948   2.556   0.628   6.175  1.8740 -0.4951 -1.6410
   53MOL   H20516949   2.582   0.777   6.372 -3.7095 -0.7658 -0.3429
   53MOL   H20616950   2.699   0.687   6.583 -2.7518  0.5696  0.4699
   53MOL   H20716951   2.755   0.447   6.593  2.6800  1.5422 -0.6772
   53MOL   H20816952   2.557   0.192   6.384 -0.6848 -0.3108 -0.2846
   53MOL   H20916953   2.611   0.192   6.548  0.7566  1.3486  0.0010
   53MOL   C21016954   2.674   0.012   6.437 -0.0655 -0.1093 -0.1841
   53MOL   C21116955   2.719   8.394   6.296 -0.7279 -1.0111 -0.1113
   53MOL   C21216956   2.853   8.348   6.270  0.0389  0.5229 -0.3817
   53MOL  Cl21316957   2.968   8.317   6.390  0.0079  0.2563 -0.0488
   53MOL   C21416958   2.890   8.333   6.137 -0.2764  0.1820  0.0761
   53MOL   C21516959   2.807   8.342   6.026 -0.9332  0.0029 -0.0717
   53MOL   C21616960   2.677   8.389   6.050  0.1318 -0.6997  0.1487
   53MOL   C21716961   2.628   8.418   6.183 -0.7389 -0.0507 -0.3368
   53MOL   C21816962   2.552   8.352   6.493  0.1485 -0.6487  0.8011
   53MOL   H21916963   2.755   0.006   6.509 -0.9828  1.1159  0.9724
   53MOL   H22016964   2.989   8.298   6.111 -0.7300 -0.8294 -0.3370
   53MOL   H22116965   2.831   8.324   5.922 -0.9924 -1.0640  0.0890
   53MOL   H22216966   2.612   8.405   5.965  1.1004  1.3830 -0.2358
   53MOL   H22316967   2.525   0.030   6.192 -1.4153 -2.3692  0.6997
   53MOL   H22416968   2.465   8.377   6.432  0.2763 -0.7243  0.5865
   53MOL   H22516969   2.532   8.390   6.593 -1.7350 -0.2010  0.2700
   53MOL   C22616970   2.566   8.203   6.507 -0.4772  1.1915 -0.0003
   53MOL   C22716971   2.567   8.125   6.374 -0.4012 -0.0745 -0.0483
   53MOL   C22816972   2.677   8.044   6.334  0.5810  0.4334  0.6289
   53MOL  Cl22916973   2.820   8.019   6.426 -0.3433 -0.5965  0.0829
   53MOL   C23016974   2.663   7.980   6.211  0.3876 -0.2369  0.0378
   53MOL   C23116975   2.554   8.004   6.121 -0.1026  0.1835  0.4227
   53MOL   C23216976   2.460   8.091   6.157 -0.1879  0.3131 -0.0815
   53MOL   C23316977   2.469   8.149   6.279 -0.5755 -0.3810  0.3974
   53MOL   C23416978   2.453   8.143   6.594 -0.0092  0.0996  0.1577
   53MOL   H23516979   2.659   8.176   6.557 -0.0059 -1.8209 -2.3516
   53MOL   H23616980   2.743   7.924   6.165  1.1791  0.9774 -0.0718
   53MOL   H23716981   2.549   7.944   6.030  0.8216 -1.1791  1.2458
   53MOL   H23816982   2.381   8.111   6.086  1.0336 -0.1558 -1.6153
   53MOL   H23916983   2.390   8.211   6.316 -1.2126 -0.4747 -0.7783
   53MOL   H24016984   2.468   8.035   6.585  1.1851  0.3268 -0.6433
   53MOL   H24116985   2.361   8.143   6.535  0.5544  0.3925 -0.7190
   53MOL   C24216986   2.442   8.183   6.743  0.5897  0.3212  1.0166
   53MOL   C24316987   2.571   8.208   6.813 -0.4121  0.4530  0.2539
   53MOL   C24416988   2.581   8.319   6.900  0.6525 -1.1585  0.4494
   53MOL  Cl24516989   2.444   0.010   6.928  0.2561 -0.0348 -0.4110
   53MOL   C24616990   2.700   8.343   6.974 -0.0856  0.3084  0.1782
   53MOL   C24716991   2.806   8.253   6.953  0.4971  0.2296 -0.3391
   53MOL   C24816992   2.799   8.142   6.872 -0.6715  0.3247  0.3710
   53MOL   C24916993   2.679   8.114   6.805  0.1558 -0.5491  0.0209
   53MOL   C25016994   2.369   8.059   6.815  0.0893 -0.6283 -0.5927
   53MOL   H25116995   2.371   8.265   6.741  0.0240 -0.1968 -1.6100
   53MOL   H25216996   2.707   0.002   7.047  0.0952 -1.2891  1.9447
   53MOL   H25316997   2.891   8.263   7.019  1.1272  1.8537 -1.3521
   53MOL   H25416998   2.885   8.078   6.861  0.0195  1.2309  0.4495
   53MOL   H25516999   2.679   8.030   6.737 -0.4946 -0.4671 -0.0877
   53MOL   H25617000   2.386   8.078   6.921 -2.1300 -1.3366 -0.0871
   53MOL   H25717001   2.441   7.980   6.794  0.9734 -0.5097  1.8195
   53MOL   C25817002   2.226   8.021   6.769  1.0480 -0.9384 -0.4118
   53MOL   C25917003   2.115   8.130   6.800  0.5372 -0.5023 -0.5691
   53MOL   C26017004   2.002   8.134   6.715 -0.1970 -0.0584 -0.0285
   53MOL  Cl26117005   1.985   8.032   6.579  0.1094 -0.2885  0.0055
   53MOL   C26217006   1.904   8.230   6.744  0.3428  0.4633 -0.3368
   53MOL   C26317007   1.914   8.319   6.853  0.2518  0.5093 -0.4090
   53MOL   C26417008   2.033   8.324   6.929  0.3318  0.0999  0.8693
   53MOL   C26517009   2.128   8.225   6.906 -0.2570  0.4873 -0.4491
   53MOL   C26617010   2.195   7.884   6.837  0.0448 -0.0695  0.3613
   53MOL   H26717011   2.231   8.009   6.661  0.3275 -1.4703 -0.3835
   53MOL   H26817012   1.818   8.238   6.678  1.5696  0.2629 -1.9818
   53MOL   H26917013   1.830   8.387   6.859  0.2149  0.2585  2.6600
   53MOL   H27017014   2.055   8.400   7.002  1.2174  0.6697  0.0274
   53MOL   H27117015   2.214   8.229   6.971 -1.2120  0.8621  0.8223
   53MOL   H27217016   2.091   7.857   6.815  0.1280 -0.7786  0.8747
   53MOL   H27317017   2.205   7.883   6.945  2.9415  0.3236  0.1312
   53MOL   C27417018   2.277   7.756   6.801 -0.6371 -0.2675 -0.8164
   53MOL   C27517019   2.328   7.755   6.657  0.4131  0.4084 -0.0995
   53MOL   C27617020   2.465   7.731   6.631 -0.0941 -0.2518  0.5308
   53MOL  Cl27717021   2.586   7.709   6.756  0.2716  0.1902  0.0393
   53MOL   C27817022   2.512   7.742   6.503 -0.2628 -0.3582 -0.0547
   53MOL   C27917023   2.417   7.753   6.395  0.5796 -0.1242  0.2723
   53MOL   C28017024   2.276   7.764   6.419 -0.2651 -0.6248  0.2275
   53MOL   C28117025   2.232   7.766   6.552  0.5141  0.3189  0.3417
   53MOL   C28217026   2.194   7.633   6.829 -0.3492  0.0783  0.3693
   53MOL   H28317027   2.362   7.751   6.869 -1.7267 -0.7312  0.5143
   53MOL   H28417028   2.618   7.738   6.484 -0.4581  1.7244 -1.7310
   53MOL   H28517029   2.454   7.757   6.293  1.7470  1.9646  0.7583
   53MOL   H28617030   2.204   7.776   6.340  0.9720  1.7178 -0.5853
   53MOL   H28717031   2.125   7.778   6.565  0.5918  0.5266  0.7965
   53MOL   H28817032   2.243   7.541   6.797 -1.6817 -0.9476  1.2126
   53MOL   H28917033   2.103   7.641   6.768 -1.2549 -1.2288  1.5244
   53MOL   C29017034   2.155   7.618   6.983  0.1055  0.3520 -0.2850
   53MOL   C29117035   2.280   7.592   7.068  0.5506  0.0703  0.0191
   53MOL   C29217036   2.313   7.677   7.178 -0.1536  0.3753 -0.4385
   53MOL  Cl29317037   2.221   7.821   7.213 -0.1014  0.2873 -0.0526
   53MOL   C29417038   2.429   7.649   7.257 -0.1533  0.7857 -0.3441
   53MOL   C29517039   2.503   7.526   7.234 -0.1498 -0.1023  0.2644
   53MOL   C29617040   2.465   7.442   7.135 -0.0425  0.1749 -0.1801
   53MOL   C29717041   2.353   7.469   7.052 -0.1587 -0.2700  0.3264
   53MOL   C29817042   2.054   7.510   7.011  0.7625 -0.1119  0.1812
   53MOL   H29917043   2.111   7.714   7.013 -0.4507  0.3111 -0.9532
   53MOL   H30017044   2.456   7.715   7.339 -0.5308 -0.4827  0.8139
   53MOL   H30117045   2.585   7.506   7.301  0.5102 -0.8237 -0.7585
   53MOL   H30217046   2.532   7.366   7.100 -0.1253 -1.3238  2.7098
   53MOL   H30317047   2.323   7.399   6.976 -1.1403  0.8895 -0.3720
   53MOL   H30417048   2.052   7.497   7.120 -1.7392  0.3789  0.2280
   53MOL   H30517049   2.075   7.414   6.966  3.0630 -0.3516  1.6864
   53MOL   C30617050   1.913   7.545   6.961  0.2149  0.1340  0.2147
   53MOL   C30717051   1.866   7.690   7.003 -0.3039  0.8698 -0.4013
   53MOL   C30817052   1.840   7.783   6.906  0.4796  0.1147 -0.7138
   53MOL  Cl30917053   1.829   7.740   6.734 -0.0557 -0.1115 -0.3727
   53MOL   C31017054   1.806   7.918   6.944 -0.7107  0.4017 -0.1475
   53MOL   C31117055   1.797   7.947   7.082  1.2362  0.3900  0.6691
   53MOL   C31217056   1.833   7.849   7.177  0.0033 -0.7558  0.4837
   53MOL   C31317057   1.874   7.728   7.137 -0.4404 -0.3381 -0.3185
   53MOL   C31417058   1.800   7.445   7.002  0.7516 -0.5851 -0.0449
   53MOL   H31517059   1.908   7.539   6.853 -1.1552  1.7108  0.1677
   53MOL   H31617060   1.783   7.990   6.867 -1.5583 -1.5374 -1.7562
   53MOL   H31717061   1.774   8.046   7.119  2.1542  1.4235 -1.4784
   53MOL   H31817062   1.838   7.879   7.280  0.9833 -1.4919  0.6572
   53MOL   H31917063   1.898   7.652   7.209  0.1552 -2.5115 -2.7337
   53MOL   H32017064   1.780   7.442   7.109  0.0689 -2.0196 -0.2072
   53MOL   H32117065   1.828   7.343   6.976 -0.5524 -0.1661 -3.3062
   53MOL   H32217066   1.710   7.468   6.945  0.8487  0.8859  0.3653
   54MOL     C117067   6.290   2.714   0.278  0.5180 -0.2211  0.0568
   54MOL     C217068   6.391   2.721   0.157  0.0367  0.6451  0.0407
   54MOL     C317069   6.372   2.658   0.031  0.0550  1.0813 -0.5048
   54MOL    Cl417070   6.243   2.552   0.004  0.0357  0.1423 -0.2679
   54MOL     C517071   6.463   2.669   8.351 -0.2968  0.0107 -0.0714
   54MOL     C617072   6.582   2.738   8.365 -0.3499  0.2353 -0.8492
   54MOL     C717073   6.610   2.794   0.072  0.5182 -0.7568  0.4107
   54MOL     C817074   6.515   2.789   0.178  0.2010  0.2050  0.0909
   54MOL     C917075   6.246   2.859   0.326 -0.4459  0.3806 -0.6376
   54MOL    H1017076   6.203   2.659   0.243  1.7710 -1.9598 -0.3901
   54MOL    H1117077   6.441   2.615   8.260  1.0175  0.1073 -0.4450
   54MOL    H1217078   6.656   2.742   8.287 -1.2404 -0.7706 -1.7628
   54MOL    H1317079   6.701   2.849   0.092  0.1425 -0.1838  0.5785
   54MOL    H1417080   6.529   2.831   0.277 -0.2438  2.1685 -0.6501
   54MOL    H1517081   6.203   2.915   0.243 -1.4458 -0.3545 -0.6381
   54MOL    H1617082   6.330   2.917   0.363 -0.1559 -0.4998  0.1155
   54MOL    H1717083   6.342   2.664   0.359  0.9019 -1.6612 -1.0648
   54MOL    C1817084   6.122   2.872   0.431  0.3367 -0.2118  0.1425
   54MOL    C1917085   5.994   2.782   0.403  0.3862  0.9300 -0.5861
   54MOL    C2017086   5.902   2.741   0.505 -0.6333  0.7339  0.3798
   54MOL   Cl2117087   5.918   2.816   0.661 -0.3678  0.0182  0.1900
   54MOL    C2217088   5.796   2.660   0.474 -0.3907  0.6933 -0.2623
   54MOL    C2317089   5.780   2.608   0.344 -0.4507 -0.3977  0.4430
   54MOL    C2417090   5.869   2.638   0.239 -0.5186 -0.2139 -0.2309
   54MOL    C2517091   5.969   2.730   0.270 -0.0276  0.1290  0.2144
   54MOL    C2617092   6.088   3.027   0.455  0.0519 -0.2677  0.4154
   54MOL    H2717093   6.150   2.820   0.522  1.5576 -1.2598 -0.8132
   54MOL    H2817094   5.725   2.626   0.548  1.2431 -2.0946  0.1045
   54MOL    H2917095   5.700   2.547   0.305 -2.3686  0.1298  3.3878
   54MOL    H3017096   5.850   2.599   0.140 -1.3689  3.1397 -1.4404
   54MOL    H3117097   6.036   2.764   0.192  0.5574 -1.0523  0.1920
   54MOL    H3217098   5.997   3.033   0.514  0.0376 -0.3536  0.4006
   54MOL    H3317099   6.059   3.082   0.365  3.2174 -0.7740 -0.9655
   54MOL    C3417100   6.207   3.109   0.517  0.3133 -0.9513 -0.7886
   54MOL    C3517101   6.231   3.056   0.661 -0.6076  0.8330  0.3525
   54MOL    C3617102   6.338   2.969   0.703 -1.3534  0.2327 -0.5180
   54MOL   Cl3717103   6.458   2.902   0.597 -0.0375  0.2662  0.1050
   54MOL    C3817104   6.350   2.938   0.841 -0.7698  0.7155 -0.4453
   54MOL    C3917105   6.254   2.984   0.935  0.8683 -0.0485  0.5842
   54MOL    C4017106   6.139   3.048   0.889  0.3792  0.2940 -0.3550
   54MOL    C4117107   6.131   3.081   0.755 -0.0710 -0.3415 -0.5068
   54MOL    C4217108   6.203   3.266   0.508 -0.0679 -0.0978 -0.4927
   54MOL    H4317109   6.300   3.085   0.466  2.4097 -1.0250  2.8848
   54MOL    H4417110   6.430   2.876   0.877 -0.9950 -0.1197 -1.3339
   54MOL    H4517111   6.284   2.954   1.034 -0.9016 -3.4379  0.1928
   54MOL    H4617112   6.061   3.077   0.958  2.5596  0.9043  1.9013
   54MOL    H4717113   6.039   3.122   0.717  0.4461 -0.6967 -2.1739
   54MOL    H4817114   6.101   3.293   0.536 -1.2040 -2.6528 -2.0389
   54MOL    H4917115   6.205   3.292   0.403  1.3323 -1.4137 -0.8041
   54MOL    C5017116   6.310   3.327   0.599  0.5281 -0.0847 -0.7285
   54MOL    C5117117   6.293   3.484   0.608 -0.4781 -0.3272  1.0115
   54MOL    C5217118   6.267   3.542   0.732 -0.1897 -0.2179 -0.7860
   54MOL   Cl5317119   6.240   3.450   0.880 -0.1073  0.0201  0.1225
   54MOL    C5417120   6.272   3.679   0.751 -0.1161  0.1984 -0.1339
   54MOL    C5517121   6.308   3.760   0.640 -0.2866  0.4036  0.2167
   54MOL    C5617122   6.323   3.703   0.514  1.3088  0.3953  0.6461
   54MOL    C5717123   6.314   3.567   0.496  0.3109 -0.1410  0.1044
   54MOL    C5817124   6.460   3.284   0.565 -0.7779  0.4198 -0.2825
   54MOL    H5917125   6.287   3.292   0.700 -1.1879  0.3055 -0.9601
   54MOL    H6017126   6.243   3.720   0.846  1.2361  1.8063 -0.3977
   54MOL    H6117127   6.311   3.868   0.646  2.0979  0.3728 -0.1663
   54MOL    H6217128   6.346   3.768   0.430 -1.7480  1.8054  0.8328
   54MOL    H6317129   6.317   3.530   0.395  0.1014 -0.3237  0.1637
   54MOL    H6417130   6.460   3.285   0.456  0.1304 -0.0358 -0.2908
   54MOL    H6517131   6.484   3.189   0.612  1.9998  0.7845 -0.8457
   54MOL    C6617132   6.574   3.374   0.610 -0.3786  0.4289  0.0610
   54MOL    C6717133   6.707   3.343   0.541 -0.1957  0.0323  0.3555
   54MOL    C6817134   6.786   3.435   0.467  0.1443 -0.2587 -0.1410
   54MOL   Cl6917135   6.732   3.596   0.428  0.0692 -0.1452  0.2729
   54MOL    C7017136   6.915   3.401   0.423 -0.3253  0.5050  0.4396
   54MOL    C7117137   6.966   3.270   0.435  0.3740 -0.9610 -0.4217
   54MOL    C7217138   6.880   3.176   0.498  0.6869  0.4771  0.6703
   54MOL    C7317139   6.758   3.209   0.555 -0.1775 -0.1122  0.1796
   54MOL    C7417140   6.589   3.379   0.767 -0.6428  0.2843  0.0886
   54MOL    H7517141   6.555   3.475   0.573  0.4248  0.5071 -0.1478
   54MOL    H7617142   6.975   3.468   0.363 -0.1989 -1.1020 -1.2484
   54MOL    H7717143   7.051   3.241   0.374  2.7283 -0.2677  2.3975
   54MOL    H7817144   6.913   3.075   0.517 -1.5955 -0.3734  0.2647
   54MOL    H7917145   6.706   3.135   0.614 -1.8285  0.9848  0.1060
   54MOL    H8017146   6.623   3.281   0.802  0.6264  1.2663  1.6435
   54MOL    H8117147   6.490   3.410   0.801 -1.6937 -2.8027  0.0685
   54MOL    C8217148   6.696   3.485   0.811  0.2409 -0.0544 -0.0633
   54MOL    C8317149   6.778   3.443   0.932 -0.5953  0.1911  0.1170
   54MOL    C8417150   6.916   3.419   0.928 -0.6270 -0.4321  0.1017
   54MOL   Cl8517151   7.014   3.430   0.784 -0.2294 -0.1619 -0.0706
   54MOL    C8617152   6.984   3.373   1.045 -0.0896 -0.5667 -0.1276
   54MOL    C8717153   6.919   3.356   1.167  0.1527  0.2188  0.7290
   54MOL    C8817154   6.778   3.381   1.170 -0.3354  1.0062  0.9943
   54MOL    C8917155   6.708   3.427   1.059 -0.3529  0.0516 -0.4974
   54MOL    C9017156   6.649   3.634   0.812 -0.2702 -0.1369 -0.6170
   54MOL    H9117157   6.767   3.488   0.729  2.2275  1.5992  1.6580
   54MOL    H9217158   7.089   3.351   1.035 -0.2006 -1.4026  0.5204
   54MOL    H9317159   6.978   3.318   1.249  0.4843 -0.9494 -0.0354
   54MOL    H9417160   6.721   3.367   1.261 -1.4380  0.2157  0.1977
   54MOL    H9517161   6.602   3.440   1.070 -0.7766 -2.9604 -0.6556
   54MOL    H9617162   6.577   3.641   0.893  0.4694  0.0929  0.0219
   54MOL    H9717163   6.609   3.661   0.714  0.1515  0.2265 -0.6955
   54MOL    C9817164   6.752   3.747   0.854  0.7234  0.6637  0.1634
   54MOL    C9917165   6.675   3.877   0.886  0.2354 -0.2390  0.0607
   54MOL   C10017166   6.640   3.914   1.020 -0.1473  0.1188  0.1737
   54MOL  Cl10117167   6.663   3.802   1.150 -0.3526 -0.0895 -0.2009
   54MOL   C10217168   6.596   4.044   1.043 -0.2273  0.5646  0.1027
   54MOL   C10317169   6.576   4.129   0.935  0.3657  0.1100  0.5215
   54MOL   C10417170   6.586   4.089   0.802  0.1621 -0.9181  0.1091
   54MOL   C10517171   6.635   3.962   0.778 -0.4424  0.3670 -0.2231
   54MOL   C10617172   6.868   3.763   0.760 -0.2154 -0.8173 -0.4209
   54MOL   H10717173   6.795   3.711   0.947 -1.2478  1.1662  1.3042
   54MOL   H10817174   6.570   4.074   1.144 -1.5216 -1.3238  0.3638
   54MOL   H10917175   6.542   4.230   0.953 -2.1578 -0.1781 -2.2158
   54MOL   H11017176   6.553   4.141   0.714  0.6686  2.1281  1.6391
   54MOL   H11117177   6.651   3.927   0.677 -1.1954 -0.0091 -0.2161
   54MOL   H11217178   6.847   3.815   0.666 -2.3133  2.5955  1.8145
   54MOL   H11317179   6.894   3.662   0.729 -1.7675 -1.6184  0.8580
   54MOL   C11417180   6.997   3.825   0.831 -0.4678  1.3185  0.4450
   54MOL   C11517181   6.984   3.965   0.881  0.0536  0.6418 -0.4978
   54MOL   C11617182   6.997   3.992   1.025  0.1109  0.6129 -0.3352
   54MOL  Cl11717183   7.012   3.869   1.140 -0.2429 -0.0370 -0.0165
   54MOL   C11817184   6.975   4.121   1.070 -0.7455 -0.3577  0.8721
   54MOL   C11917185   6.944   4.227   0.979 -1.0355 -0.0491 -0.1891
   54MOL   C12017186   6.909   4.197   0.847 -0.1374  0.1323 -0.1822
   54MOL   C12117187   6.940   4.068   0.798  0.2063  0.3309 -0.2635
   54MOL   C12217188   7.123   3.807   0.739  0.2673 -1.0442 -0.2589
   54MOL   H12317189   7.020   3.757   0.912  0.4394 -1.7213 -2.2615
   54MOL   H12417190   6.992   4.128   1.176 -0.7816 -0.2252  0.8694
   54MOL   H12517191   6.918   4.325   1.017 -2.7956 -0.3306 -0.6060
   54MOL   H12617192   6.867   4.274   0.783 -0.5988 -0.2518 -0.3436
   54MOL   H12717193   6.929   4.051   0.692 -0.8000  1.7791 -0.4032
   54MOL   H12817194   7.126   3.879   0.657  4.2012 -0.1718  0.5169
   54MOL   H12917195   7.126   3.702   0.712 -0.8731 -1.2250  0.2736
   54MOL   C13017196   7.249   3.815   0.817  0.5650  0.3259 -0.2005
   54MOL   C13117197   7.368   3.827   0.713  1.1154 -0.0790  0.1156
   54MOL   C13217198   7.426   3.952   0.681 -0.4060  0.8467 -0.7556
   54MOL  Cl13317199   7.379   4.097   0.769 -0.2233 -0.1060 -0.0087
   54MOL   C13417200   7.520   3.966   0.579 -0.5874  0.1130  0.6408
   54MOL   C13517201   7.566   3.851   0.507 -0.4275  0.4171 -0.8363
   54MOL   C13617202   7.509   3.728   0.544 -0.2703  0.2530  0.2941
   54MOL   C13717203   7.412   3.715   0.644  0.7143  0.0751  0.7160
   54MOL   C13817204   7.272   3.706   0.918  0.6226  0.8110  0.3559
   54MOL   H13917205   7.246   3.908   0.873  1.3324  0.2828 -0.0710
   54MOL   H14017206   7.577   4.057   0.570 -0.0577 -0.2497  0.2854
   54MOL   H14117207   7.633   3.857   0.423 -1.4030 -1.7651 -1.8065
   54MOL   H14217208   7.547   3.639   0.496 -2.7413  0.0276 -1.2965
   54MOL   H14317209   7.357   3.623   0.652 -2.6219  1.9845  0.8040
   54MOL   H14417210   7.249   3.611   0.870 -1.5793  1.0434  0.9154
   54MOL   H14517211   7.214   3.725   1.008  0.2609 -0.7680  0.4744
   54MOL   C14617212   7.411   3.689   0.984 -0.5397  0.4969  0.9891
   54MOL   C14717213   7.394   3.566   1.075 -0.3916  0.0976 -0.1235
   54MOL   C14817214   7.438   3.436   1.034 -0.0891 -0.5710 -0.0485
   54MOL  Cl14917215   7.514   3.413   0.876 -0.1880 -0.3805 -0.0938
   54MOL   C15017216   7.404   3.320   1.104  0.3972  0.0182 -0.0524
   54MOL   C15117217   7.327   3.328   1.222  0.7487  0.1651  0.1192
   54MOL   C15217218   7.293   3.457   1.270  0.7474 -0.0838  0.5715
   54MOL   C15317219   7.332   3.573   1.201 -0.3231  0.3119 -0.3946
   54MOL   C15417220   7.472   3.818   1.049 -0.3571 -0.6964 -0.6534
   54MOL   H15517221   7.484   3.664   0.907 -0.6809  1.7206  0.4422
   54MOL   H15617222   7.421   3.229   1.047  0.1845  0.4549 -0.8117
   54MOL   H15717223   7.286   3.241   1.271 -2.9837  0.4965 -2.2309
   54MOL   H15817224   7.227   3.464   1.355  0.5618 -0.5658  0.4730
   54MOL   H15917225   7.298   3.670   1.234  0.6522  0.7289 -0.5918
   54MOL   H16017226   7.413   3.836   1.139 -0.9142 -1.4429 -0.8710
   54MOL   H16117227   7.483   3.899   0.976 -0.4196  1.3334  1.5290
   54MOL   C16217228   7.616   3.796   1.102  1.1902 -0.2033  0.5775
   54MOL   C16317229   7.659   3.890   1.216 -0.9267 -0.7023  0.4152
   54MOL   C16417230   7.677   3.844   1.350  0.0037  0.4192  0.0815
   54MOL  Cl16517231   7.647   3.681   1.382 -0.0519 -0.3156  0.0847
   54MOL   C16617232   7.731   3.924   1.455  0.1795 -0.1757  0.5071
   54MOL   C16717233   7.753   4.064   1.427  0.6829 -0.9221  0.4251
   54MOL   C16817234   7.741   4.107   1.290 -0.4937 -0.1804  0.1663
   54MOL   C16917235   7.688   4.023   1.189 -0.1461  0.4148  0.1225
   54MOL   C17017236   7.717   3.795   0.981  0.1502  0.2234 -0.1034
   54MOL   H17117237   7.626   3.699   1.152 -0.7395 -0.8784 -0.2941
   54MOL   H17217238   7.741   3.879   1.553  1.1463 -0.2712  0.3771
   54MOL   H17317239   7.796   4.129   1.502  0.5212  1.3459 -1.3635
   54MOL   H17417240   7.763   4.210   1.267 -1.7717 -0.0729 -0.6823
   54MOL   H17517241   7.694   4.057   1.087  0.3923  1.9926  0.6669
   54MOL   H17617242   7.701   3.889   0.928  3.2973 -0.3921 -2.2804
   54MOL   H17717243   7.685   3.721   0.908 -0.3597 -0.4327  0.7788
   54MOL   C17817244   7.867   3.766   1.010  0.0363 -0.4839 -0.8464
   54MOL   C17917245   7.950   3.801   0.884  0.7370 -0.5956 -0.3128
   54MOL   C18017246   8.039   3.912   0.869  0.2354  0.3700  0.5956
   54MOL  Cl18117247   8.072   4.011   1.007  0.0163 -0.0885 -0.1395
   54MOL   C18217248   8.110   3.933   0.752  0.3182 -0.3302 -0.3344
   54MOL   C18317249   8.084   3.853   0.639 -0.1485 -0.5578  0.0575
   54MOL   C18417250   7.992   3.747   0.647  0.2581  0.0919  0.7480
   54MOL   C18517251   7.924   3.725   0.771  0.3370  0.1102  0.1273
   54MOL   C18617252   7.894   3.623   1.075 -0.3074  0.5816 -0.2632
   54MOL   H18717253   7.901   3.837   1.086 -1.3237  0.1299 -0.7952
   54MOL   H18817254   8.184   4.013   0.751 -0.4789  0.4422  1.2904
   54MOL   H18917255   8.151   3.872   0.557 -1.3363  0.5302 -0.6808
   54MOL   H19017256   7.972   3.678   0.566  1.1196 -0.6416  1.1533
   54MOL   H19117257   7.857   3.640   0.772  0.7815 -0.2432  0.1340
   54MOL   H19217258   7.865   3.554   0.995 -0.6642  0.7117 -0.2494
   54MOL   H19317259   7.825   3.596   1.155 -0.4465 -0.2731 -0.6627
   54MOL   C19417260   8.041   3.610   1.135 -0.1988 -0.5376 -0.1859
   54MOL   C19517261   8.099   3.469   1.140  0.0385 -0.3638 -0.0356
   54MOL   C19617262   8.198   3.433   1.047 -0.5911 -0.0848  0.5831
   54MOL  Cl19717263   8.247   3.540   0.914  0.2948  0.5749  0.0545
   54MOL   C19817264   8.257   3.309   1.052 -0.0884  0.0544  1.3064
   54MOL   C19917265   8.220   3.216   1.144 -0.0175  0.6768 -0.1063
   54MOL   C20017266   8.114   3.244   1.240  0.4322  0.3152  0.3422
   54MOL   C20117267   8.046   3.371   1.230 -0.9354  0.1706 -0.0137
   54MOL   C20217268   8.047   3.677   1.276 -0.0310 -0.6011  0.4540
   54MOL   H20317269   8.101   3.669   1.065  1.4702 -2.4797 -0.4430
   54MOL   H20417270   8.339   3.278   0.989  0.4036 -0.1616  2.0447
   54MOL   H20517271   8.267   3.119   1.141 -0.2721  0.5369  0.3602
   54MOL   H20617272   8.073   3.166   1.302  0.7225  0.4574  0.7183
   54MOL   H20717273   7.958   3.396   1.288 -1.0060 -1.0137  0.4155
   54MOL   H20817274   8.041   3.607   1.359  0.9175 -0.5025  0.6064
   54MOL   H20917275   7.959   3.741   1.286  1.4366  1.6896 -0.7763
   54MOL   C21017276   8.166   3.778   1.286 -0.2460  0.2153 -0.2491
   54MOL   C21117277   8.305   3.702   1.276 -0.4764 -0.6161 -0.1132
   54MOL   C21217278   8.400   3.745   1.180 -0.7311 -0.2489  0.5408
   54MOL  Cl21317279   8.376   3.881   1.077  0.2302 -0.6045 -0.2244
   54MOL   C21417280   0.102   3.678   1.171 -0.0815  0.4837 -0.0473
   54MOL   C21517281   0.127   3.564   1.247 -0.4767 -0.0995 -0.9135
   54MOL   C21617282   0.038   3.524   1.350  0.3260  0.1972 -0.3600
   54MOL   C21717283   8.332   3.589   1.365  0.7395 -0.7316 -0.1011
   54MOL   C21817284   8.164   3.868   1.417 -0.2802 -0.9948  0.3501
   54MOL   H21917285   8.158   3.836   1.194  1.6764  0.4029 -0.3296
   54MOL   H22017286   0.180   3.712   1.105 -0.7103 -0.8701 -1.5337
   54MOL   H22117287   0.222   3.516   1.230  0.2845  1.8124 -2.2006
   54MOL   H22217288   0.059   3.440   1.414 -0.0414 -0.1402 -0.6719
   54MOL   H22317289   8.267   3.554   1.444  0.7203  0.3797  0.3828
   54MOL   H22417290   8.230   3.820   1.490 -0.2692  1.0507  1.7370
   54MOL   H22517291   8.060   3.886   1.443 -0.0513 -2.0245  2.0671
   54MOL   C22617292   8.231   4.012   1.398 -0.5924  0.3468  0.1862
   54MOL   C22717293   8.298   4.047   1.536 -0.0772  0.0809  0.0270
   54MOL   C22817294   0.017   4.079   1.540  0.2473 -0.6532 -0.1623
   54MOL  Cl22917295   0.125   4.047   1.412  0.1007 -0.0891 -0.2569
   54MOL   C23017296   0.067   4.148   1.650  0.3393  0.1672 -0.1031
   54MOL   C23117297   8.416   4.164   1.767 -0.1839 -0.1138 -0.0682
   54MOL   C23217298   8.279   4.126   1.763 -0.1410  0.3671  0.3842
   54MOL   C23317299   8.218   4.069   1.647 -0.3031 -0.8600 -0.3522
   54MOL   C23417300   8.120   4.119   1.359 -0.2810  0.7177 -0.2509
   54MOL   H23517301   8.306   4.003   1.320 -1.7494 -3.0229 -0.6333
   54MOL   H23617302   0.172   4.171   1.647  0.6859 -0.7537  3.1679
   54MOL   H23717303   0.046   4.215   1.847 -0.7282  1.3640 -0.6461
   54MOL   H23817304   8.214   4.140   1.848  0.9352 -1.4049  1.5186
   54MOL   H23917305   8.113   4.047   1.653 -0.4876  0.2674  0.8889
   54MOL   H24017306   8.041   4.113   1.434  1.1374 -1.5821  1.1126
   54MOL   H24117307   8.078   4.081   1.266 -0.2420 -0.8595  0.3674
   54MOL   C24217308   8.174   4.261   1.335  0.5893  0.0513 -0.1469
   54MOL   C24317309   8.056   4.357   1.313 -0.0820  0.3656  0.1525
   54MOL   C24417310   8.014   4.443   1.424  0.5536  0.2891  0.4015
   54MOL  Cl24517311   8.096   4.456   1.572  0.5697  0.1695  0.3302
   54MOL   C24617312   7.904   4.534   1.413 -0.1885  0.9609  0.4502
   54MOL   C24717313   7.840   4.541   1.295 -0.0524 -0.0194 -0.3817
   54MOL   C24817314   7.876   4.456   1.188 -0.0672  0.1599  0.0372
   54MOL   C24917315   7.974   4.360   1.199  0.0207 -0.1551 -0.3297
   54MOL   C25017316   8.269   4.266   1.209 -0.2699 -0.2899  0.9761
   54MOL   H25117317   8.223   4.285   1.430  0.5279  2.2756 -0.6392
   54MOL   H25217318   7.893   4.606   1.493  4.3111  1.2155  0.9497
   54MOL   H25317319   7.763   4.615   1.277 -0.6827  0.0933  2.5218
   54MOL   H25417320   7.818   4.461   1.097 -2.7231  0.2274  1.6756
   54MOL   H25517321   7.999   4.296   1.116 -0.1939  1.1675 -1.4294
   54MOL   H25617322   8.213   4.267   1.116  1.2103 -2.5030  0.0301
   54MOL   H25717323   8.336   4.180   1.207  0.4168  0.2638 -0.0568
   54MOL   C25817324   8.350   4.400   1.208 -0.3070 -0.2583 -0.7063
   54MOL   C25917325   8.402   4.422   1.070  0.3492  0.3216 -0.4996
   54MOL   C26017326   0.088   4.352   1.004  0.1959  0.2613 -0.3393
   54MOL  Cl26117327   0.184   4.228   1.073  0.4182 -0.1569 -0.1067
   54MOL   C26217328   0.123   4.394   0.874 -0.7462  0.3754  0.1266
   54MOL   C26317329   0.054   4.496   0.804 -0.4956  0.0258 -0.7021
   54MOL   C26417330   8.365   4.557   0.863 -0.0322  0.6793 -0.3335
   54MOL   C26517331   8.335   4.522   0.997  0.1867  0.7144 -0.1016
   54MOL   C26617332   0.039   4.407   1.319  0.1244  0.6587 -0.2120
   54MOL   H26717333   8.290   4.490   1.218  3.4085  2.2749 -0.5647
   54MOL   H26817334   0.205   4.346   0.823 -1.4255  1.5550 -2.1482
   54MOL   H26917335   0.076   4.509   0.699 -1.4236  0.0849 -0.8944
   54MOL   H27017336   8.304   4.628   0.811  1.1303  0.1414 -2.5176
   54MOL   H27117337   8.259   4.583   1.043  0.4601  1.0405 -0.0777
   54MOL   H27217338   0.123   4.344   1.292 -0.9618 -0.8698 -0.0995
   54MOL   H27317339   0.003   4.359   1.410 -2.0496  0.4574 -1.1371
   54MOL   C27417340   0.096   4.543   1.349  0.3564 -0.5846 -0.4580
   54MOL   C27517341   0.225   4.540   1.430  0.4543  0.0424  0.0114
   54MOL   C27617342   0.347   4.609   1.398 -0.2953 -0.4025  1.3056
   54MOL  Cl27717343   0.365   4.715   1.264 -0.1448 -0.2255  0.1856
   54MOL   C27817344   0.452   4.598   1.489  0.5750 -0.0594  0.5911
   54MOL   C27917345   0.434   4.533   1.610 -0.1893  0.2275 -0.0017
   54MOL   C28017346   0.318   4.458   1.638 -0.0634 -0.7724 -0.4620
   54MOL   C28117347   0.209   4.462   1.548 -0.5130 -0.3554 -0.0525
   54MOL   C28217348   8.412   4.640   1.416 -0.1161 -0.6317  0.0001
   54MOL   H28317349   0.117   4.585   1.250 -0.9350  1.1741 -0.0109
   54MOL   H28417350   0.546   4.645   1.465  1.6930 -2.9612 -0.9148
   54MOL   H28517351   0.514   4.531   1.682 -0.3300 -0.7479  0.1301
   54MOL   H28617352   0.297   4.418   1.736 -0.6937  1.9915  0.5885
   54MOL   H28717353   0.116   4.409   1.567 -0.6816 -0.5464 -1.3932
   54MOL   H28817354   0.025   4.692   1.505 -0.0720  1.4620 -1.2148
   54MOL   H28917355   8.334   4.575   1.457 -2.0951  1.5503 -0.2182
   54MOL   C29017356   8.352   4.749   1.329  0.4571 -0.2604 -0.0827
   54MOL   C29117357   0.032   4.866   1.318 -0.6024  0.5136  0.3118
   54MOL   C29217358   0.117   4.891   1.202 -0.2538 -0.7877 -0.6178
   54MOL  Cl29317359   0.103   4.802   1.054 -0.4033 -0.1124 -0.0432
   54MOL   C29417360   0.218   4.985   1.206 -0.6414 -0.5174 -0.5207
   54MOL   C29517361   0.242   5.056   1.327 -0.8397 -0.2402 -0.1951
   54MOL   C29617362   0.171   5.032   1.447  0.5432  0.0539  0.4349
   54MOL   C29717363   0.063   4.951   1.433 -0.4738  0.5182  0.2449
   54MOL   C29817364   8.213   4.805   1.382  0.2226 -0.2575  0.0293
   54MOL   H29917365   8.335   4.711   1.228 -0.8365  0.1075 -0.0168
   54MOL   H30017366   0.283   5.005   1.122  2.8621  1.0560  2.4451
   54MOL   H30117367   0.314   5.136   1.332 -0.7130 -0.4187  1.1059
   54MOL   H30217368   0.197   5.081   1.540 -0.7973 -1.1946  1.4763
   54MOL   H30317369   8.417   4.941   1.517 -0.2171  0.5664  0.4548
   54MOL   H30417370   8.236   4.811   1.488  0.2335  1.2551 -0.0481
   54MOL   H30517371   8.132   4.734   1.365 -0.8840  1.0030 -0.0292
   54MOL   C30617372   8.154   4.936   1.324  0.5065  0.1174 -0.4952
   54MOL   C30717373   8.025   4.967   1.400  0.8972 -0.6578 -0.2983
   54MOL   C30817374   8.026   5.055   1.511 -0.1041  0.4010  0.5056
   54MOL  Cl30917375   8.160   5.154   1.557 -0.2292 -0.0760 -0.2933
   54MOL   C31017376   7.911   5.063   1.587  0.0231 -0.1944  0.0059
   54MOL   C31117377   7.797   4.994   1.558 -0.7442 -0.1796  0.0730
   54MOL   C31217378   7.795   4.919   1.437 -0.3616  0.0904  0.5332
   54MOL   C31317379   7.909   4.899   1.363 -0.7296 -0.0709  0.5396
   54MOL   C31417380   8.142   4.947   1.173  0.2125  0.6048 -0.1930
   54MOL   H31517381   8.221   5.016   1.357 -1.2856  1.2410  0.5099
   54MOL   H31617382   7.916   5.130   1.671 -1.1253  1.2089 -1.0313
   54MOL   H31717383   7.709   4.982   1.619 -0.5586 -0.0445  0.3667
   54MOL   H31817384   7.706   4.866   1.405 -0.7664  1.4663 -0.6955
   54MOL   H31917385   7.909   4.827   1.282 -0.1421 -0.6410  1.0464
   54MOL   H32017386   8.103   5.046   1.149 -2.2341  0.0785  1.4073
   54MOL   H32117387   8.093   4.869   1.114  1.3243  1.1372 -1.8500
   54MOL   H32217388   8.242   4.954   1.130 -0.2590  0.7981 -1.2973
   55MOL     C117389   0.040   1.650   6.313  0.1736 -0.7284 -0.1740
   55MOL     C217390   0.178   1.678   6.377 -0.2010 -0.0748  0.1181
   55MOL     C317391   0.289   1.597   6.345  0.0627 -0.2778  0.2950
   55MOL    Cl417392   0.288   1.459   6.244 -0.3564 -0.2077 -0.1401
   55MOL     C517393   0.414   1.624   6.408  0.4774 -0.7268 -0.1900
   55MOL     C617394   0.428   1.743   6.486 -0.2843  0.3729 -0.1630
   55MOL     C717395   0.318   1.821   6.525  0.1124 -0.2513  0.4903
   55MOL     C817396   0.190   1.781   6.472 -0.7033 -0.1115 -0.1358
   55MOL     C917397   8.377   1.560   6.403  0.3165 -0.0594 -0.9364
   55MOL    H1017398   8.419   1.747   6.285 -1.2217 -0.6897  1.8697
   55MOL    H1117399   0.506   1.575   6.379  0.3667 -2.1123  1.7049
   55MOL    H1217400   0.524   1.779   6.521  1.7751 -1.5491 -3.5368
   55MOL    H1317401   0.337   1.896   6.600 -0.6867  0.2285  0.2196
   55MOL    H1417402   0.106   1.833   6.514  0.6367  1.5915  0.5098
   55MOL    H1517403   8.357   1.606   6.500 -3.4538  0.9156 -2.1381
   55MOL    H1617404   0.014   1.469   6.422  0.9810  1.0582  2.8363
   55MOL    H1717405   0.051   1.598   6.218 -0.7696 -1.8327  0.3097
   55MOL    C1817406   8.246   1.515   6.343 -0.0007 -0.4524  0.0699
   55MOL    C1917407   8.161   1.629   6.283 -0.3315 -0.6028 -0.1960
   55MOL    C2017408   8.094   1.610   6.155  0.1531 -0.7033 -0.1194
   55MOL   Cl2117409   8.077   1.457   6.072 -0.3230 -0.0307  0.0245
   55MOL    C2217410   8.030   1.722   6.095 -0.0740  0.4776 -1.1066
   55MOL    C2317411   8.014   1.846   6.159  0.0533  0.1609  0.0663
   55MOL    C2417412   8.078   1.860   6.286 -0.1855 -0.7472 -1.0305
   55MOL    C2517413   8.145   1.754   6.344  0.6982 -0.3624 -0.3979
   55MOL    C2617414   8.170   1.435   6.440  0.3513  0.6548 -0.2891
   55MOL    H2717415   8.283   1.462   6.256  0.2348  2.2017 -1.5209
   55MOL    H2817416   7.978   1.705   6.001 -2.5575  1.0710  0.1318
   55MOL    H2917417   7.960   1.932   6.120 -1.9273  0.6952  3.7927
   55MOL    H3017418   8.075   1.955   6.338  2.9169 -0.8096 -0.6203
   55MOL    H3117419   8.198   1.765   6.437  2.1218  1.3839 -1.3815
   55MOL    H3217420   8.068   1.420   6.404  0.3068 -1.4687  0.6270
   55MOL    H3317421   8.150   1.498   6.526  0.5152  0.3584 -0.0379
   55MOL    C3417422   8.220   1.294   6.479  0.1488  0.0939 -0.6327
   55MOL    C3517423   8.237   1.212   6.348 -0.0596  0.8627  0.4301
   55MOL    C3617424   8.363   1.165   6.306  0.0095 -0.1735  1.6753
   55MOL   Cl3717425   0.090   1.200   6.381 -0.0044 -0.0129 -0.0661
   55MOL    C3817426   8.372   1.077   6.196  0.1352  0.1305  0.6277
   55MOL    C3917427   8.255   1.031   6.131 -0.9208 -0.1454  0.3342
   55MOL    C4017428   8.127   1.081   6.173 -0.6109 -0.0442  0.8028
   55MOL    C4117429   8.119   1.176   6.276 -0.1596  0.0997 -0.1414
   55MOL    C4217430   8.118   1.222   6.571  0.4847 -0.0517  0.0502
   55MOL    H4317431   8.313   1.313   6.533 -0.7969 -0.1802  1.1405
   55MOL    H4417432   0.051   1.052   6.163 -0.3068 -0.4551 -0.3089
   55MOL    H4517433   8.262   0.955   6.055 -0.2037 -0.2540  0.5057
   55MOL    H4617434   8.039   1.040   6.125 -0.3659 -0.6783  0.8856
   55MOL    H4717435   8.019   1.210   6.298 -0.1501  0.3285 -0.4538
   55MOL    H4817436   8.126   1.115   6.555  1.1906  0.2035 -1.3772
   55MOL    H4917437   8.019   1.251   6.533  0.8473  1.2253  0.0346
   55MOL    C5017438   8.123   1.255   6.720  0.9534  0.2557  0.0523
   55MOL    C5117439   8.263   1.233   6.780 -0.5358 -0.7262 -0.5038
   55MOL    C5217440   8.340   1.337   6.847  0.1998 -0.9021 -0.1710
   55MOL   Cl5317441   8.283   1.502   6.845 -0.1174  0.5445 -0.5849
   55MOL    C5417442   0.043   1.318   6.892 -0.1592  0.7184  0.0588
   55MOL    C5517443   0.108   1.197   6.873 -0.2286 -0.0875 -0.3057
   55MOL    C5617444   0.037   1.090   6.821  0.4663 -0.3809  0.3640
   55MOL    C5717445   8.326   1.107   6.776 -1.0116  0.2670  0.5740
   55MOL    C5817446   8.024   1.167   6.803 -0.2423 -0.2796  0.1144
   55MOL    H5917447   8.090   1.358   6.724 -2.2189 -0.6834 -0.7159
   55MOL    H6017448   0.093   1.405   6.931  2.2599 -0.4053 -0.4446
   55MOL    H6117449   0.212   1.185   6.899 -0.1269  1.3482 -0.0278
   55MOL    H6217450   0.091   0.997   6.817  1.7777  0.3804 -0.1571
   55MOL    H6317451   8.290   1.023   6.718 -0.7645  1.6833 -1.6548
   55MOL    H6417452   8.049   1.163   6.909 -1.5080 -2.4514  0.3708
   55MOL    H6517453   8.038   1.063   6.772 -0.4294 -0.8817  2.0027
   55MOL    C6617454   7.875   1.215   6.785 -0.9212  0.0806 -0.5260
   55MOL    C6717455   7.854   1.368   6.811  0.2792  0.1749 -0.2825
   55MOL    C6817456   7.757   1.442   6.742  0.2521  0.2595  0.2307
   55MOL   Cl6917457   7.653   1.364   6.634  0.5366 -0.0331  0.1657
   55MOL    C7017458   7.749   1.580   6.760 -0.9858 -0.9930  0.0215
   55MOL    C7117459   7.839   1.647   6.853 -0.6309 -0.1072  0.0616
   55MOL    C7217460   7.918   1.566   6.935 -0.5097  0.9744 -0.0420
   55MOL    C7317461   7.931   1.431   6.909 -0.2404  0.4251  0.4197
   55MOL    C7417462   7.784   1.130   6.867  0.2948 -0.1847 -0.2677
   55MOL    H7517463   7.851   1.197   6.680 -0.7218  0.3242 -0.6151
   55MOL    H7617464   7.676   1.638   6.704 -0.3843 -0.2874 -0.0426
   55MOL    H7717465   7.842   1.755   6.856 -1.4149 -0.0792  0.1081
   55MOL    H7817466   7.993   1.612   6.998  0.0732  0.9435 -0.7047
   55MOL    H7917467   7.997   1.380   6.977 -1.1027 -0.0665  0.8927
   55MOL    H8017468   7.683   1.171   6.862 -0.2997 -1.5696 -0.0630
   55MOL    H8117469   7.815   1.137   6.972 -0.1577 -2.9341  0.1008
   55MOL    C8217470   7.771   0.985   6.831  0.1575  0.0527  0.6457
   55MOL    C8317471   7.745   0.963   6.678  0.4595 -0.1343  0.4182
   55MOL    C8417472   7.838   0.893   6.602 -0.2281  0.3688 -0.2284
   55MOL   Cl8517473   7.982   0.826   6.665  0.1216  0.0101 -0.0372
   55MOL    C8617474   7.828   0.881   6.461 -0.0436  0.8887  0.4051
   55MOL    C8717475   7.716   0.940   6.393 -0.6799 -0.6804  0.3533
   55MOL    C8817476   7.618   1.007   6.472 -0.4936  0.0128 -0.0005
   55MOL    C8917477   7.636   1.024   6.611  0.3150  0.5482 -0.8592
   55MOL    C9017478   7.683   0.906   6.931 -0.8032 -0.8275 -0.3029
   55MOL    H9117479   7.870   0.948   6.858 -0.8422 -1.8556  1.7951
   55MOL    H9217480   7.910   0.834   6.409 -0.7514  0.0453  0.0480
   55MOL    H9317481   7.718   0.933   6.285  4.5797  3.0648  0.0017
   55MOL    H9417482   7.527   1.043   6.427 -0.4934 -3.3392 -2.9073
   55MOL    H9517483   7.571   1.084   6.673  0.4114 -0.7004  0.4751
   55MOL    H9617484   7.583   0.950   6.926 -1.0436 -1.3299  0.0286
   55MOL    H9717485   7.715   0.939   7.030  0.7702 -3.0870  0.0001
   55MOL    C9817486   7.671   0.750   6.913 -0.7736  0.1405  0.3290
   55MOL    C9917487   7.528   0.686   6.923  0.2331  0.6777 -0.0027
   55MOL   C10017488   7.481   0.587   6.831 -0.4586  0.4831  0.6100
   55MOL  Cl10117489   7.590   0.520   6.715 -0.1768  0.2731  0.3846
   55MOL   C10217490   7.350   0.536   6.843  0.5417  0.3196  0.1679
   55MOL   C10317491   7.264   0.580   6.944  0.5546  0.0566  0.3564
   55MOL   C10417492   7.313   0.673   7.042  0.5137  0.1059 -0.4657
   55MOL   C10517493   7.443   0.727   7.028  0.2071  0.2275  0.5447
   55MOL   C10617494   7.782   0.660   6.974  1.2525 -0.2232 -0.0541
   55MOL   H10717495   7.687   0.738   6.806  0.9608  1.6773  0.3820
   55MOL   H10817496   7.320   0.460   6.772  1.9458  0.8066 -0.9612
   55MOL   H10917497   7.162   0.545   6.953  0.0374  1.5635  0.5457
   55MOL   H11017498   7.251   0.699   7.126  1.2618  0.6280 -0.0739
   55MOL   H11117499   7.472   0.796   7.105 -1.2873  1.3009  0.1736
   55MOL   H11217500   7.880   0.708   6.975  0.7789  0.8323  3.5740
   55MOL   H11317501   7.795   0.580   6.900  2.3725  1.8807 -2.1737
   55MOL   C11417502   7.749   0.600   7.114  0.0158  0.5047 -0.5174
   55MOL   C11517503   7.888   0.582   7.175 -0.2938 -0.8702  0.5157
   55MOL   C11617504   7.927   0.658   7.294 -0.0858 -0.6301 -0.1985
   55MOL  Cl11717505   7.823   0.769   7.372  0.1151 -0.2730  0.3637
   55MOL   C11817506   8.050   0.635   7.352 -0.8225 -0.0992  0.0195
   55MOL   C11917507   8.140   0.535   7.300 -0.0877  0.1215 -0.4846
   55MOL   C12017508   8.104   0.464   7.186 -0.0887  1.2666  0.0180
   55MOL   C12117509   7.980   0.489   7.119  0.1909  0.2122  0.2196
   55MOL   C12217510   7.673   0.467   7.102  0.0496 -0.1414 -0.0175
   55MOL   H12317511   7.689   0.677   7.163  0.5123  0.1401  0.6923
   55MOL   H12417512   8.080   0.694   7.438 -0.0882  0.4716 -0.6197
   55MOL   H12517513   8.226   0.512   7.360 -1.6193  1.4370  2.3072
   55MOL   H12617514   8.172   0.385   7.159 -1.4916 -0.6028  1.8672
   55MOL   H12717515   7.961   0.434   7.028 -2.1599  0.0479  0.7855
   55MOL   H12817516   7.738   0.388   7.063 -1.0806 -1.6235  1.0317
   55MOL   H12917517   7.605   0.473   7.017  0.0332  1.7989  0.1271
   55MOL   C13017518   7.593   0.413   7.223  0.2252 -0.2992 -0.1767
   55MOL   C13117519   7.687   0.377   7.337 -0.3133 -0.0902  0.5092
   55MOL   C13217520   7.682   0.431   7.466 -0.0176 -0.2494 -0.4565
   55MOL  Cl13317521   7.567   0.541   7.514  0.0155 -0.1097 -0.5187
   55MOL   C13417522   7.770   0.385   7.566  0.1430  0.3686  0.1685
   55MOL   C13517523   7.862   0.287   7.541 -0.8904 -0.1664  0.2935
   55MOL   C13617524   7.878   0.234   7.415  0.2385  0.4781 -0.1121
   55MOL   C13717525   7.779   0.270   7.320  0.2912 -0.5231  0.1685
   55MOL   C13817526   7.500   0.298   7.182 -0.0800 -0.0786 -0.2964
   55MOL   H13917527   7.533   0.495   7.263 -0.6531 -0.7736 -0.5303
   55MOL   H14017528   7.754   0.414   7.669  0.2929 -0.1837  0.3468
   55MOL   H14117529   7.919   0.236   7.617  1.2811  0.1253 -1.0796
   55MOL   H14217530   7.941   0.152   7.383 -0.8896  0.0361 -1.2510
   55MOL   H14317531   7.769   0.208   7.233  1.8703 -0.9652  0.2882
   55MOL   H14417532   7.564   0.216   7.149  1.3737  1.0045 -0.2085
   55MOL   H14517533   7.442   0.344   7.102 -1.3329 -0.0174  0.6335
   55MOL   C14617534   7.407   0.244   7.294 -0.4474 -0.1119 -0.2413
   55MOL   C14717535   7.466   0.131   7.391  0.6429 -0.0580  0.8698
   55MOL   C14817536   7.472   0.155   7.532  0.1725 -0.1058  0.8044
   55MOL  Cl14917537   7.391   0.282   7.614  0.4991 -0.0024 -0.2348
   55MOL   C15017538   7.536   0.062   7.616 -0.4583  0.1091  0.1365
   55MOL   C15117539   7.595   8.370   7.564  0.2616  0.0486 -0.5772
   55MOL   C15217540   7.597   8.346   7.426  0.2007  0.3134  0.6938
   55MOL   C15317541   7.540   0.019   7.344  0.2833  0.2524 -0.3255
   55MOL   C15417542   7.264   0.220   7.248 -0.1482  0.0410 -0.0788
   55MOL   H15517543   7.396   0.330   7.359 -0.1504 -0.7618  0.6722
   55MOL   H15617544   7.533   0.076   7.723 -1.0076  2.2304 -0.1346
   55MOL   H15717545   7.663   8.317   7.629  1.4556  0.7704 -1.2169
   55MOL   H15817546   7.647   8.265   7.375 -0.1146  1.4184 -1.4126
   55MOL   H15917547   7.556   0.010   7.238 -0.0767 -0.3713 -0.3309
   55MOL   H16017548   7.251   0.306   7.183  2.1181 -0.7497 -1.6241
   55MOL   H16117549   7.202   0.227   7.338 -1.2646 -1.5008 -0.6961
   55MOL   C16217550   7.223   0.090   7.171  0.6863  0.2743  0.2874
   55MOL   C16317551   7.296   0.066   7.041  0.4792 -0.2411  0.4131
   55MOL   C16417552   7.368   8.364   7.014 -0.1527  0.0940  0.4808
   55MOL  Cl16517553   7.375   8.231   7.127  0.2107  0.3492  0.0072
   55MOL   C16617554   7.455   8.359   6.903 -0.4463 -0.2146  0.2060
   55MOL   C16717555   7.477   0.052   6.820 -0.3892  0.1591 -0.4007
   55MOL   C16817556   7.405   0.172   6.841 -0.7259  0.5924  0.5948
   55MOL   C16917557   7.312   0.172   6.946 -0.4404 -0.2482 -0.0011
   55MOL   C17017558   7.070   0.098   7.150 -0.9791  0.1022  0.4090
   55MOL   H17117559   7.256   0.011   7.238 -0.0650 -0.1964  0.1185
   55MOL   H17217560   7.507   8.267   6.884  2.0533  1.5745 -1.9858
   55MOL   H17317561   7.554   0.034   6.746 -0.5062  0.1219 -0.5146
   55MOL   H17417562   7.401   0.257   6.774  0.4951  0.4823  0.3601
   55MOL   H17517563   7.262   0.266   6.967 -1.2401 -0.5795 -0.3950
   55MOL   H17617564   7.048   0.168   7.070  1.2506 -0.9540 -1.1545
   55MOL   H17717565   7.022   0.131   7.243 -3.8473 -1.4637 -0.4567
   55MOL   C17817566   7.004   8.390   7.092 -0.5987  0.2075  0.9299
   55MOL   C17917567   6.859   8.417   7.046  0.9962 -0.4064  0.7102
   55MOL   C18017568   6.797   8.326   6.952 -0.2388 -0.5521 -0.3788
   55MOL  Cl18117569   6.879   8.189   6.887  0.4766  0.0654  0.4600
   55MOL   C18217570   6.663   8.349   6.913 -0.2950 -0.8040 -0.6304
   55MOL   C18317571   6.587   0.025   6.972 -0.0932 -0.3616 -0.4162
   55MOL   C18417572   6.647   0.120   7.060 -0.5734 -0.5316 -0.0666
   55MOL   C18517573   6.783   0.105   7.098  0.3206 -0.0049 -0.0574
   55MOL   C18617574   7.015   8.263   7.181  0.1365  0.3220  0.4667
   55MOL   H18717575   7.057   8.359   7.002  0.0732  0.6936  1.1574
   55MOL   H18817576   6.613   8.279   6.846  2.0463 -0.4517 -2.8129
   55MOL   H18917577   6.482   0.038   6.948 -0.3241 -0.3748  0.5800
   55MOL   H19017578   6.589   0.202   7.100  2.1826  1.6675 -0.4258
   55MOL   H19117579   6.824   0.167   7.177  0.4731 -2.0619  1.5195
   55MOL   H19217580   7.119   8.237   7.198 -0.6089 -2.0480  1.6745
   55MOL   H19317581   6.992   8.171   7.127 -0.9188  0.9096 -0.1014
   55MOL   C19417582   6.927   8.260   7.307  0.4649  0.2794  0.2760
   55MOL   C19517583   6.986   8.343   7.421 -0.2004 -0.2405 -0.5864
   55MOL   C19617584   6.906   0.014   7.489  0.0162  0.0576 -0.2700
   55MOL  Cl19717585   6.743   0.039   7.449  0.4423 -0.1322  0.0601
   55MOL   C19817586   6.959   0.096   7.590 -0.3958 -1.1226  0.1396
   55MOL   C19917587   7.094   0.078   7.639  0.2417  0.1199 -0.3596
   55MOL   C20017588   7.172   8.397   7.576  0.1745 -0.2034  0.6072
   55MOL   C20117589   7.119   8.317   7.473 -0.9347 -0.0966 -0.2308
   55MOL   C20217590   6.921   8.116   7.363 -0.9717 -0.6699 -0.3063
   55MOL   H20317591   6.825   8.289   7.284 -0.4628 -1.3508  2.1885
   55MOL   H20417592   6.890   0.166   7.637  0.7922  0.6464 -0.6876
   55MOL   H20517593   7.128   0.135   7.725  0.4512 -0.8462  0.1975
   55MOL   H20617594   7.275   8.376   7.602  0.9204 -0.1206 -2.1128
   55MOL   H20717595   7.185   8.241   7.435  0.7461 -0.0474  2.4054
   55MOL   H20817596   6.916   8.102   7.471  0.8550  2.1795  0.2007
   55MOL   H20917597   7.016   8.064   7.346 -0.9280 -0.9298  0.7101
   55MOL   C21017598   6.807   8.035   7.295  0.1990  0.1594 -0.2516
   55MOL   C21117599   6.675   8.091   7.344 -0.7166  0.4541 -1.0461
   55MOL   C21217600   6.563   8.111   7.261 -0.3009  0.4969  0.2625
   55MOL  Cl21317601   6.592   8.072   7.095  0.0862  0.2442 -0.4254
   55MOL   C21417602   6.439   8.162   7.297  0.0747  0.3279 -0.2705
   55MOL   C21517603   6.433   8.196   7.436  0.1744  1.0323 -0.4291
   55MOL   C21617604   6.538   8.170   7.525  0.5038  0.3934  1.1916
   55MOL   C21717605   6.660   8.117   7.482  0.1288  0.1832 -0.3262
   55MOL   C21817606   6.818   7.880   7.322 -0.2658 -0.6039  0.1862
   55MOL   H21917607   6.818   8.053   7.188  2.1100 -0.2578 -0.1442
   55MOL   H22017608   6.355   8.176   7.230 -0.8292 -1.6152  0.4042
   55MOL   H22117609   6.342   8.241   7.474 -0.9346 -0.4718 -1.2352
   55MOL   H22217610   6.515   8.185   7.630  2.0521  1.3839  1.4141
   55MOL   H22317611   6.731   8.086   7.558  1.1353  3.1375 -0.0095
   55MOL   H22417612   6.717   7.840   7.310 -1.5471  2.3671  0.4585
   55MOL   H22517613   6.842   7.872   7.428  0.9573 -0.7946 -0.1095
   55MOL   C22617614   6.917   7.815   7.234 -0.2360  0.0370 -0.3623
   55MOL   C22717615   6.866   7.796   7.092 -0.8943 -0.1483  0.6301
   55MOL   C22817616   6.932   7.856   6.982 -0.7402 -0.0763 -1.0639
   55MOL  Cl22917617   7.072   7.960   6.999 -0.2531 -0.0649  0.1924
   55MOL   C23017618   6.886   7.831   6.852  0.2282 -0.4557  0.7231
   55MOL   C23117619   6.774   7.748   6.823  0.1238 -1.1358 -0.3526
   55MOL   C23217620   6.709   7.690   6.935  0.1977 -0.3502  0.1815
   55MOL   C23317621   6.754   7.718   7.067 -0.7302  0.2705  0.2251
   55MOL   C23417622   6.973   7.684   7.297 -0.3772 -0.3258 -0.0434
   55MOL   H23517623   7.011   7.867   7.215  1.2574 -2.2184  0.4993
   55MOL   H23617624   6.942   7.869   6.767 -3.1922  1.2454 -0.8758
   55MOL   H23717625   6.741   7.716   6.726  0.9808 -0.4275 -0.8818
   55MOL   H23817626   6.621   7.628   6.924  1.4930 -2.5171  1.7747
   55MOL   H23917627   6.693   7.682   7.149 -3.7978  2.6085 -0.9659
   55MOL   H24017628   7.032   7.641   7.216  1.0717 -0.0768  0.8693
   55MOL   H24117629   6.890   7.616   7.318 -0.5495  0.4264  1.7744
   55MOL   C24217630   7.075   7.698   7.416  0.0256 -0.2235  0.2241
   55MOL   C24317631   7.180   7.814   7.403  0.0333 -0.2686  0.2090
   55MOL   C24417632   7.200   7.910   7.505  0.0842 -1.0079  0.1893
   55MOL  Cl24517633   7.121   7.901   7.658  0.0880 -0.0613  0.2662
   55MOL   C24617634   7.300   8.008   7.493 -0.5101  0.7532 -0.6157
   55MOL   C24717635   7.367   8.016   7.373  1.1047  0.6906 -0.4080
   55MOL   C24817636   7.349   7.929   7.266 -0.5189 -0.0090 -0.6251
   55MOL   C24917637   7.261   7.816   7.288  0.3554  0.4352  0.4402
   55MOL   C25017638   7.148   7.560   7.445 -0.0722 -0.4222 -0.9410
   55MOL   H25117639   7.012   7.728   7.500  0.8326  0.2967  0.6488
   55MOL   H25217640   7.332   8.072   7.574  1.2076 -0.6750 -0.1361
   55MOL   H25317641   7.438   8.098   7.366  1.7067  0.1109 -1.2024
   55MOL   H25417642   7.418   7.926   7.183  2.3929  1.4883  1.6388
   55MOL   H25517643   7.260   7.739   7.213  1.9357  1.1351 -0.3220
   55MOL   H25617644   7.221   7.553   7.364 -2.2322 -2.0406 -2.7862
   55MOL   H25717645   7.072   7.482   7.447  0.0779 -0.5486  1.8068
   55MOL   C25817646   7.245   7.558   7.564 -0.7158 -0.0476  0.5279
   55MOL   C25917647   7.372   7.470   7.537 -1.1343  0.2869 -0.3097
   55MOL   C26017648   7.504   7.519   7.527 -0.6942  0.4635 -0.2330
   55MOL  Cl26117649   7.536   7.680   7.550 -0.1506  0.2923  0.1205
   55MOL   C26217650   7.609   7.430   7.492 -0.6406 -0.4785  0.0781
   55MOL   C26317651   7.580   7.288   7.481  0.2189  0.5147  0.0211
   55MOL   C26417652   7.446   7.251   7.483 -0.3201  0.5832 -0.7467
   55MOL   C26517653   7.343   7.341   7.495 -0.1708  0.4879 -0.0270
   55MOL   C26617654   7.167   7.499   7.688  0.4458 -0.0799  0.1991
   55MOL   H26717655   7.277   7.659   7.591 -0.3418 -0.0299  0.0136
   55MOL   H26817656   7.713   7.457   7.484 -0.6027 -0.0353  1.7939
   55MOL   H26917657   7.659   7.223   7.448  1.2888  1.1098  1.3707
   55MOL   H27017658   7.424   7.149   7.454 -0.5865  0.5053 -0.2759
   55MOL   H27117659   7.243   7.299   7.495 -1.2826  2.9190  3.4753
   55MOL   H27217660   7.135   7.395   7.673 -1.5488  0.1408  2.4965
   55MOL   H27317661   7.072   7.551   7.698  1.8009  2.1294  1.8043
   55MOL   C27417662   7.253   7.515   7.825 -0.0736 -0.2465 -0.1545
   55MOL   C27517663   7.167   7.448   7.935 -0.2238  0.9067 -0.1499
   55MOL   C27617664   7.174   7.310   7.957 -0.1070 -0.3254  0.4012
   55MOL  Cl27717665   7.290   7.210   7.873 -0.1346 -0.0457 -0.1838
   55MOL   C27817666   7.084   7.244   8.041 -0.1649  0.2058 -0.4724
   55MOL   C27917667   7.000   7.329   8.120 -0.4937 -0.4601  0.0966
   55MOL   C28017668   7.001   7.468   8.108  0.4840 -0.3741  0.5896
   55MOL   C28117669   7.087   7.525   8.016 -0.8372  0.2503 -0.4501
   55MOL   C28217670   7.310   7.662   7.868  0.6331  0.1633 -0.6592
   55MOL   H28317671   7.343   7.455   7.813  0.9313  1.3436 -0.6450
   55MOL   H28417672   7.090   7.137   8.050  1.0975  0.1648 -1.6254
   55MOL   H28517673   6.950   7.284   8.205  0.4653 -1.9445 -0.1021
   55MOL   H28617674   6.946   7.533   8.174 -0.1469 -1.3905  1.0643
   55MOL   H28717675   7.077   7.630   7.991  1.6139  0.1650 -1.9053
   55MOL   H28817676   7.232   7.734   7.892  1.6378  1.5205 -1.4460
   55MOL   H28917677   7.348   7.703   7.775  2.9759 -0.3819  0.0346
   55MOL   C29017678   7.415   7.656   7.974 -0.1511 -0.2961 -0.1808
   55MOL   C29117679   7.370   7.712   8.109  0.2401 -0.2757  0.5706
   55MOL   C29217680   7.397   7.646   8.232  0.0591 -0.3603  0.1941
   55MOL  Cl29317681   7.466   7.492   8.225  0.0007  0.0505  0.1582
   55MOL   C29417682   7.366   7.706   8.355 -0.3629 -0.3010  1.0756
   55MOL   C29517683   7.310   7.831   8.352  0.6103 -0.6005  0.4221
   55MOL   C29617684   7.278   7.899   8.236  0.3359  0.2472  0.0616
   55MOL   C29717685   7.306   7.841   8.112  0.0443  0.1732  0.4632
   55MOL   C29817686   7.550   7.719   7.921  1.0689  0.5378  0.8025
   55MOL   H29917687   7.440   7.552   7.990  0.0262 -0.1624  0.4394
   55MOL   H30017688   7.399   7.661   0.027  1.4195 -0.1428  0.5454
   55MOL   H30117689   7.294   7.884   0.024 -0.5902  1.6192 -1.0379
   55MOL   H30217690   7.236   7.998   8.249 -0.1171  0.0709 -0.0630
   55MOL   H30317691   7.299   7.899   8.022  1.8097 -0.4099 -0.0629
   55MOL   H30417692   7.553   7.815   7.971  0.6529  1.6337 -1.2230
   55MOL   H30517693   7.548   7.737   7.813 -0.4621  1.5180  0.9934
   55MOL   C30617694   7.681   7.641   7.950 -0.1252  0.2439 -0.2297
   55MOL   C30717695   7.809   7.729   7.936 -0.7611  0.9133 -0.0775
   55MOL   C30817696   7.908   7.737   8.042  0.4563 -0.4665 -0.3745
   55MOL  Cl30917697   7.915   7.632   8.177  0.1448  0.0108  0.1431
   55MOL   C31017698   8.011   7.827   8.030 -0.6128  0.3590  0.0292
   55MOL   C31117699   8.021   7.903   7.910 -0.2778  0.3012  0.2299
   55MOL   C31217700   7.928   7.898   7.807 -0.7434  0.6668 -0.2324
   55MOL   C31317701   7.817   7.809   7.819 -0.4073  0.4721 -0.3923
   55MOL   C31417702   7.694   7.515   7.861  0.2013  0.0779 -0.7014
   55MOL   H31517703   7.692   7.604   8.052 -3.6979 -0.8768 -0.1657
   55MOL   H31617704   8.095   7.825   8.097 -0.7573  2.4285  0.3199
   55MOL   H31717705   8.105   7.970   7.894  0.4712 -0.6593  0.0787
   55MOL   H31817706   7.938   7.964   7.722 -1.8170  1.4932  0.2683
   55MOL   H31917707   7.744   7.796   7.741  0.9690 -3.3293 -1.1568
   55MOL   H32017708   7.692   7.545   7.756  1.5451  0.9980 -0.4847
   55MOL   H32117709   7.613   7.447   7.884 -0.1325  0.0646 -1.8985
   55MOL   H32217710   7.787   7.464   7.886  0.9079  2.6346  2.2603
   56MOL     C117711   5.623   4.865   6.532 -0.5286  0.0612 -0.5799
   56MOL     C217712   5.583   4.961   6.648  0.1925  0.4080 -0.2315
   56MOL     C317713   5.626   5.095   6.656  0.0543 -0.5613 -0.0964
   56MOL    Cl417714   5.747   5.157   6.542 -0.2041  0.0372  0.1010
   56MOL     C517715   5.579   5.180   6.758  0.4299  1.2137 -0.1342
   56MOL     C617716   5.493   5.129   6.858 -0.5332  0.6628 -0.6165
   56MOL     C717717   5.443   4.995   6.851 -0.7644 -0.2979 -0.6236
   56MOL     C817718   5.491   4.917   6.746  0.6967 -0.4262 -0.5080
   56MOL     C917719   5.729   4.755   6.581 -0.2655 -0.1159  0.4209
   56MOL    H1017720   5.531   4.812   6.506 -0.5871 -0.7843  1.2885
   56MOL    H1117721   5.606   5.284   6.772 -0.5656  1.1697  2.3452
   56MOL    H1217722   5.457   5.193   6.937  1.6410 -0.4746  1.3686
   56MOL    H1317723   5.374   4.946   6.918  1.8101 -0.4440  2.0255
   56MOL    H1417724   5.465   4.812   6.753  2.3151 -0.9890 -2.3465
   56MOL    H1517725   5.678   4.682   6.643  1.1198 -0.2216  1.4622
   56MOL    H1617726   5.785   4.807   6.658  0.3090  1.1402 -0.8091
   56MOL    H1717727   5.664   4.919   6.447 -0.3248  1.8922  0.6540
   56MOL    C1817728   5.813   4.683   6.471  0.1307 -1.1063  0.1089
   56MOL    C1917729   5.735   4.653   6.344 -0.4514 -0.0816  0.4353
   56MOL    C2017730   5.784   4.671   6.213 -0.3396  0.4249  0.2475
   56MOL   Cl2117731   5.950   4.721   6.174 -0.1774 -0.0320  0.0715
   56MOL    C2217732   5.700   4.645   6.101  0.0851  0.4960 -0.2550
   56MOL    C2317733   5.568   4.608   6.125  0.2178 -0.1380  0.9506
   56MOL    C2417734   5.521   4.581   6.258  0.3177 -0.7170  0.3923
   56MOL    C2517735   5.611   4.596   6.364  0.3863 -0.3087  0.2178
   56MOL    C2617736   5.880   4.557   6.516  0.7315 -0.3714  0.5499
   56MOL    H2717737   5.892   4.753   6.445 -1.5806 -0.0501 -2.5057
   56MOL    H2817738   5.735   4.647   5.998  0.9603 -1.8864 -0.0390
   56MOL    H2917739   5.498   4.594   6.044  1.0532  0.5329  0.1048
   56MOL    H3017740   5.416   4.554   6.265 -0.1588  1.1151  0.4629
   56MOL    H3117741   5.580   4.568   6.463  1.3428 -0.8828  0.3587
   56MOL    H3217742   5.917   4.506   6.427 -3.2297  1.0809 -2.0844
   56MOL    H3317743   5.804   4.486   6.551 -1.5958  1.4279 -0.7072
   56MOL    C3417744   6.000   4.579   6.618  0.4881  0.6114 -1.0272
   56MOL    C3517745   6.123   4.650   6.559 -0.2653  0.2175  0.7236
   56MOL    C3617746   6.181   4.776   6.605  0.0440 -0.7355 -0.0515
   56MOL   Cl3717747   6.099   4.864   6.724 -0.0964 -0.2338  0.4366
   56MOL    C3817748   6.293   4.827   6.541 -1.2641 -0.0964  0.2593
   56MOL    C3917749   6.356   4.753   6.444 -0.2661  0.1757 -0.0224
   56MOL    C4017750   6.306   4.627   6.403 -0.2917  0.6216 -0.6960
   56MOL    C4117751   6.193   4.576   6.461  0.5171 -0.7295  0.5181
   56MOL    C4217752   6.047   4.443   6.690 -0.3019 -0.9661  0.1179
   56MOL    H4317753   5.956   4.631   6.704  0.9723 -0.5483 -0.0552
   56MOL    H4417754   6.335   4.923   6.568 -0.8946  0.0854 -0.8884
   56MOL    H4517755   6.444   4.787   6.393 -1.7276  1.7250 -1.5982
   56MOL    H4617756   6.359   4.570   6.329  0.1214 -2.6796  2.0304
   56MOL    H4717757   6.157   4.478   6.432 -0.0932 -0.4645  0.3721
   56MOL    H4817758   6.142   4.452   6.743  1.7933 -3.3580 -3.0342
   56MOL    H4917759   6.077   4.379   6.607  0.3539  0.4110 -0.7192
   56MOL    C5017760   5.944   4.366   6.777  0.1458  0.0426  0.5223
   56MOL    C5117761   5.930   4.430   6.910  0.3905 -0.4593  0.0096
   56MOL    C5217762   5.805   4.490   6.952 -0.4744 -0.5082 -0.6981
   56MOL   Cl5317763   5.661   4.490   6.858 -0.0659  0.3873 -0.0443
   56MOL    C5417764   5.802   4.542   7.084 -0.2879  0.1824  0.6309
   56MOL    C5517765   5.912   4.543   7.167 -0.7595 -0.7928 -0.6535
   56MOL    C5617766   6.040   4.485   7.122  0.3960  0.2271 -0.2639
   56MOL    C5717767   6.046   4.425   7.001  0.4962 -0.3139  0.5309
   56MOL    C5817768   5.976   4.218   6.800 -0.3759 -0.1084 -0.8149
   56MOL    H5917769   5.846   4.363   6.728 -0.9703 -0.3475  2.7063
   56MOL    H6017770   5.712   4.590   7.119 -1.0313 -1.4471  1.0377
   56MOL    H6117771   5.901   4.588   7.264  1.4752  1.7129 -1.4817
   56MOL    H6217772   6.122   4.478   7.192 -0.5945 -0.4209  0.8505
   56MOL    H6317773   6.137   4.379   6.966 -0.8927 -1.2366 -1.9925
   56MOL    H6417774   5.927   4.194   6.894  0.2677  1.3371 -0.1090
   56MOL    H6517775   6.083   4.206   6.814 -0.5831 -0.5142  0.4655
   56MOL    C6617776   5.916   4.122   6.701 -0.1483  0.4846  0.5070
   56MOL    C6717777   5.974   4.126   6.560 -0.9533 -0.0473  0.1513
   56MOL    C6817778   6.082   4.056   6.514 -0.8946 -0.4438 -0.2942
   56MOL   Cl6917779   6.174   3.949   6.612  0.1482  0.2702 -0.3187
   56MOL    C7017780   6.128   4.072   6.377 -0.1114  0.5927 -0.0233
   56MOL    C7117781   6.059   4.163   6.289 -0.7662 -0.6252  0.0542
   56MOL    C7217782   5.953   4.240   6.337 -0.8507 -0.0923 -0.2335
   56MOL    C7317783   5.908   4.218   6.469 -0.2383  0.2985  0.7002
   56MOL    C7417784   5.763   4.097   6.706 -0.4629  0.5705  0.0607
   56MOL    H7517785   5.951   4.028   6.744  1.6290  0.4607 -0.9305
   56MOL    H7617786   6.212   4.009   6.353 -2.4170 -1.8287 -2.0265
   56MOL    H7717787   6.084   4.165   6.184  1.6745 -3.5349  0.5016
   56MOL    H7817788   5.914   4.320   6.275  0.1608  0.1607 -0.5548
   56MOL    H7917789   5.816   4.266   6.498 -0.2879  0.9237 -0.4711
   56MOL    H8017790   5.716   4.195   6.719  0.8831  1.0150  1.8166
   56MOL    H8117791   5.747   4.072   6.811 -0.5560  2.9465  0.6472
   56MOL    C8217792   5.694   3.991   6.614 -0.0392 -0.2013  0.3647
   56MOL    C8317793   5.620   4.054   6.498 -1.0170 -0.0050  0.0262
   56MOL    C8417794   5.609   3.980   6.379  0.1478 -0.3522  0.9637
   56MOL   Cl8517795   5.663   3.819   6.359  0.1995 -0.0348 -0.0188
   56MOL    C8617796   5.535   4.035   6.268  0.2034  0.3248 -0.3042
   56MOL    C8717797   5.466   4.159   6.282  0.6822 -0.1588  0.6543
   56MOL    C8817798   5.490   4.236   6.399 -0.5107  0.1700 -0.3279
   56MOL    C8917799   5.561   4.183   6.509  0.6102  0.8625 -0.3174
   56MOL    C9017800   5.616   3.896   6.702  0.9635  1.0102  0.7293
   56MOL    H9117801   5.771   3.932   6.565  0.6094 -1.7657  3.2134
   56MOL    H9217802   5.519   3.989   6.172 -1.3597 -0.5569  0.3609
   56MOL    H9317803   5.406   4.198   6.200  0.5721  0.7107  1.1404
   56MOL    H9417804   5.438   4.331   6.401 -1.2322 -0.2279  1.0198
   56MOL    H9517805   5.567   4.228   6.607  1.8405 -2.4401  1.1886
   56MOL    H9617806   5.548   3.850   6.631  1.3257  0.2817  0.8494
   56MOL    H9717807   5.547   3.948   6.768 -0.1542  0.8449 -0.3006
   56MOL    C9817808   5.698   3.786   6.790 -0.6983  0.1198  0.7139
   56MOL    C9917809   5.799   3.713   6.703 -0.8534 -0.1032 -0.3708
   56MOL   C10017810   5.937   3.709   6.734  0.0615 -0.0502 -1.0161
   56MOL  Cl10117811   6.002   3.786   6.880  0.0132 -0.2793  0.1807
   56MOL   C10217812   6.022   3.639   6.648 -0.0960  0.1104 -0.4765
   56MOL   C10317813   5.974   3.563   6.538 -0.6915 -0.3124  0.2820
   56MOL   C10417814   5.838   3.558   6.507  0.0067  0.7255  0.3472
   56MOL   C10517815   5.754   3.635   6.593 -0.1631 -0.6668  0.4403
   56MOL   C10617816   5.614   3.681   6.856 -0.6650  0.6547  0.2285
   56MOL   H10717817   5.741   3.840   6.875 -2.5207  0.0655  1.6979
   56MOL   H10817818   6.125   3.634   6.680  0.2310  2.0326 -1.1712
   56MOL   H10917819   6.046   3.520   6.469 -0.9336  1.1278 -0.8968
   56MOL   H11017820   5.810   3.490   6.428  0.4855 -0.7077  1.3878
   56MOL   H11117821   5.651   3.631   6.560  0.3156 -0.8573 -1.0472
   56MOL   H11217822   5.683   3.603   6.887 -0.8880 -0.8383 -2.8224
   56MOL   H11317823   5.555   3.624   6.784  0.5858 -2.0130  1.2472
   56MOL   C11417824   5.531   3.722   6.985 -0.1829  0.3213 -0.0613
   56MOL   C11517825   5.602   3.796   7.102 -0.6547  0.4128 -0.0897
   56MOL   C11617826   5.549   3.911   7.173  0.7463  0.3129  0.1459
   56MOL  Cl11717827   5.404   3.981   7.119  0.1611  0.3489 -0.3359
   56MOL   C11817828   5.618   3.972   7.282 -0.9151 -0.0181  0.4471
   56MOL   C11917829   5.744   3.918   7.314  0.5325  0.6624  0.4565
   56MOL   C12017830   5.800   3.803   7.252  0.0587 -0.5111 -0.0592
   56MOL   C12117831   5.725   3.745   7.148 -0.0990 -0.2666 -0.0142
   56MOL   C12217832   5.452   3.601   7.047 -0.6185 -0.2594 -0.4542
   56MOL   H12317833   5.454   3.789   6.948 -2.0564 -2.0624 -0.6637
   56MOL   H12417834   5.583   4.053   7.344 -1.7248 -1.6610  2.2303
   56MOL   H12517835   5.795   3.968   7.395 -0.7162  0.8058  1.1747
   56MOL   H12617836   5.890   3.759   7.292  0.3078 -0.2875 -0.3760
   56MOL   H12717837   5.775   3.655   7.115  1.1954  0.0985  0.9225
   56MOL   H12817838   5.413   3.623   7.146  0.3016  0.1855 -0.1939
   56MOL   H12917839   5.523   3.519   7.055 -0.8948 -0.3204  1.5669
   56MOL   C13017840   5.343   3.542   6.956  0.2616 -0.0165  0.2358
   56MOL   C13117841   5.242   3.645   6.917  0.2821 -0.4076 -0.0458
   56MOL   C13217842   5.219   3.682   6.782 -0.5825 -0.1208 -0.8100
   56MOL  Cl13317843   5.318   3.633   6.657  0.0068 -0.1015  0.2033
   56MOL   C13417844   5.117   3.780   6.760 -0.1152 -0.0599 -0.1474
   56MOL   C13517845   5.052   3.840   6.866  0.2924  0.5531 -0.4416
   56MOL   C13617846   5.071   3.799   7.003  0.2243  0.1991  0.4670
   56MOL   C13717847   5.169   3.701   7.025 -0.0735 -0.2922 -0.4882
   56MOL   C13817848   5.274   3.417   7.008 -0.0839  0.1620  0.1440
   56MOL   H13917849   5.395   3.500   6.870 -0.5363  0.8748 -0.6863
   56MOL   H14017850   5.105   3.817   6.659  1.1596 -0.5060 -0.4749
   56MOL   H14117851   4.976   3.916   6.854  0.9454  1.4931  1.1219
   56MOL   H14217852   5.007   3.845   7.077  0.5736 -0.2497  1.0549
   56MOL   H14317853   5.184   3.669   7.127 -0.5323 -1.3475 -0.7389
   56MOL   H14417854   5.213   3.380   6.925 -0.8768  2.8739 -0.5230
   56MOL   H14517855   5.202   3.433   7.089  0.9402 -0.2156  1.1371
   56MOL   C14617856   5.357   3.287   7.052  0.3725 -0.1232  0.2336
   56MOL   C14717857   5.473   3.261   6.961  0.1169 -0.0337 -0.2838
   56MOL   C14817858   5.603   3.250   7.012  0.0488 -0.1863  0.4763
   56MOL  Cl14917859   5.653   3.227   7.176 -0.0796 -0.0992  0.0865
   56MOL   C15017860   5.702   3.221   6.916  0.2447  0.6272 -0.5790
   56MOL   C15117861   5.676   3.212   6.779 -0.6318  0.4432  0.4867
   56MOL   C15217862   5.545   3.217   6.731  0.0056  0.5884 -0.1545
   56MOL   C15317863   5.441   3.241   6.822 -0.8449 -0.2678 -0.1917
   56MOL   C15417864   5.259   3.166   7.054 -0.1255  0.3308 -0.4124
   56MOL   H15517865   5.384   3.307   7.155 -0.9657  0.5810  0.4528
   56MOL   H15617866   5.803   3.211   6.953  0.8557 -1.4603 -2.7032
   56MOL   H15717867   5.754   3.198   6.707 -1.2042  1.0310 -0.2609
   56MOL   H15817868   5.526   3.202   6.626 -1.9253 -1.3193  0.4167
   56MOL   H15917869   5.340   3.252   6.785 -1.5562 -1.9031  1.1590
   56MOL   H16017870   5.232   3.151   6.949  1.1384  2.4211 -1.0680
   56MOL   H16117871   5.166   3.191   7.104 -1.5564 -0.6977 -2.4731
   56MOL   C16217872   5.327   3.037   7.115 -0.4324 -0.1405  0.3743
   56MOL   C16317873   5.268   2.914   7.045  0.2557 -0.6461 -0.9677
   56MOL   C16417874   5.335   2.835   6.952  0.5468 -0.3314  1.1106
   56MOL  Cl16517875   5.497   2.869   6.901 -0.0897 -0.1465 -0.3848
   56MOL   C16617876   5.266   2.730   6.889 -0.0040 -0.2836  0.0512
   56MOL   C16717877   5.134   2.697   6.927 -0.0395  0.1041 -0.0272
   56MOL   C16817878   5.063   2.781   7.013  1.1234  0.1074 -0.3964
   56MOL   C16917879   5.135   2.884   7.069  0.2304 -0.2285  0.1858
   56MOL   C17017880   5.315   3.028   7.269 -0.0471 -0.1192 -0.5946
   56MOL   H17117881   5.430   3.035   7.079 -0.6525 -1.2652 -0.2252
   56MOL   H17217882   5.322   2.660   6.828 -0.0297 -0.1920 -0.0775
   56MOL   H17317883   5.085   2.608   6.889  1.7192 -1.0028  0.2853
   56MOL   H17417884   4.957   2.765   7.028  1.4131 -2.7544 -1.0705
   56MOL   H17517885   5.084   2.953   7.135 -1.2823 -0.8955 -0.2491
   56MOL   H17617886   5.216   3.063   7.296  0.4872  1.5367 -0.7207
   56MOL   H17717887   5.373   3.110   7.312 -1.6334  0.1392  1.1030
   56MOL   C17817888   5.354   2.894   7.337 -0.2776  0.1346  0.0783
   56MOL   C17917889   5.295   2.892   7.481 -0.2539 -0.7298  0.3909
   56MOL   C18017890   5.186   2.803   7.506  0.2844 -0.1013  0.2181
   56MOL  Cl18117891   5.116   2.703   7.384 -0.3616 -0.1906  0.0707
   56MOL   C18217892   5.138   2.795   7.636 -0.3651 -0.3159  0.4957
   56MOL   C18317893   5.193   2.874   7.737  0.2473 -0.4612 -0.5488
   56MOL   C18417894   5.284   2.978   7.708  0.9327  0.2010 -0.8659
   56MOL   C18517895   5.338   2.983   7.582 -0.1483  0.0841  0.4735
   56MOL   C18617896   5.507   2.861   7.343 -0.3980  0.0532 -0.5590
   56MOL   H18717897   5.312   2.810   7.283 -0.0954 -0.0098  0.1637
   56MOL   H18817898   5.066   2.718   7.661 -1.6504 -0.8053 -4.2577
   56MOL   H18917899   5.153   2.867   7.837  0.3274  2.4014 -0.3015
   56MOL   H19017900   5.306   3.052   7.785 -2.0134  0.4358 -0.1982
   56MOL   H19117901   5.416   3.051   7.552  0.2083 -0.6898 -0.3820
   56MOL   H19217902   5.555   2.900   7.433 -2.8489  0.7484  0.5073
   56MOL   H19317903   5.551   2.914   7.260  0.1809 -0.5158 -0.6219
   56MOL   C19417904   5.546   2.704   7.323  0.4561 -0.2944  0.0365
   56MOL   C19517905   5.505   2.615   7.440  0.4553  0.1947  0.0811
   56MOL   C19617906   5.455   2.482   7.415  0.0772 -0.1271 -0.4230
   56MOL  Cl19717907   5.441   2.430   7.250 -0.2116 -0.1135 -0.0776
   56MOL   C19817908   5.420   2.403   7.528 -0.2101 -0.4104 -0.6263
   56MOL   C19917909   5.430   2.444   7.660  0.3769 -0.3819 -0.0381
   56MOL   C20017910   5.477   2.574   7.684 -0.3589 -0.2026  0.7877
   56MOL   C20117911   5.507   2.659   7.572 -0.2266 -0.2706  0.3593
   56MOL   C20217912   5.701   2.686   7.294 -0.5027  0.4705 -0.7512
   56MOL   H20317913   5.489   2.666   7.238 -0.9988 -0.4819  1.0783
   56MOL   H20417914   5.395   2.300   7.508  1.0937 -0.3511 -2.7265
   56MOL   H20517915   5.401   2.366   7.730 -0.1783  0.7689  1.0341
   56MOL   H20617916   5.483   2.621   7.782  0.3325 -0.0704  0.6863
   56MOL   H20717917   5.535   2.762   7.591 -0.5623  0.0243 -0.7136
   56MOL   H20817918   5.750   2.662   7.388 -2.9423 -1.2049  0.1587
   56MOL   H20917919   5.739   2.781   7.257 -0.1358  0.8660  0.6295
   56MOL   C21017920   5.744   2.575   7.189 -0.2323  0.1696  0.2366
   56MOL   C21117921   5.897   2.563   7.186  0.6674 -0.4616 -0.3816
   56MOL   C21217922   5.958   2.453   7.256  0.7297  0.0695 -0.3288
   56MOL  Cl21317923   5.868   2.349   7.357 -0.1315  0.3671 -0.4248
   56MOL   C21417924   6.090   2.426   7.233  0.3516 -0.0070  0.2360
   56MOL   C21517925   6.178   2.514   7.157  0.1374 -0.5025 -1.0118
   56MOL   C21617926   6.116   2.625   7.091 -0.4579 -0.0721 -0.5315
   56MOL   C21717927   5.974   2.649   7.104 -0.6374  0.6519 -0.5612
   56MOL   C21817928   5.686   2.578   7.045 -0.2235 -0.3461 -0.9184
   56MOL   H21917929   5.695   2.487   7.230 -1.8724  0.6505 -0.6430
   56MOL   H22017930   6.133   2.340   7.282 -0.3747  0.6803  2.1039
   56MOL   H22117931   6.285   2.499   7.151  0.3071  0.7957 -1.3636
   56MOL   H22217932   6.178   2.700   7.044  0.8539  0.3945  1.8776
   56MOL   H22317933   5.927   2.736   7.060  0.0251  1.1375 -0.3176
   56MOL   H22417934   5.726   2.667   6.996 -0.9265  1.3354  1.5081
   56MOL   H22517935   5.580   2.605   7.041  0.0733  0.6105 -2.7680
   56MOL   C22617936   5.720   2.459   6.961  0.1986 -0.4448 -0.2851
   56MOL   C22717937   5.731   2.497   6.815 -0.1327  0.8300  0.7058
   56MOL   C22817938   5.856   2.495   6.742  0.5290  0.2395  0.1960
   56MOL  Cl22917939   6.006   2.458   6.821 -0.2469  0.7340  0.0942
   56MOL   C23017940   5.855   2.532   6.605  0.5722  0.6696  0.1302
   56MOL   C23117941   5.740   2.579   6.543 -0.3819 -0.7341 -0.3433
   56MOL   C23217942   5.626   2.601   6.620 -0.5081  0.7432 -0.0860
   56MOL   C23317943   5.621   2.553   6.751  0.0732 -0.2220 -0.1134
   56MOL   C23417944   5.619   2.352   6.986  0.2896  0.4669 -0.0236
   56MOL   H23517945   5.816   2.411   6.980  1.3803  0.8821 -2.7555
   56MOL   H23617946   5.949   2.536   6.552  1.5952  0.0340  1.8321
   56MOL   H23717947   5.742   2.614   6.441  1.7211  1.8575  0.5304
   56MOL   H23817948   5.530   2.627   6.578 -0.6743  0.8343  0.3541
   56MOL   H23917949   5.528   2.559   6.805 -0.6220 -1.0342 -1.1984
   56MOL   H24017950   5.520   2.398   6.989 -0.3620 -0.8785 -0.2748
   56MOL   H24117951   5.631   2.304   7.083  0.6952 -0.7927 -0.6838
   56MOL   C24217952   5.620   2.233   6.878 -0.3981 -0.1261 -0.1668
   56MOL   C24317953   5.497   2.149   6.887 -0.3612  0.8760 -0.1013
   56MOL   C24417954   5.413   2.128   6.767  0.2105  0.0110 -0.4693
   56MOL  Cl24517955   5.443   2.211   6.622 -0.3467 -0.1482 -0.1216
   56MOL   C24617956   5.301   2.047   6.777 -0.3106 -0.0735  0.1909
   56MOL   C24717957   5.275   1.969   6.890  0.4745 -1.1202  0.3683
   56MOL   C24817958   5.355   1.990   7.003  0.1821 -0.0212  0.0570
   56MOL   C24917959   5.457   2.081   7.003 -0.2678  0.2114  0.6411
   56MOL   C25017960   5.749   2.140   6.891  0.4944 -0.0481 -0.4860
   56MOL   H25117961   5.629   2.268   6.776  0.3808 -1.4069 -0.5469
   56MOL   H25217962   5.250   2.037   6.682  1.7884  0.4357 -1.0136
   56MOL   H25317963   5.194   1.898   6.878 -0.2405 -0.3831  0.7137
   56MOL   H25417964   5.359   1.931   7.093 -1.7910 -0.1660  0.0712
   56MOL   H25517965   5.527   2.085   7.085  0.5918 -2.1163  0.0736
   56MOL   H25617966   5.731   2.071   6.974  0.7136 -1.1712 -1.3500
   56MOL   H25717967   5.834   2.196   6.930 -3.5784  3.6286  3.6975
   56MOL   C25817968   5.787   2.047   6.772 -0.1967  0.1219 -0.1017
   56MOL   C25917969   5.882   1.935   6.817  1.3427 -0.1545  0.5193
   56MOL   C26017970   5.824   1.815   6.857  0.2231 -0.0268 -0.6581
   56MOL  Cl26117971   5.650   1.781   6.857  0.4861  0.0576  0.1961
   56MOL   C26217972   5.914   1.717   6.912  0.3710  0.2502  0.9477
   56MOL   C26317973   6.047   1.742   6.931 -0.5542  0.6923  0.8912
   56MOL   C26417974   6.102   1.858   6.879  0.2577 -0.0134  0.8204
   56MOL   C26517975   6.019   1.959   6.828 -0.2751  0.1741  0.2386
   56MOL   C26617976   5.839   2.126   6.655 -0.1352  0.1893  0.2618
   56MOL   H26717977   5.692   2.004   6.740  0.2774 -1.3629  0.4585
   56MOL   H26817978   5.859   1.630   6.946  0.2796 -0.5500 -1.1567
   56MOL   H26917979   6.106   1.665   6.980 -0.0103 -0.9459 -2.2156
   56MOL   H27017980   6.210   1.866   6.882  0.1352  2.3754  0.0804
   56MOL   H27117981   6.060   2.054   6.800  0.1098 -0.2373 -0.6214
   56MOL   H27217982   5.926   2.183   6.689  0.1457 -0.9369  1.4691
   56MOL   H27317983   5.765   2.204   6.636 -1.9951 -1.7021 -0.4317
   56MOL   C27417984   5.868   2.050   6.525 -0.6402  0.2353 -0.1278
   56MOL   C27517985   5.926   2.151   6.426 -0.7102  0.5088  0.5810
   56MOL   C27617986   6.067   2.168   6.423 -0.3560 -0.0258  0.6301
   56MOL  Cl27717987   6.178   2.082   6.529  0.1938  0.4219  0.0694
   56MOL   C27817988   6.125   2.249   6.326 -0.2567 -0.1674  0.2046
   56MOL   C27917989   6.045   2.311   6.230 -0.1166 -0.7460  0.1365
   56MOL   C28017990   5.906   2.306   6.244  0.1556 -0.2272  0.1396
   56MOL   C28117991   5.848   2.233   6.348 -0.1647  0.1930  0.4690
   56MOL   C28217992   5.742   1.982   6.477  0.7718 -0.1909 -0.3790
   56MOL   H28317993   5.936   1.968   6.549 -0.8715 -0.5271 -1.9904
   56MOL   H28417994   6.231   2.247   6.305  0.4012 -2.2779  3.4022
   56MOL   H28517995   6.086   2.357   6.141 -2.7834 -0.3210 -0.9088
   56MOL   H28617996   5.843   2.340   6.164  0.5088  0.9367  0.3533
   56MOL   H28717997   5.741   2.222   6.353 -0.3509  2.4106  2.1295
   56MOL   H28817998   5.658   2.051   6.484  0.3496 -0.6383 -1.0868
   56MOL   H28917999   5.715   1.912   6.556  0.9543 -0.3169 -0.4276
   56MOL   C29018000   5.746   1.890   6.350  0.3772 -0.6559 -0.2768
   56MOL   C29118001   5.878   1.816   6.340  0.4113  0.2840 -0.3488
   56MOL   C29218002   5.898   1.695   6.415  0.5443  0.0081  0.3042
   56MOL  Cl29318003   5.770   1.611   6.495 -0.5416  0.2669 -0.1844
   56MOL   C29418004   6.022   1.627   6.414  0.1110 -0.4163 -0.1102
   56MOL   C29518005   6.133   1.686   6.355  0.1997 -0.2992  0.4069
   56MOL   C29618006   6.118   1.809   6.283  0.3050 -0.0853  0.2626
   56MOL   C29718007   5.991   1.871   6.277 -0.3178 -0.1381 -0.3962
   56MOL   C29818008   5.701   1.960   6.216 -0.6855 -0.3410  0.2895
   56MOL   H29918009   5.680   1.805   6.362 -0.2394 -0.3391 -1.4073
   56MOL   H30018010   6.024   1.525   6.451  0.4967 -1.3362 -2.5470
   56MOL   H30118011   6.226   1.632   6.365  1.3746  1.3165 -1.5175
   56MOL   H30218012   6.198   1.861   6.233  2.1801  0.4321  3.6188
   56MOL   H30318013   5.984   1.958   6.214 -3.2346  1.7480  2.3667
   56MOL   H30418014   5.781   2.018   6.169  1.0872 -2.5530  0.5003
   56MOL   H30518015   5.630   2.035   6.252 -1.1410 -1.6730  2.2157
   56MOL   C30618016   5.626   1.869   6.113  0.0277 -0.7231  0.0724
   56MOL   C30718017   5.717   1.817   5.999 -0.3485 -1.0116 -0.5963
   56MOL   C30818018   5.759   1.679   6.000  0.1451  0.6030  0.2091
   56MOL  Cl30918019   5.727   1.582   6.140 -0.1559 -0.1106  0.4210
   56MOL   C31018020   5.837   1.624   5.897  0.3296  0.5940 -0.3719
   56MOL   C31118021   5.887   1.716   5.804 -0.3911  0.8101 -0.8503
   56MOL   C31218022   5.845   1.851   5.805 -0.0305 -0.1536  0.3908
   56MOL   C31318023   5.769   1.904   5.902 -0.3661  0.6238 -0.1974
   56MOL   C31418024   5.513   1.944   6.048 -0.0643  0.0588  0.0308
   56MOL   H31518025   5.575   1.787   6.164 -1.8965  0.4230  0.0048
   56MOL   H31618026   5.877   1.524   5.896  1.1614  0.9058 -3.5848
   56MOL   H31718027   5.970   1.682   5.745 -0.7074 -1.2926 -0.1217
   56MOL   H31818028   5.902   1.909   5.734  0.1954 -1.0337 -0.1544
   56MOL   H31918029   5.759   2.011   5.898 -1.6204  0.6070  1.8013
   56MOL   H32018030   5.464   1.883   5.972  1.2075  0.0265 -0.7831
   56MOL   H32118031   5.533   2.039   6.000 -0.5136  0.4860  0.6805
   56MOL   H32218032   5.433   1.937   6.121 -0.7038 -2.3522 -0.8256
   57MOL     C118033   0.211   2.785   2.063  0.1782 -0.1979  0.7140
   57MOL     C218034   0.257   2.915   1.997 -0.1210  0.0800 -0.2650
   57MOL     C318035   0.246   3.041   2.062  0.2428 -0.2702  0.3634
   57MOL    Cl418036   0.190   3.049   2.221 -0.1984 -0.0467 -0.0289
   57MOL     C518037   0.295   3.158   2.000 -0.5877  0.2417  0.7305
   57MOL     C618038   0.358   3.148   1.873  0.5858 -0.3177  0.0075
   57MOL     C718039   0.359   3.023   1.806 -0.4503 -0.3249 -0.0385
   57MOL     C818040   0.316   2.906   1.868  0.5112  0.5333  0.6910
   57MOL     C918041   0.327   2.675   2.062 -0.0399  0.8687  0.5650
   57MOL    H1018042   0.169   2.799   2.162 -4.5394 -1.5364 -0.9652
   57MOL    H1118043   0.300   3.254   2.049  4.0712 -0.5925  2.1278
   57MOL    H1218044   0.397   3.229   1.814 -1.8175  1.2124  0.4415
   57MOL    H1318045   0.413   3.018   1.713 -1.0290 -0.2516 -0.3820
   57MOL    H1418046   0.316   2.811   1.816 -0.5681  0.4733  0.7906
   57MOL    H1518047   0.408   2.714   2.124  0.3374 -0.9102  1.2182
   57MOL    H1618048   0.372   2.661   1.964  1.3311 -1.6864  1.5170
   57MOL    H1718049   0.126   2.745   2.007  0.0553 -0.0733  0.8135
   57MOL    C1818050   0.293   2.534   2.130  0.8708 -1.1108  0.3664
   57MOL    C1918051   0.212   2.549   2.260  0.4760 -0.2424  0.2412
   57MOL    C2018052   0.087   2.486   2.280  0.2955  0.1922  0.5648
   57MOL   Cl2118053   0.016   2.387   2.159  0.1331 -0.3946 -0.0322
   57MOL    C2218054   0.018   2.500   2.400 -0.2823  0.3308 -0.0505
   57MOL    C2318055   0.069   2.584   2.498 -0.0750  0.2196  0.3412
   57MOL    C2418056   0.193   2.640   2.484 -1.3359 -1.0991  0.1912
   57MOL    C2518057   0.262   2.627   2.363  0.4919 -0.0756  0.3482
   57MOL    C2618058   0.416   2.446   2.152 -0.1629 -0.2100 -0.8471
   57MOL    H2718059   0.231   2.491   2.052 -0.4765  0.5204  0.5183
   57MOL    H2818060   8.344   2.450   2.417  1.1167 -1.8625  1.4448
   57MOL    H2918061   0.015   2.599   2.591 -1.5748 -1.9044 -0.1457
   57MOL    H3018062   0.236   2.700   2.562  0.5505 -0.4118 -1.3135
   57MOL    H3118063   0.363   2.667   2.360  0.4596  0.0258  0.5861
   57MOL    H3218064   0.383   2.366   2.218  0.7036 -1.5777 -2.0454
   57MOL    H3318065   0.483   2.512   2.208 -0.8212 -0.1745 -0.0870
   57MOL    C3418066   0.484   2.395   2.026 -0.4957  0.4839 -0.0705
   57MOL    C3518067   0.394   2.292   1.957 -0.1273  0.6186 -0.2330
   57MOL    C3618068   0.355   2.305   1.820  0.5953  0.3045  0.6758
   57MOL   Cl3718069   0.385   2.451   1.726 -0.2550 -0.0398 -0.1136
   57MOL    C3818070   0.281   2.199   1.763  0.8809 -0.4746  0.1888
   57MOL    C3918071   0.233   2.086   1.834 -0.1894  0.2650 -0.5271
   57MOL    C4018072   0.273   2.079   1.974  0.4896 -0.4646  0.3787
   57MOL    C4118073   0.349   2.180   2.029 -0.0238 -0.1114 -0.7705
   57MOL    C4218074   0.623   2.330   2.041 -0.1294 -1.0752  0.1366
   57MOL    H4318075   0.501   2.474   1.953  1.4360  1.5265  1.4426
   57MOL    H4418076   0.261   2.200   1.657 -0.9833 -5.5359  0.3397
   57MOL    H4518077   0.180   2.006   1.786  0.2355 -0.9744  1.0439
   57MOL    H4618078   0.265   1.983   2.024 -0.2461 -1.6347 -1.9126
   57MOL    H4718079   0.390   2.161   2.127 -1.6592 -0.7717 -0.1920
   57MOL    H4818080   0.657   2.294   1.944  1.9723 -0.5539  0.6511
   57MOL    H4918081   0.601   2.241   2.100  0.2398 -1.2330  0.0394
   57MOL    C5018082   0.731   2.406   2.115 -0.6068  0.1960 -0.4606
   57MOL    C5118083   0.767   2.526   2.023 -0.4770 -0.1004 -0.0666
   57MOL    C5218084   0.767   2.661   2.070  0.2442 -0.2659  0.2504
   57MOL   Cl5318085   0.728   2.695   2.234 -0.5171 -0.0452 -0.0139
   57MOL    C5418086   0.812   2.771   1.986  0.3926  0.7099  0.4229
   57MOL    C5518087   0.863   2.740   1.861 -0.3761 -0.5524 -0.3246
   57MOL    C5618088   0.862   2.610   1.811  0.5976  0.7853  0.1347
   57MOL    C5718089   0.814   2.505   1.889  0.0830 -0.2426 -0.4035
   57MOL    C5818090   0.855   2.325   2.158  0.4030  0.9459  0.0286
   57MOL    H5918091   0.693   2.436   2.213  0.1332 -2.3274  0.6221
   57MOL    H6018092   0.821   2.874   2.019 -0.7071  1.3523 -1.1909
   57MOL    H6118093   0.908   2.821   1.807 -0.7093 -0.2847 -0.2067
   57MOL    H6218094   0.902   2.579   1.715 -0.2541 -2.6855  0.8179
   57MOL    H6318095   0.833   2.410   1.840 -1.8325 -0.1111 -1.4263
   57MOL    H6418096   0.932   2.387   2.204  0.6592 -0.2851  1.2950
   57MOL    H6518097   0.900   2.291   2.065  1.1338 -2.0339  1.4090
   57MOL    C6618098   0.828   2.202   2.250 -0.5390  0.5335 -0.6379
   57MOL    C6718099   0.820   2.237   2.399  0.5382 -0.3046 -0.1356
   57MOL    C6818100   0.704   2.198   2.475  0.2958  0.1260 -0.8123
   57MOL   Cl6918101   0.560   2.132   2.405  0.1398 -0.3920 -0.3177
   57MOL    C7018102   0.698   2.229   2.617 -0.0021 -0.4245 -0.1050
   57MOL    C7118103   0.805   2.293   2.682  0.3963 -0.9033 -0.1263
   57MOL    C7218104   0.916   2.329   2.609  0.0833 -0.0076 -0.4594
   57MOL    C7318105   0.921   2.309   2.471  0.5836 -0.9115 -0.2162
   57MOL    C7418106   0.942   2.097   2.228  0.2961  0.4839 -0.4130
   57MOL    H7518107   0.737   2.149   2.222  0.6571 -2.8881  1.4991
   57MOL    H7618108   0.610   2.203   2.673 -1.0192 -0.4205 -1.6472
   57MOL    H7718109   0.780   2.319   2.784 -0.1128  0.5208 -0.5926
   57MOL    H7818110   0.997   2.379   2.659 -1.8257 -0.1061  2.9155
   57MOL    H7918111   1.012   2.339   2.419  0.4822  1.1580  0.7613
   57MOL    H8018112   0.962   2.040   2.319 -1.8991  0.8994  0.3713
   57MOL    H8118113   1.031   2.160   2.215  0.8365 -0.8512 -3.7293
   57MOL    C8218114   0.920   2.000   2.113 -0.8480 -0.3889 -0.1258
   57MOL    C8318115   0.794   1.918   2.122  0.0764 -0.1450  0.3745
   57MOL    C8418116   0.702   1.920   2.014  0.1260 -0.3499 -0.6635
   57MOL   Cl8518117   0.722   2.018   1.872 -0.2359 -0.1846 -0.0383
   57MOL    C8618118   0.601   1.821   2.008  0.5490 -0.1397 -0.0849
   57MOL    C8718119   0.579   1.735   2.116  0.1666 -0.2306 -0.3114
   57MOL    C8818120   0.655   1.746   2.231 -0.5978 -0.0301  0.3250
   57MOL    C8918121   0.767   1.837   2.233 -0.4586  0.5273  0.5181
   57MOL    C9018122   1.034   1.895   2.099  0.2296  0.5149 -0.9202
   57MOL    H9118123   0.924   2.070   2.030  0.2544 -0.0364  0.2123
   57MOL    H9218124   0.536   1.818   1.922  1.8669  1.3618 -1.1560
   57MOL    H9318125   0.496   1.667   2.106  2.3967 -2.8411 -1.6825
   57MOL    H9418126   0.634   1.678   2.312  0.4163 -2.6102 -1.5135
   57MOL    H9518127   0.833   1.840   2.319 -0.2688  1.7917  0.3437
   57MOL    H9618128   0.985   1.808   2.054  2.5842 -0.7713 -1.0510
   57MOL    H9718129   1.073   1.860   2.195 -1.3215  1.4827  0.0788
   57MOL    C9818130   1.159   1.925   2.015  0.0152 -0.7687  0.9074
   57MOL    C9918131   1.138   2.034   1.908 -0.9886 -0.7820 -0.0353
   57MOL   C10018132   1.177   2.166   1.930  0.0637  0.5516 -0.0287
   57MOL  Cl10118133   1.257   2.210   2.079  0.1245  0.1640 -0.0021
   57MOL   C10218134   1.150   2.266   1.838  0.0039 -0.2556  0.0387
   57MOL   C10318135   1.092   2.231   1.716  0.4235 -0.7028 -0.5748
   57MOL   C10418136   1.064   2.099   1.687  0.0959  1.3530 -0.0874
   57MOL   C10518137   1.078   1.999   1.782 -0.1788 -0.1525 -0.7814
   57MOL   C10618138   1.208   1.791   1.948 -0.3211  0.1327 -0.8711
   57MOL   H10718139   1.245   1.955   2.075  1.0138  1.7496 -1.6624
   57MOL   H10818140   1.175   2.368   1.865  2.0418 -0.9969  1.0238
   57MOL   H10918141   1.076   2.302   1.636  0.3026 -0.7980 -0.6354
   57MOL   H11018142   1.036   2.063   1.588  0.2575 -0.0588  0.3614
   57MOL   H11118143   1.057   1.901   1.743 -0.1042  0.1785 -1.6753
   57MOL   H11218144   1.280   1.815   1.870 -0.3487 -1.4972 -1.4293
   57MOL   H11318145   1.136   1.737   1.887  0.2397 -3.3375  1.3939
   57MOL   C11418146   1.278   1.694   2.049  0.0430  0.1353  0.0990
   57MOL   C11518147   1.404   1.752   2.113 -0.5064  0.0392  0.6285
   57MOL   C11618148   1.447   1.730   2.250  0.0197  0.0952  0.0526
   57MOL  Cl11718149   1.346   1.638   2.353 -0.2266  0.0032 -0.0241
   57MOL   C11818150   1.555   1.799   2.298  0.1861  0.2183 -0.2577
   57MOL   C11918151   1.658   1.850   2.214 -0.9375  0.0401  0.4058
   57MOL   C12018152   1.623   1.856   2.084 -0.2098  0.4408 -1.1163
   57MOL   C12118153   1.498   1.823   2.030  0.2268  0.3477  0.1770
   57MOL   C12218154   1.314   1.556   1.974 -0.8967 -0.1957 -0.0109
   57MOL   H12318155   1.201   1.672   2.123  0.1823 -0.0265  0.1967
   57MOL   H12418156   1.566   1.804   2.405 -0.0868  1.8398 -0.3065
   57MOL   H12518157   1.745   1.906   2.246  0.1702 -0.0406 -2.3511
   57MOL   H12618158   1.694   1.913   2.027 -1.7547  1.7561 -1.7703
   57MOL   H12718159   1.491   1.845   1.924 -0.5343 -1.1678 -0.0948
   57MOL   H12818160   1.377   1.494   2.038 -0.0425 -2.5380 -2.9744
   57MOL   H12918161   1.375   1.582   1.888  0.0274 -1.2456  0.3078
   57MOL   C13018162   1.198   1.466   1.928 -0.2646  0.2638  0.7983
   57MOL   C13118163   1.094   1.437   2.038  0.0162 -0.8818 -0.4141
   57MOL   C13218164   0.958   1.481   2.023  0.1206 -0.9252 -0.1328
   57MOL  Cl13318165   0.898   1.576   1.894  0.1614  0.0397 -0.1074
   57MOL   C13418166   0.864   1.435   2.117 -0.4135 -0.4398  0.3008
   57MOL   C13518167   0.900   1.357   2.230  0.6220  0.4246  0.7151
   57MOL   C13618168   1.033   1.316   2.242 -0.3339 -0.0284 -0.1140
   57MOL   C13718169   1.131   1.356   2.146 -0.4393  0.3332 -0.3006
   57MOL   C13818170   1.258   1.336   1.867 -0.2238  0.1960 -0.4600
   57MOL   H13918171   1.145   1.520   1.849  0.5890 -1.2829 -0.8707
   57MOL   H14018172   0.762   1.471   2.112 -0.1418  0.3501  0.3778
   57MOL   H14118173   0.825   1.329   2.303 -0.9981  0.6652 -0.8239
   57MOL   H14218174   1.054   1.251   2.326 -0.9615  1.0380  0.8823
   57MOL   H14318175   1.235   1.330   2.159 -0.1975  0.8267 -1.2331
   57MOL   H14418176   1.262   1.257   1.942  0.5883  1.6794  1.0951
   57MOL   H14518177   1.364   1.349   1.845 -0.1807 -0.8407 -0.8996
   57MOL   C14618178   1.190   1.279   1.745  0.5394  0.1728 -0.0254
   57MOL   C14718179   1.227   1.361   1.619  0.2038 -0.2281  0.4787
   57MOL   C14818180   1.342   1.325   1.537  0.1158  0.2685 -0.2852
   57MOL  Cl14918181   1.442   1.191   1.550 -0.1342  0.0468  0.0532
   57MOL   C15018182   1.384   1.413   1.433  0.3684 -0.1669 -0.4357
   57MOL   C15118183   1.313   1.532   1.405 -0.5284  0.7920  0.0014
   57MOL   C15218184   1.203   1.564   1.484  0.0262 -0.0357 -0.8330
   57MOL   C15318185   1.164   1.484   1.592 -0.0119 -0.5784  0.3426
   57MOL   C15418186   1.048   1.227   1.747  0.5278 -0.2538 -0.0389
   57MOL   H15518187   1.247   1.188   1.725  1.5650  0.5364  1.1800
   57MOL   H15618188   1.476   1.398   1.378  0.6931  2.1391 -0.5625
   57MOL   H15718189   1.350   1.608   1.338  0.6337 -0.0026 -0.2823
   57MOL   H15818190   1.155   1.660   1.470  0.8583  0.8338  1.9502
   57MOL   H15918191   1.075   1.509   1.649  0.3915 -2.1646  1.6917
   57MOL   H16018192   0.974   1.298   1.710 -0.6191 -0.3513  1.9629
   57MOL   H16118193   1.014   1.232   1.851 -0.6205 -0.2703 -0.4072
   57MOL   C16218194   1.030   1.078   1.700  0.0845 -0.2276 -0.3051
   57MOL   C16318195   1.058   1.057   1.550  0.0205 -0.5880 -0.7245
   57MOL   C16418196   1.160   0.973   1.505  0.1778  0.1804 -0.5306
   57MOL  Cl16518197   1.232   0.861   1.610  0.1465  0.3165  0.0208
   57MOL   C16618198   1.195   0.978   1.371  0.0191  0.4866  0.6928
   57MOL   C16718199   1.128   1.061   1.275 -0.2518 -0.1222  0.9745
   57MOL   C16818200   1.020   1.140   1.320 -0.3963 -0.7108 -0.5347
   57MOL   C16918201   0.992   1.134   1.460  0.0604 -0.4105  0.2854
   57MOL   C17018202   0.899   1.014   1.756 -0.0065 -0.7763  0.5699
   57MOL   H17118203   1.107   1.021   1.752 -1.6031 -2.5459 -0.2841
   57MOL   H17218204   1.286   0.923   1.351  1.8650  3.4163  0.8347
   57MOL   H17318205   1.156   1.074   1.172 -1.9775 -0.6641  0.4303
   57MOL   H17418206   0.964   1.206   1.256  0.4153  0.1664 -0.3421
   57MOL   H17518207   0.913   1.191   1.507 -1.5868 -0.8345 -1.8665
   57MOL   H17618208   0.869   0.931   1.692  0.8911  0.1182 -1.0420
   57MOL   H17718209   0.822   1.088   1.734 -2.0204 -2.9923 -0.1151
   57MOL   C17818210   0.887   0.963   1.902 -0.4147 -0.8754  0.1128
   57MOL   C17918211   0.988   0.852   1.932  0.6626 -0.6959 -0.4212
   57MOL   C18018212   1.067   0.856   2.043 -0.8184  0.1635 -0.2600
   57MOL  Cl18118213   1.048   0.981   2.166  0.0421 -0.7033  0.1888
   57MOL   C18218214   1.178   0.771   2.060  0.3576  0.6268 -0.2890
   57MOL   C18318215   1.203   0.668   1.969  0.5965  0.0587 -0.2355
   57MOL   C18418216   1.107   0.650   1.868  0.2806 -0.1996  0.0370
   57MOL   C18518217   1.004   0.741   1.845  0.3309  0.2250 -0.3679
   57MOL   C18618218   0.742   0.911   1.917 -0.5504  0.0755 -0.2204
   57MOL   H18718219   0.897   1.053   1.963  3.1103  0.4059 -2.1468
   57MOL   H18818220   1.231   0.771   2.154  2.4352 -0.0559 -1.4279
   57MOL   H18918221   1.276   0.594   1.997 -0.7820 -0.6619  1.5379
   57MOL   H19018222   1.131   0.568   1.801 -1.6883 -1.5255  0.8740
   57MOL   H19118223   0.941   0.744   1.758 -0.2230 -2.0036 -0.0768
   57MOL   H19218224   0.729   0.807   1.946  0.9648  0.3823  1.6681
   57MOL   H19318225   0.693   0.910   1.820 -2.3838 -0.7348  0.6893
   57MOL   C19418226   0.647   0.987   2.020 -0.7186 -0.4600  0.1096
   57MOL   C19518227   0.674   0.971   2.169  0.2542  0.7559 -0.0801
   57MOL   C19618228   0.638   1.069   2.265 -0.4637 -0.3345  0.9523
   57MOL  Cl19718229   0.587   1.230   2.211  0.3573  0.1118 -0.2907
   57MOL   C19818230   0.648   1.048   2.404  0.0163  1.1096 -0.0278
   57MOL   C19918231   0.687   0.923   2.442  0.6434  0.5597 -0.3660
   57MOL   C20018232   0.719   0.819   2.354  0.2449 -0.4998 -0.0185
   57MOL   C20118233   0.713   0.845   2.216 -0.1947 -0.6514  0.1294
   57MOL   C20218234   0.496   0.975   1.981 -0.2824  0.4895  0.1823
   57MOL   H20318235   0.672   1.091   1.999 -0.6577 -1.1037 -3.2538
   57MOL   H20418236   0.617   1.123   2.476  0.4029 -1.3448  2.7688
   57MOL   H20518237   0.684   0.892   2.545  1.6645 -2.6340 -1.2405
   57MOL   H20618238   0.746   0.723   2.394 -0.1289  0.1871  1.9703
   57MOL   H20718239   0.734   0.766   2.146  1.3795  0.2267 -0.4288
   57MOL   H20818240   0.437   1.042   2.044 -0.0654  2.9703 -2.1725
   57MOL   H20918241   0.468   0.871   1.999 -1.4701  0.5098 -1.4767
   57MOL   C21018242   0.454   1.030   1.838  0.6630 -0.2645  0.4154
   57MOL   C21118243   0.510   1.172   1.807 -0.0468  0.0887 -0.9551
   57MOL   C21218244   0.579   1.200   1.685  0.2247  0.0958  0.3457
   57MOL  Cl21318245   0.616   1.080   1.569 -0.1438  0.1399  0.0275
   57MOL   C21418246   0.638   1.325   1.665  0.2779  0.4224  0.5324
   57MOL   C21518247   0.616   1.427   1.764  0.4440 -0.4542 -0.4773
   57MOL   C21618248   0.530   1.407   1.877 -1.0543 -0.3514 -0.0336
   57MOL   C21718249   0.479   1.279   1.896  0.5033 -0.4553 -0.3903
   57MOL   C21818250   0.304   1.014   1.833  0.7448  0.4240  0.0893
   57MOL   H21918251   0.498   0.965   1.763 -2.4921 -0.2488 -1.5733
   57MOL   H22018252   0.707   1.341   1.584 -0.0128 -0.1963  0.1584
   57MOL   H22118253   0.664   1.524   1.758 -1.7339  0.6198 -1.1573
   57MOL   H22218254   0.510   1.489   1.944  0.5273 -0.5841  0.7444
   57MOL   H22318255   0.412   1.276   1.980  1.5167 -1.5098  0.4052
   57MOL   H22418256   0.270   1.083   1.755  0.5932  2.1303  1.6190
   57MOL   H22518257   0.264   1.062   1.923 -0.0588  0.0743 -0.0750
   57MOL   C22618258   0.253   0.872   1.811 -0.1469 -0.0470 -0.0522
   57MOL   C22718259   0.239   0.840   1.658  0.1270 -0.4277 -0.5070
   57MOL   C22818260   0.322   0.743   1.602 -0.1563  0.1658  0.0507
   57MOL  Cl22918261   0.443   0.657   1.688  0.4459  0.3516 -0.5168
   57MOL   C23018262   0.301   0.713   1.460  0.1048  0.0627 -0.4959
   57MOL   C23118263   0.206   0.786   1.380 -0.0759 -0.5792  0.4741
   57MOL   C23218264   0.129   0.881   1.440  0.0420 -0.6984 -0.6798
   57MOL   C23318265   0.149   0.913   1.578 -0.4798 -0.2009 -0.0919
   57MOL   C23418266   0.119   0.846   1.885 -0.4454 -0.2207 -0.1258
   57MOL   H23518267   0.330   0.802   1.845 -0.8388 -0.2774  1.0353
   57MOL   H23618268   0.363   0.632   1.425  0.6921 -0.5053  1.7785
   57MOL   H23718269   0.196   0.759   1.276 -1.0367 -0.6811  0.5880
   57MOL   H23818270   0.048   0.930   1.389 -0.5419 -1.5239 -0.5564
   57MOL   H23918271   0.072   0.974   1.623 -1.6355  1.0065 -3.5182
   57MOL   H24018272   0.048   0.914   1.838  0.4238  1.3567  0.7803
   57MOL   H24118273   0.139   0.872   1.989 -1.5161 -1.4796  0.3920
   57MOL   C24218274   0.073   0.700   1.895 -0.7597 -0.2339  0.2556
   57MOL   C24318275   0.040   0.634   1.763 -0.0688  0.1855  0.3178
   57MOL   C24418276   0.100   0.512   1.729 -0.4253 -0.0191 -0.0075
   57MOL  Cl24518277   0.216   0.433   1.833  0.0242  0.4290  0.0634
   57MOL   C24618278   0.060   0.445   1.611 -0.7831 -1.0639  0.3456
   57MOL   C24718279   8.370   0.493   1.538  0.6736  0.5994  0.1170
   57MOL   C24818280   8.316   0.620   1.568  0.2489 -0.2294  0.7622
   57MOL   C24918281   8.362   0.693   1.675 -0.1972  0.4631 -0.4062
   57MOL   C25018282   8.369   0.695   1.995 -0.4018  1.3261 -0.1664
   57MOL   H25118283   0.152   0.647   1.947 -0.7695  1.1430  1.7161
   57MOL   H25218284   0.090   0.343   1.588 -2.2094 -1.8016  1.6409
   57MOL   H25318285   8.329   0.426   1.464 -0.0681  1.4737 -0.2652
   57MOL   H25418286   8.228   0.655   1.515 -1.2263 -0.6483  2.8549
   57MOL   H25518287   8.320   0.790   1.695 -0.5119 -0.3951  3.4792
   57MOL   H25618288   8.271   0.699   1.947  0.1500 -1.0003 -1.5497
   57MOL   H25718289   8.379   0.776   2.068 -1.4746 -0.4365  1.9906
   57MOL   C25818290   8.354   0.566   2.077  0.3987  0.3874 -0.1969
   57MOL   C25918291   8.202   0.554   2.122  0.4333  0.4713 -0.3088
   57MOL   C26018292   8.108   0.489   2.032 -0.5670 -0.5352 -0.9846
   57MOL  Cl26118293   8.145   0.421   1.884  0.1592 -0.0060 -0.2323
   57MOL   C26218294   7.981   0.460   2.078  0.3045 -0.4451 -0.0902
   57MOL   C26318295   7.943   0.510   2.206 -0.5782 -0.7873  0.5013
   57MOL   C26418296   8.033   0.580   2.293 -0.0072 -0.2333 -0.3318
   57MOL   C26518297   8.167   0.602   2.251  0.5348  0.5651  0.0641
   57MOL   C26618298   0.035   0.556   2.187 -0.1784  0.4606 -0.6502
   57MOL   H26718299   8.370   0.488   2.002 -0.9061 -0.3940  0.3190
   57MOL   H26818300   7.908   0.402   2.024  0.2445 -0.2879 -0.1752
   57MOL   H26918301   7.842   0.491   2.238 -0.3358  0.1191  1.8849
   57MOL   H27018302   7.998   0.619   2.388 -0.9244 -0.7698 -0.4480
   57MOL   H27118303   8.230   0.651   2.324  0.6539  0.1495  0.2478
   57MOL   H27218304   0.017   0.631   2.263 -0.5812  1.4445 -1.7085
   57MOL   H27318305   0.135   0.572   2.146  0.4093 -0.0648  0.5376
   57MOL   C27418306   0.029   0.417   2.259 -0.7599 -0.2000 -0.3947
   57MOL   C27518307   0.136   0.423   2.373 -0.6601 -0.0099  1.4142
   57MOL   C27618308   0.090   0.435   2.505 -0.4233 -1.0696 -0.3813
   57MOL  Cl27718309   8.348   0.441   2.550 -0.0270 -0.2902 -0.2664
   57MOL   C27818310   0.185   0.467   2.602 -0.0036 -0.4385 -0.5882
   57MOL   C27918311   0.319   0.494   2.571 -0.0248  0.2070 -0.2176
   57MOL   C28018312   0.365   0.474   2.440  0.9020 -0.0634  0.3899
   57MOL   C28118313   0.277   0.435   2.339  1.5131 -0.2537 -0.6135
   57MOL   C28218314   0.063   0.298   2.165  0.0690 -0.3893 -0.7007
   57MOL   H28318315   8.355   0.389   2.306 -0.8589  0.4827 -0.1767
   57MOL   H28418316   0.145   0.492   2.699 -3.2001 -1.2154 -1.6430
   57MOL   H28518317   0.393   0.528   2.643 -0.0004 -0.3944  0.0383
   57MOL   H28618318   0.469   0.485   2.412  0.7010 -0.7497 -0.6554
   57MOL   H28718319   0.316   0.411   2.242  4.5792 -0.7313  0.6967
   57MOL   H28818320   0.172   0.294   2.152  0.0176 -3.1975 -0.5300
   57MOL   H28918321   0.036   0.307   2.060  2.3204  0.3120 -1.2472
   57MOL   C29018322   0.020   0.157   2.206 -0.2747  0.3853  0.4771
   57MOL   C29118323   0.135   0.063   2.174  0.3701  0.0702  0.0998
   57MOL   C29218324   0.217   0.028   2.287  0.3522 -0.1231  0.2442
   57MOL  Cl29318325   0.177   0.079   2.450 -0.1724  0.0999  0.2372
   57MOL   C29418326   0.326   8.363   2.255  0.0015 -0.4289  0.2743
   57MOL   C29518327   0.357   8.323   2.123 -0.2994 -0.2767 -0.8252
   57MOL   C29618328   0.283   8.369   2.017  0.3070 -0.2975  0.1401
   57MOL   C29718329   0.169   0.030   2.041  0.6131 -0.2814 -0.0203
   57MOL   C29818330   8.297   0.117   2.150 -0.2122  0.4750  0.2071
   57MOL   H29918331   0.003   0.175   2.312 -1.3150 -0.6794  0.5029
   57MOL   H30018332   0.390   8.334   2.337  0.9293 -0.4962 -0.4620
   57MOL   H30118333   0.442   8.258   2.106  0.4756  0.6250 -0.5039
   57MOL   H30218334   0.311   8.337   1.918 -1.0657 -1.7261  0.2059
   57MOL   H30318335   0.094   0.067   1.974  0.4332  0.2705  0.4795
   57MOL   H30418336   8.317   0.129   2.044 -3.9719  1.2988 -0.4456
   57MOL   H30518337   8.209   0.178   2.171  0.3437  1.3481  0.0426
   57MOL   C30618338   8.265   8.387   2.176  0.4653 -0.5509 -0.0613
   57MOL   C30718339   8.130   8.349   2.116  0.5213 -0.3381 -0.9262
   57MOL   C30818340   8.107   8.330   1.979 -0.0953  0.1485 -0.0280
   57MOL  Cl30918341   8.228   8.376   1.859  0.2586 -0.1980  0.0828
   57MOL   C31018342   7.990   8.262   1.933  0.7625 -0.4419  0.3144
   57MOL   C31118343   7.878   8.249   2.021 -0.4900 -0.5252 -0.0589
   57MOL   C31218344   7.899   8.276   2.158 -0.1301 -0.0416 -0.3288
   57MOL   C31318345   8.022   8.321   2.207 -0.4236 -0.2045 -0.7537
   57MOL   C31418346   8.284   8.351   2.326 -0.2589 -0.1004 -0.7734
   57MOL   H31518347   8.341   8.319   2.137  0.7313 -0.8422  0.9342
   57MOL   H31618348   7.987   8.242   1.827 -0.3437 -0.4984  0.3559
   57MOL   H31718349   7.793   8.203   1.975  0.5347 -0.3293 -2.2151
   57MOL   H31818350   7.812   8.266   2.221 -0.2789  1.9290 -0.1936
   57MOL   H31918351   8.028   8.337   2.314  0.7145  2.2617 -1.1639
   57MOL   H32018352   8.385   8.371   2.362 -0.4072 -2.3075  1.0403
   57MOL   H32118353   8.268   8.243   2.338 -1.3355  0.2071  0.7438
   57MOL   H32218354   8.225   8.396   2.406  1.7966 -0.8477  1.2479
   58MOL     C118355   2.990   3.558   0.879 -0.6736 -0.4949 -0.2139
   58MOL     C218356   2.977   3.590   1.027 -0.3899 -0.1767 -0.4304
   58MOL     C318357   3.046   3.518   1.129 -0.2794 -0.0844 -0.7773
   58MOL    Cl418358   3.181   3.423   1.082  0.0100 -0.0300 -0.1120
   58MOL     C518359   3.019   3.543   1.262  0.2334 -0.0845 -1.2622
   58MOL     C618360   2.926   3.641   1.303  0.3205  0.3219  0.0394
   58MOL     C718361   2.852   3.712   1.199  0.6736 -0.7038 -0.6886
   58MOL     C818362   2.877   3.682   1.068 -0.1488 -0.2781  0.8230
   58MOL     C918363   2.892   3.469   0.815  0.8154  0.8944  0.6017
   58MOL    H1018364   3.004   3.654   0.829  1.9636 -1.1502 -0.8041
   58MOL    H1118365   3.062   3.484   1.342  1.1074  0.9128 -0.9962
   58MOL    H1218366   2.911   3.655   1.409  1.3862  2.5942 -0.0748
   58MOL    H1318367   2.780   3.785   1.233  0.5665 -1.9631  1.8796
   58MOL    H1418368   2.824   3.737   0.991  2.6239 -0.7997 -1.5964
   58MOL    H1518369   2.921   3.462   0.711 -1.2532  2.6098 -0.1396
   58MOL    H1618370   2.799   3.527   0.818  0.2187 -0.1351  3.1663
   58MOL    H1718371   3.085   3.506   0.869 -0.3380 -0.0253  0.4905
   58MOL    C1818372   2.847   3.342   0.892 -0.3006  0.4520  0.3787
   58MOL    C1918373   2.953   3.231   0.885 -0.3810 -0.3450 -0.0077
   58MOL    C2018374   2.974   3.144   0.992  0.7391  0.3118 -0.6438
   58MOL   Cl2118375   2.893   3.159   1.140 -0.0196  0.3499  0.3295
   58MOL    C2218376   3.078   3.052   0.978 -0.6973  0.6775  0.1303
   58MOL    C2318377   3.154   3.035   0.858  0.7112 -0.2829 -1.0083
   58MOL    C2418378   3.126   3.116   0.749 -0.2718  0.2974 -0.1758
   58MOL    C2518379   3.027   3.213   0.765 -0.3003  0.5051  0.1638
   58MOL    C2618380   2.708   3.288   0.839 -0.0130 -0.1384  1.1400
   58MOL    H2718381   2.835   3.374   0.996  1.7774 -1.2407  1.1980
   58MOL    H2818382   3.104   2.978   1.052  0.7152  1.0560  0.0290
   58MOL    H2918383   3.232   2.963   0.840 -0.5610 -2.1900  0.8693
   58MOL    H3018384   3.192   3.107   0.664 -0.6874 -1.1349 -0.3613
   58MOL    H3118385   3.006   3.282   0.684  2.0758  3.0107  1.5819
   58MOL    H3218386   2.699   3.184   0.870  0.1003  0.2904  2.6377
   58MOL    H3318387   2.729   3.278   0.732  0.0303  0.6552  1.0703
   58MOL    C3418388   2.587   3.374   0.873  0.3464  0.4922 -0.5308
   58MOL    C3518389   2.582   3.400   1.024  0.0482 -0.4540 -0.3558
   58MOL    C3618390   2.554   3.531   1.069  0.3146 -0.4090 -0.0633
   58MOL   Cl3718391   2.535   3.674   0.979  0.1670  0.2352  0.1052
   58MOL    C3818392   2.550   3.550   1.210  0.2033  0.3312 -0.5769
   58MOL    C3918393   2.585   3.447   1.291 -0.3497 -0.1300  0.0018
   58MOL    C4018394   2.607   3.318   1.249 -1.2113  0.4069  0.3277
   58MOL    C4118395   2.600   3.293   1.112 -0.2111 -0.3117 -0.5089
   58MOL    C4218396   2.451   3.320   0.820  0.8184  0.0488  0.1857
   58MOL    H4318397   2.598   3.471   0.824  0.4206  1.0487  0.5532
   58MOL    H4418398   2.534   3.649   1.250  0.4430 -0.4440  1.4805
   58MOL    H4518399   2.595   3.459   1.397  0.8952  2.3676 -0.3750
   58MOL    H4618400   2.639   3.236   1.311  1.9894  1.3130 -0.0492
   58MOL    H4718401   2.619   3.192   1.081  3.8547  0.7453 -1.7895
   58MOL    H4818402   2.368   3.372   0.867  0.8636 -0.8069  1.2224
   58MOL    H4918403   2.429   3.216   0.842  0.7557 -0.4295 -1.9738
   58MOL    C5018404   2.435   3.326   0.672  0.5458 -0.5939 -0.2057
   58MOL    C5118405   2.377   3.466   0.636  0.2302  0.2894  0.9795
   58MOL    C5218406   2.452   3.560   0.557 -0.0391 -0.0261 -0.5511
   58MOL   Cl5318407   2.612   3.523   0.498 -0.0061  0.2467  0.3813
   58MOL    C5418408   2.396   3.688   0.530 -0.4286  0.3602  0.3356
   58MOL    C5518409   2.269   3.721   0.586  0.1544  0.5381 -0.1683
   58MOL    C5618410   2.190   3.624   0.656  1.2215 -0.2906  0.5973
   58MOL    C5718411   2.244   3.500   0.673  0.1298  0.5730  0.3885
   58MOL    C5818412   2.355   3.215   0.607 -0.4343  0.3902  0.3572
   58MOL    H5918413   2.532   3.319   0.623  0.4882  0.8022 -0.5515
   58MOL    H6018414   2.456   3.749   0.464 -2.6959  0.5761 -1.6213
   58MOL    H6118415   2.215   3.812   0.565  0.9083  1.1637  0.5559
   58MOL    H6218416   2.092   3.659   0.686  0.0970 -1.2069 -1.9073
   58MOL    H6318417   2.192   3.426   0.732  0.7122 -1.0242 -1.0593
   58MOL    H6418418   2.346   3.250   0.504  1.5226  0.8253  0.3171
   58MOL    H6518419   2.259   3.206   0.658 -1.6520  0.2273 -1.9126
   58MOL    C6618420   2.418   3.079   0.598 -0.4589 -0.3749 -0.5930
   58MOL    C6718421   2.522   3.068   0.488  0.2545 -0.2199  0.2889
   58MOL    C6818422   2.655   3.031   0.520  0.4616 -0.8576  0.2967
   58MOL   Cl6918423   2.701   2.963   0.671 -0.1072 -0.3372  0.0737
   58MOL    C7018424   2.753   3.046   0.425  0.3955  0.9259  0.1688
   58MOL    C7118425   2.724   3.091   0.297 -0.5635  1.0647 -0.7485
   58MOL    C7218426   2.589   3.115   0.258 -0.7643 -0.4839  0.0948
   58MOL    C7318427   2.487   3.104   0.355  0.5829 -0.7691 -0.1647
   58MOL    C7418428   2.310   2.965   0.583 -0.0442  0.9996  0.2764
   58MOL    H7518429   2.470   3.063   0.693 -0.7742 -0.1894 -0.3872
   58MOL    H7618430   2.858   3.030   0.443  0.0695  0.0615  1.3533
   58MOL    H7718431   2.808   3.116   0.234 -0.4701  1.1266 -0.6006
   58MOL    H7818432   2.558   3.141   0.158 -0.9973  0.2202  0.3482
   58MOL    H7918433   2.385   3.116   0.324  0.4861 -1.9344 -0.3368
   58MOL    H8018434   2.368   2.873   0.567 -2.0444 -0.2641  0.1526
   58MOL    H8118435   2.253   2.972   0.490 -1.5009  1.1739  1.1671
   58MOL    C8218436   2.218   2.946   0.710  0.0557  0.2210  0.5816
   58MOL    C8318437   2.284   2.952   0.848  0.8823 -0.3912 -0.0111
   58MOL    C8418438   2.240   3.044   0.952 -0.1524 -0.1695  0.4072
   58MOL   Cl8518439   2.114   3.160   0.941  0.3163  0.0023  0.0758
   58MOL    C8618440   2.320   3.045   1.072  0.0062  0.0243 -0.3717
   58MOL    C8718441   2.431   2.956   1.094 -0.2045 -0.2854 -0.5834
   58MOL    C8818442   2.467   2.868   0.993  0.6129  0.0592 -0.4151
   58MOL    C8918443   2.393   2.869   0.868 -1.0091 -0.2759 -0.0021
   58MOL    C9018444   2.137   2.812   0.696 -0.4434  0.2468 -0.1960
   58MOL    H9118445   2.149   3.030   0.700  0.7825  0.9631  1.6543
   58MOL    H9218446   2.288   3.110   1.153  0.3229 -0.2920  0.0099
   58MOL    H9318447   2.475   2.960   1.193  1.0105 -0.8499 -1.0945
   58MOL    H9418448   2.542   2.797   1.025  1.6667  0.6659 -1.4950
   58MOL    H9518449   2.434   2.814   0.784  1.1458 -0.0268  0.8636
   58MOL    H9618450   2.202   2.725   0.685 -1.0810 -0.8493  3.6361
   58MOL    H9718451   2.093   2.809   0.596 -0.1337  1.4980 -0.3747
   58MOL    C9818452   2.034   2.783   0.802  0.6134  0.0237  0.4664
   58MOL    C9918453   1.998   2.637   0.817  0.1942  0.0617 -0.2654
   58MOL   C10018454   1.999   2.560   0.942  0.3833 -0.4225  0.2068
   58MOL  Cl10118455   2.031   2.639   1.088 -0.2044 -0.5182 -0.0588
   58MOL   C10218456   1.964   2.426   0.943 -0.6162  0.5344 -0.4807
   58MOL   C10318457   1.930   2.360   0.825  0.0180 -0.0121 -0.3966
   58MOL   C10418458   1.924   2.430   0.699 -0.9538 -0.6217 -0.1059
   58MOL   C10518459   1.953   2.570   0.703 -0.9556 -0.6132 -1.1742
   58MOL   C10618460   1.907   2.876   0.787 -0.1933  0.1235 -0.1647
   58MOL   H10718461   2.073   2.800   0.902  2.0018  0.2137 -0.0917
   58MOL   H10818462   1.959   2.368   1.034 -0.9054 -0.4332 -1.1085
   58MOL   H10918463   1.910   2.254   0.829 -0.8710  0.2023  1.7829
   58MOL   H11018464   1.905   2.378   0.607  2.2961  1.3994 -2.0265
   58MOL   H11118465   1.950   2.621   0.607 -3.3929  0.0997 -0.7419
   58MOL   H11218466   1.869   2.858   0.687  0.6682  1.0607 -0.6634
   58MOL   H11318467   1.924   2.984   0.787 -3.1083  0.6287  1.4186
   58MOL   C11418468   1.797   2.860   0.897  0.4234 -0.2057 -0.2356
   58MOL   C11518469   1.667   2.917   0.840  0.5080 -0.1334  0.5885
   58MOL   C11618470   1.584   2.837   0.753  0.3296 -0.4221 -0.1722
   58MOL  Cl11718471   1.639   2.682   0.700  0.0408  0.0968  0.2851
   58MOL   C11818472   1.452   2.880   0.709  0.2896 -0.1676  0.2578
   58MOL   C11918473   1.408   3.010   0.742 -0.2323 -0.1697  0.1367
   58MOL   C12018474   1.495   3.094   0.815  0.2691 -0.2389  0.7388
   58MOL   C12118475   1.617   3.045   0.863 -0.4822 -0.5438 -0.6798
   58MOL   C12218476   1.847   2.930   1.027  0.5073 -0.0678  0.0962
   58MOL   H12318477   1.777   2.753   0.907  1.5082 -0.4625 -0.7067
   58MOL   H12418478   1.383   2.833   0.640 -0.7441  0.0511  1.1411
   58MOL   H12518479   1.310   3.047   0.716 -0.6476 -1.4220 -0.0880
   58MOL   H12618480   1.469   3.198   0.829 -0.6179 -0.4741  0.9302
   58MOL   H12718481   1.681   3.110   0.920  0.0445  1.1471 -3.1421
   58MOL   H12818482   1.885   3.029   1.005 -1.0139  0.4125 -0.4765
   58MOL   H12918483   1.941   2.884   1.058 -0.2461 -0.9750  1.0731
   58MOL   C13018484   1.746   2.922   1.148  0.8017 -0.2954 -0.3110
   58MOL   C13118485   1.808   2.977   1.280 -0.4786 -0.1425 -0.1458
   58MOL   C13218486   1.761   3.102   1.338 -0.5529  0.7459  0.0454
   58MOL  Cl13318487   1.634   3.202   1.271  0.4492  0.2572 -0.1522
   58MOL   C13418488   1.827   3.146   1.457 -0.2888  0.0711 -0.0112
   58MOL   C13518489   1.932   3.074   1.520  0.4824  0.2220 -0.2387
   58MOL   C13618490   1.982   2.959   1.449 -0.7720 -0.3196 -0.3222
   58MOL   C13718491   1.925   2.917   1.329 -0.2167  0.4641 -0.2172
   58MOL   C13818492   1.684   2.780   1.166  0.1273 -0.2629  0.5270
   58MOL   H13918493   1.657   2.981   1.128  1.0979  0.5321  0.7413
   58MOL   H14018494   1.796   3.237   1.508  0.4900  0.5095 -0.3137
   58MOL   H14118495   1.995   3.104   1.602 -0.8769  2.5868 -0.0260
   58MOL   H14218496   2.061   2.901   1.495 -1.0973 -2.0423 -1.8772
   58MOL   H14318497   1.959   2.827   1.280 -0.4026 -0.3868  1.2155
   58MOL   H14418498   1.767   2.713   1.146 -0.6136 -0.9816 -0.1864
   58MOL   H14518499   1.616   2.762   1.083  1.8331 -1.7400 -0.5860
   58MOL   C14618500   1.616   2.746   1.296  0.8092  0.1326 -0.7205
   58MOL   C14718501   1.612   2.590   1.302 -0.0400  0.7909  0.1388
   58MOL   C14818502   1.689   2.516   1.396 -0.5418 -0.5180  0.7661
   58MOL  Cl14918503   1.791   2.598   1.512  0.3470  0.2949 -0.0760
   58MOL   C15018504   1.690   2.380   1.393  0.3589 -0.7069 -0.1289
   58MOL   C15118505   1.613   2.312   1.296 -0.2744 -0.2211 -0.6433
   58MOL   C15218506   1.531   2.384   1.205  0.5342 -0.1038  0.0211
   58MOL   C15318507   1.534   2.526   1.205  0.0251  0.4018 -0.2047
   58MOL   C15418508   1.472   2.805   1.300  0.1989  0.3080  0.5085
   58MOL   H15518509   1.675   2.778   1.383  0.1940 -0.2705 -0.1473
   58MOL   H15618510   1.763   2.328   1.454  1.1642 -1.1376 -1.4432
   58MOL   H15718511   1.606   2.204   1.288  0.7581 -0.5281  2.1706
   58MOL   H15818512   1.471   2.333   1.131 -0.0427 -0.5790  0.8036
   58MOL   H15918513   1.474   2.583   1.135 -0.6104 -1.0373 -0.8522
   58MOL   H16018514   1.404   2.753   1.232 -0.0800 -1.0702  1.8185
   58MOL   H16118515   1.488   2.904   1.257 -1.2048  0.8446  1.1845
   58MOL   C16218516   1.396   2.831   1.436 -1.0922  0.2722 -0.0573
   58MOL   C16318517   1.388   2.703   1.510  0.8554 -0.5450  0.2078
   58MOL   C16418518   1.444   2.686   1.638 -0.8999  0.2911  0.3438
   58MOL  Cl16518519   1.517   2.810   1.728  0.6819 -0.0552  0.0105
   58MOL   C16618520   1.438   2.561   1.705 -0.1729  0.4840 -0.0975
   58MOL   C16718521   1.405   2.443   1.646  0.3272 -0.8097  0.0570
   58MOL   C16818522   1.349   2.459   1.518 -0.2146  0.5454  0.5463
   58MOL   C16918523   1.341   2.582   1.451 -0.2653 -0.3152  0.2272
   58MOL   C17018524   1.257   2.889   1.399  0.4169  0.4661  0.3045
   58MOL   H17118525   1.452   2.909   1.488 -0.7263  0.4590 -0.7361
   58MOL   H17218526   1.468   2.554   1.808  0.6986 -1.2300 -0.4582
   58MOL   H17318527   1.417   2.351   1.701  0.0149 -1.6846 -1.3054
   58MOL   H17418528   1.335   2.376   1.450 -1.5570  1.7851 -0.7237
   58MOL   H17518529   1.313   2.589   1.347 -0.7745  0.9960  0.4443
   58MOL   H17618530   1.189   2.805   1.402 -1.3185  1.8400  0.4017
   58MOL   H17718531   1.266   2.929   1.298  3.6101  1.1473  0.7961
   58MOL   C17818532   1.202   3.002   1.485  0.6381  0.7400  0.1310
   58MOL   C17918533   1.219   2.979   1.640  0.1228  0.0251 -0.2586
   58MOL   C18018534   1.295   3.068   1.724  0.2320 -0.1390 -0.5415
   58MOL  Cl18118535   1.383   3.201   1.656  0.2827  0.1112 -0.1281
   58MOL   C18218536   1.316   3.038   1.861 -0.0796 -0.1106 -0.1989
   58MOL   C18318537   1.249   2.928   1.915  0.6891  1.1893 -0.2925
   58MOL   C18418538   1.184   2.833   1.840 -0.3009  0.0587  0.1391
   58MOL   C18518539   1.165   2.861   1.704 -0.0798  0.8297  0.1613
   58MOL   C18618540   1.056   3.043   1.447  0.1528  0.4928  0.3432
   58MOL   H18718541   1.265   3.089   1.466 -0.5442  1.0805 -2.4288
   58MOL   H18818542   1.374   3.109   1.918  0.9135  0.9819 -2.5155
   58MOL   H18918543   1.272   2.896   2.015  1.2102  1.4040 -0.3422
   58MOL   H19018544   1.145   2.740   1.878  1.2907  0.2681  2.3712
   58MOL   H19118545   1.109   2.791   1.645  0.9566  1.0637 -1.1266
   58MOL   H19218546   1.009   3.113   1.516 -2.6946 -2.8422  1.9298
   58MOL   H19318547   1.000   2.955   1.481  0.9406 -0.4694 -0.7947
   58MOL   C19418548   1.030   3.082   1.300  0.4328  0.0642 -0.4474
   58MOL   C19518549   1.114   3.220   1.268 -0.0925 -0.0244  0.3990
   58MOL   C19618550   1.219   3.222   1.169  0.0012  0.1864 -0.7552
   58MOL  Cl19718551   1.260   3.085   1.074 -0.0560  0.1480 -0.3599
   58MOL   C19818552   1.278   3.344   1.134 -1.0580 -0.3340  0.0276
   58MOL   C19918553   1.243   3.465   1.196 -0.2318 -0.4365  0.2627
   58MOL   C20018554   1.154   3.459   1.307 -0.1884  0.1799  0.1540
   58MOL   C20118555   1.084   3.342   1.330  0.6419 -0.4877  0.3720
   58MOL   C20218556   0.882   3.100   1.251 -0.2049 -0.5217  0.4306
   58MOL   H20318557   1.074   3.009   1.232 -1.2611 -2.0101  0.6353
   58MOL   H20418558   1.345   3.345   1.049 -2.0830  0.8163 -0.7748
   58MOL   H20518559   1.297   3.556   1.171 -0.2933 -0.1222  1.2527
   58MOL   H20618560   1.130   3.548   1.363  0.0286  0.2126  0.1947
   58MOL   H20718561   1.005   3.334   1.403 -0.0061 -3.4005 -0.5541
   58MOL   H20818562   0.877   3.189   1.189  0.3720  0.3244  1.5735
   58MOL   H20918563   0.817   3.149   1.324 -1.1315  0.6494 -1.1564
   58MOL   C21018564   0.816   2.981   1.186  0.3325 -0.6735 -0.9906
   58MOL   C21118565   0.891   2.920   1.070 -0.0682 -0.2270  0.2644
   58MOL   C21218566   0.986   2.809   1.083  0.5388  0.1773  0.5936
   58MOL  Cl21318567   0.986   2.725   1.236  0.7657 -0.2735 -0.5907
   58MOL   C21418568   1.052   2.759   0.971  0.1276 -0.6730 -0.4665
   58MOL   C21518569   1.039   2.818   0.843  0.1243 -0.1077 -0.1370
   58MOL   C21618570   0.954   2.931   0.838 -0.2300  0.5008  0.4711
   58MOL   C21718571   0.882   2.981   0.947  0.4524  0.0629  0.6449
   58MOL   C21818572   0.669   3.000   1.148 -0.0961 -0.8374 -0.2547
   58MOL   H21918573   0.819   2.901   1.260 -0.2445 -1.0274 -1.3517
   58MOL   H22018574   1.106   2.666   0.981  2.4139  0.7694  1.1441
   58MOL   H22118575   1.095   2.788   0.755  1.3320  2.7708 -0.4273
   58MOL   H22218576   0.930   2.968   0.739 -0.5700 -3.1281 -0.8673
   58MOL   H22318577   0.809   3.059   0.931 -2.0203 -2.4485 -0.8195
   58MOL   H22418578   0.632   2.925   1.078 -0.7649 -0.5644 -0.1970
   58MOL   H22518579   0.654   3.098   1.102 -0.7944 -1.8022 -2.1054
   58MOL   C22618580   0.576   2.990   1.281  0.1091  0.5140 -0.2362
   58MOL   C22718581   0.594   2.861   1.361 -0.5204 -0.0320  0.0296
   58MOL   C22818582   0.642   2.863   1.498  0.0168 -0.8814  0.4127
   58MOL  Cl22918583   0.678   3.010   1.570 -0.4865  0.1071  0.0408
   58MOL   C23018584   0.657   2.746   1.570  0.2111  0.4534  0.5466
   58MOL   C23118585   0.626   2.625   1.512 -0.0146  0.4304  0.5504
   58MOL   C23218586   0.575   2.622   1.382 -0.6544  0.4837 -0.0811
   58MOL   C23318587   0.561   2.739   1.302  0.7078  0.4396  0.0059
   58MOL   C23418588   0.429   3.003   1.236 -0.3257 -0.7545 -0.3126
   58MOL   H23518589   0.592   3.077   1.343 -0.2455  0.4932 -0.1132
   58MOL   H23618590   0.689   2.754   1.673  0.5667  2.1844  0.3172
   58MOL   H23718591   0.631   2.536   1.573 -1.6109  0.7575  1.1680
   58MOL   H23818592   0.554   2.524   1.341 -1.7384  1.1131 -1.0709
   58MOL   H23918593   0.512   2.729   1.207  1.0800 -1.2415 -0.0408
   58MOL   H24018594   0.361   2.959   1.309 -2.9087  1.6954 -1.1380
   58MOL   H24118595   0.415   2.949   1.142  2.6754 -0.3848 -1.0100
   58MOL   C24218596   0.395   3.148   1.213  0.6820  0.4739  0.3721
   58MOL   C24318597   0.393   3.240   1.336  0.2057 -0.3445 -0.5518
   58MOL   C24418598   0.466   3.362   1.348 -0.2648  0.2444 -0.8583
   58MOL  Cl24518599   0.589   3.416   1.234 -0.2878  0.4630  0.5746
   58MOL   C24618600   0.446   3.435   1.467  0.9356 -0.0485 -0.2769
   58MOL   C24718601   0.364   3.402   1.572 -0.0908  0.1214  0.2499
   58MOL   C24818602   0.302   3.279   1.567 -0.3763 -0.2170  0.0261
   58MOL   C24918603   0.306   3.206   1.450 -0.0769  0.0914  0.5696
   58MOL   C25018604   0.257   3.171   1.138  0.4092 -0.1226  0.7362
   58MOL   H25118605   0.467   3.197   1.148 -1.1253  2.3638 -0.2917
   58MOL   H25218606   0.503   3.526   1.483 -0.6345  0.7180  1.0134
   58MOL   H25318607   0.365   3.463   1.661 -0.4950  0.1959  0.2029
   58MOL   H25418608   0.251   3.242   1.655 -1.7040  0.8298 -0.3028
   58MOL   H25518609   0.247   3.116   1.443  0.6914 -0.2758 -1.4240
   58MOL   H25618610   0.212   3.268   1.158 -0.1475 -0.1324 -0.4533
   58MOL   H25718611   0.180   3.102   1.173  0.8254 -0.3351  1.2427
   58MOL   C25818612   0.251   3.171   0.982 -0.7005  0.4133 -0.0161
   58MOL   C25918613   0.273   3.032   0.922  1.1332 -0.6898  0.1055
   58MOL   C26018614   0.172   2.933   0.905 -0.0169 -0.6317 -0.2635
   58MOL  Cl26118615   0.010   2.965   0.955 -0.1349  0.0135 -0.2115
   58MOL   C26218616   0.198   2.811   0.842  0.2077 -0.1034 -0.3124
   58MOL   C26318617   0.333   2.787   0.798 -0.2586 -0.0207 -0.1313
   58MOL   C26418618   0.435   2.877   0.819 -0.2244 -0.5305 -0.5572
   58MOL   C26518619   0.405   2.997   0.886 -0.3538  0.2235 -0.4866
   58MOL   C26618620   0.332   3.288   0.914  1.1407  0.4959  0.1248
   58MOL   H26718621   0.148   3.195   0.957 -0.5623 -0.5222 -1.5312
   58MOL   H26818622   0.119   2.740   0.821 -1.5300  1.5243  0.5438
   58MOL   H26918623   0.347   2.691   0.750 -1.6638 -1.2224  1.7584
   58MOL   H27018624   0.533   2.855   0.780 -0.1162  0.6990 -0.9945
   58MOL   H27118625   0.491   3.063   0.896  0.5421 -0.7821 -1.3819
   58MOL   H27218626   0.436   3.268   0.888  0.0608 -0.9449 -3.3510
   58MOL   H27318627   0.327   3.369   0.987  1.9013 -0.2324  1.0025
   58MOL   C27418628   0.276   3.347   0.786  0.0581 -0.8225  0.8926
   58MOL   C27518629   0.248   3.256   0.665  0.1705 -0.1438 -0.1809
   58MOL   C27618630   0.117   3.252   0.605  0.2002 -0.5258 -0.1723
   58MOL  Cl27718631   8.401   3.320   0.680 -0.2128 -0.3891 -0.2212
   58MOL   C27818632   0.095   3.169   0.495 -0.2974  1.0522 -0.2596
   58MOL   C27918633   0.203   3.089   0.451 -0.2314  0.0121 -0.1645
   58MOL   C28018634   0.339   3.102   0.497  0.0092  0.0495 -0.3692
   58MOL   C28118635   0.354   3.183   0.610 -0.1928 -0.4082  0.1841
   58MOL   C28218636   0.369   3.473   0.748  0.4333 -0.0970 -0.1700
   58MOL   H28318637   0.182   3.397   0.810 -0.2710 -0.2659 -1.4373
   58MOL   H28418638   8.418   3.152   0.450  0.2123 -2.0135 -0.3324
   58MOL   H28518639   0.183   3.030   0.362 -0.5824 -0.1440  0.0173
   58MOL   H28618640   0.426   3.059   0.449  0.0152 -0.8405  0.4318
   58MOL   H28718641   0.453   3.196   0.652 -0.9149 -0.2581  1.9009
   58MOL   H28818642   0.444   3.425   0.684 -0.0384 -0.6770 -0.2957
   58MOL   H28918643   0.425   3.507   0.835  0.2241 -0.5302  0.1337
   58MOL   C29018644   0.307   3.584   0.662 -0.1892 -0.1063  0.3702
   58MOL   C29118645   0.424   3.668   0.601  0.8585 -0.3868  0.2515
   58MOL   C29218646   0.434   3.697   0.462  0.5443  0.2489 -0.1096
   58MOL  Cl29318647   0.309   3.633   0.356 -0.4182 -0.1623  0.1031
   58MOL   C29418648   0.528   3.786   0.415  0.6100 -0.2464 -0.3984
   58MOL   C29518649   0.631   3.828   0.505 -0.4203 -0.3628  0.3705
   58MOL   C29618650   0.631   3.799   0.640  0.3679  0.7652  0.1957
   58MOL   C29718651   0.520   3.728   0.690  0.3330 -0.1565 -0.0346
   58MOL   C29818652   0.215   3.677   0.736  0.2600  0.1300 -0.2908
   58MOL   H29918653   0.256   3.531   0.581  2.2221 -1.3100 -0.4041
   58MOL   H30018654   0.517   3.816   0.312  1.0152  2.3687  0.2827
   58MOL   H30118655   0.714   3.890   0.473  0.7205 -0.5099  2.9071
   58MOL   H30218656   0.709   3.821   0.711 -0.6082 -0.8092  1.7998
   58MOL   H30318657   0.507   3.712   0.796 -0.4282 -2.5011 -0.4555
   58MOL   H30418658   0.268   3.707   0.827 -0.5349  0.3102  0.1198
   58MOL   H30518659   0.134   3.614   0.774  1.2001 -0.4970  0.7023
   58MOL   C30618660   0.153   3.799   0.661 -0.3536  0.6551 -0.7021
   58MOL   C30718661   0.230   3.930   0.672  0.3013 -0.1262 -0.0903
   58MOL   C30818662   0.228   4.014   0.561  0.1363 -0.3508 -0.3921
   58MOL  Cl30918663   0.149   3.972   0.417 -0.3240  0.0869  0.3351
   58MOL   C31018664   0.301   4.133   0.563 -0.0452  0.4232 -0.2241
   58MOL   C31118665   0.371   4.169   0.675 -0.4770 -0.7224  0.5854
   58MOL   C31218666   0.375   4.084   0.786 -0.1240 -0.3707 -0.0039
   58MOL   C31318667   0.298   3.967   0.791 -0.0008  0.3078  0.3871
   58MOL   C31418668   0.005   3.815   0.700 -0.0216 -0.3105  0.3211
   58MOL   H31518669   0.147   3.769   0.557  1.8956  1.7842 -1.1938
   58MOL   H31618670   0.301   4.190   0.471  1.7555 -1.5327 -1.4659
   58MOL   H31718671   0.426   4.262   0.670 -0.7122 -0.6155 -0.1882
   58MOL   H31818672   0.435   4.111   0.871  0.7493 -1.1392 -0.3729
   58MOL   H31918673   0.300   3.913   0.884 -4.0443  0.6654  0.7444
   58MOL   H32018674   8.368   3.725   0.682 -1.7969  1.2675 -2.2750
   58MOL   H32118675   8.367   3.880   0.635  0.5054  0.9634  1.0923
   58MOL   H32218676   8.407   3.838   0.805  0.3984  0.1643  0.2953
   59MOL     C118677   5.948   0.529   5.911 -0.1348  0.9668 -0.2779
   59MOL     C218678   5.942   0.411   5.822  0.7598 -0.5388  0.3337
   59MOL     C318679   5.825   0.325   5.819  0.3431  0.0351  0.1737
   59MOL    Cl418680   5.685   0.363   5.908 -0.2648  0.4026  0.2938
   59MOL     C518681   5.825   0.213   5.734  0.2407 -0.0045  0.5982
   59MOL     C618682   5.944   0.187   5.657 -0.1146 -0.4244 -0.4870
   59MOL     C718683   6.065   0.267   5.665  0.3626  0.0559 -0.5076
   59MOL     C818684   6.064   0.385   5.746 -0.2472 -0.9093 -0.0214
   59MOL     C918685   5.960   0.659   5.824  0.1078 -0.1209  0.1432
   59MOL    H1018686   5.865   0.543   5.980 -0.4542 -1.3137 -0.1483
   59MOL    H1118687   5.748   0.138   5.737  1.1313 -0.8648  2.8098
   59MOL    H1218688   5.939   0.100   5.594 -2.2558 -1.2045  0.7016
   59MOL    H1318689   6.158   0.242   5.615 -0.6998 -2.6997 -1.1631
   59MOL    H1418690   6.154   0.443   5.756  0.2829 -1.6410 -0.5274
   59MOL    H1518691   5.856   0.689   5.806  0.1215  1.3885  2.3878
   59MOL    H1618692   6.009   0.639   5.729 -0.2739 -0.1194 -0.0539
   59MOL    H1718693   6.040   0.510   5.966 -2.0146 -0.1098  2.5984
   59MOL    C1818694   6.040   0.775   5.895 -0.1842 -0.6468  0.1846
   59MOL    C1918695   5.972   0.806   6.030 -0.6719  0.2555 -0.1578
   59MOL    C2018696   6.034   0.786   6.161 -0.7429  0.6813  0.2947
   59MOL   Cl2118697   6.198   0.731   6.174 -0.0256 -0.0307 -0.0900
   59MOL    C2218698   5.972   0.814   6.280 -0.8891  0.2707 -0.0519
   59MOL    C2318699   5.853   0.888   6.275  0.1972 -0.4653  0.3790
   59MOL    C2418700   5.790   0.917   6.154 -0.0566  0.7133  0.4118
   59MOL    C2518701   5.848   0.869   6.032 -0.1152 -0.2210 -0.3078
   59MOL    C2618702   6.066   0.899   5.812  0.0173  0.2066  0.3282
   59MOL    H2718703   6.134   0.729   5.925 -1.3134 -1.0124  3.2949
   59MOL    H2818704   6.020   0.795   6.375  3.9805  0.2172 -2.3634
   59MOL    H2918705   5.819   0.904   6.377 -0.5251  0.6719 -0.0388
   59MOL    H3018706   5.703   0.980   6.143 -0.3315  0.5385  1.5263
   59MOL    H3118707   5.800   0.891   5.938 -1.7027  0.3632  0.6144
   59MOL    H3218708   6.071   0.979   5.886  1.1932 -0.2924  0.8090
   59MOL    H3318709   5.965   0.913   5.775 -0.7422 -0.0250  2.2246
   59MOL    C3418710   6.181   0.896   5.709  0.4356  0.7709 -0.5082
   59MOL    C3518711   6.300   0.804   5.743  0.8876  0.4477  0.1108
   59MOL    C3618712   6.361   0.718   5.649 -0.5241 -0.7059 -0.8145
   59MOL   Cl3718713   6.310   0.715   5.484  0.1294 -0.4780 -0.0287
   59MOL    C3818714   6.464   0.627   5.692  0.6463 -0.1189 -0.1421
   59MOL    C3918715   6.509   0.638   5.823  1.1479  0.3647 -0.1004
   59MOL    C4018716   6.456   0.730   5.913  0.4933 -0.6571  0.2674
   59MOL    C4118717   6.357   0.820   5.869 -0.1536  0.0456 -0.2004
   59MOL    C4218718   6.239   1.046   5.692  0.5073 -0.0091  0.3589
   59MOL    H4318719   6.148   0.859   5.612  2.5313 -0.3046 -0.8267
   59MOL    H4418720   6.507   0.557   5.622 -0.5489  0.5360 -1.5600
   59MOL    H4518721   6.601   0.588   5.849  0.9293 -0.9465 -1.7650
   59MOL    H4618722   6.477   0.731   6.019 -0.5035  1.5621  0.4764
   59MOL    H4718723   6.324   0.904   5.929 -1.2633 -0.8576  0.4593
   59MOL    H4818724   6.347   1.046   5.678  0.3791  1.2012 -0.6608
   59MOL    H4918725   6.248   1.089   5.792 -0.3529  1.0673 -0.0247
   59MOL    C5018726   6.162   1.155   5.605  0.0301  0.1394 -0.0180
   59MOL    C5118727   6.182   1.129   5.453 -0.2922 -0.4133 -0.1604
   59MOL    C5218728   6.072   1.103   5.368  0.7167  0.3898  0.2848
   59MOL   Cl5318729   5.906   1.096   5.425  0.0004 -0.3908  0.1082
   59MOL    C5418730   6.095   1.084   5.230 -0.3025 -0.5137 -0.0898
   59MOL    C5518731   6.227   1.101   5.177  0.2358  0.2583 -0.1578
   59MOL    C5618732   6.338   1.134   5.263  0.2586  0.4197 -0.2272
   59MOL    C5718733   6.315   1.142   5.399 -0.1068  0.6834  0.6584
   59MOL    C5818734   6.217   1.289   5.642 -0.4842  0.1507  0.0023
   59MOL    H5918735   6.056   1.150   5.632 -0.4743 -0.4416 -1.9999
   59MOL    H6018736   6.013   1.045   5.171 -2.2639 -0.1785  2.3184
   59MOL    H6118737   6.249   1.079   5.073  0.0689  0.1333 -0.1656
   59MOL    H6218738   6.442   1.131   5.234 -0.2695 -1.6653 -2.0369
   59MOL    H6318739   6.400   1.152   5.466  0.9437  4.5815 -1.1116
   59MOL    H6418740   6.247   1.341   5.551  0.3072 -0.2722  0.0207
   59MOL    H6518741   6.313   1.270   5.689 -0.7612 -1.7698 -0.1834
   59MOL    C6618742   6.118   1.372   5.731  0.0188  0.0365 -1.5205
   59MOL    C6718743   6.004   1.428   5.643 -0.1939 -0.3160  0.4687
   59MOL    C6818744   5.873   1.376   5.644  0.4361  0.1257 -0.6313
   59MOL   Cl6918745   5.817   1.260   5.757 -0.0391 -0.0545  0.1115
   59MOL    C7018746   5.770   1.435   5.567  0.7317  0.0946  0.7939
   59MOL    C7118747   5.810   1.539   5.477 -0.1150  0.3118 -0.4793
   59MOL    C7218748   5.944   1.590   5.467 -0.6140 -0.3658 -1.1397
   59MOL    C7318749   6.038   1.537   5.554 -0.1477  0.3248  0.3541
   59MOL    C7418750   6.190   1.487   5.813  0.4886 -0.5619  0.2031
   59MOL    H7518751   6.076   1.310   5.810 -1.4802  1.1351 -1.4152
   59MOL    H7618752   5.669   1.402   5.584  0.2785  1.6817  1.3036
   59MOL    H7718753   5.733   1.580   5.414 -1.4928 -3.3276 -1.3072
   59MOL    H7818754   5.980   1.672   5.406 -1.3002 -0.6012 -1.8741
   59MOL    H7918755   6.142   1.562   5.540 -0.1528  0.0751 -0.1259
   59MOL    H8018756   6.123   1.569   5.841 -0.0770 -1.2553  0.9095
   59MOL    H8118757   6.249   1.538   5.737 -1.8215  0.9186 -0.6593
   59MOL    C8218758   6.297   1.443   5.916  0.6583 -0.4792 -0.5171
   59MOL    C8318759   6.229   1.354   6.024  0.0568 -0.1069  0.2454
   59MOL    C8418760   6.276   1.221   6.053 -0.2338  0.4879  0.3228
   59MOL   Cl8518761   6.425   1.158   5.984  0.1066 -0.0557 -0.3736
   59MOL    C8618762   6.205   1.143   6.140  0.0245 -0.8955 -0.1768
   59MOL    C8718763   6.079   1.186   6.202  0.0122  0.3608  0.4845
   59MOL    C8818764   6.031   1.314   6.174  0.1463  0.0248 -0.1113
   59MOL    C8918765   6.111   1.398   6.089  0.3067 -0.3162 -0.2421
   59MOL    C9018766   6.380   1.558   5.979 -0.3373  0.6879  0.0951
   59MOL    H9118767   6.380   1.386   5.875  2.6300 -0.2494  2.9736
   59MOL    H9218768   6.235   1.042   6.163  1.4034 -0.1895  1.1793
   59MOL    H9318769   6.019   1.115   6.256  1.3046 -0.6089  0.6806
   59MOL    H9418770   5.937   1.357   6.206 -0.7891 -2.3992  0.4635
   59MOL    H9518771   6.066   1.493   6.063 -0.9280 -0.8341 -0.0106
   59MOL    H9618772   6.431   1.525   6.070 -2.0444  0.5100  1.0143
   59MOL    H9718773   6.312   1.638   6.011 -1.6775  0.1284 -1.3038
   59MOL    C9818774   6.481   1.617   5.873 -0.6058  0.5152  0.4083
   59MOL    C9918775   6.589   1.511   5.838  0.3235 -0.1276 -0.1255
   59MOL   C10018776   6.619   1.474   5.706 -0.4966  0.4620  0.6121
   59MOL  Cl10118777   6.539   1.551   5.569  0.0098  0.1884 -0.1386
   59MOL   C10218778   6.703   1.367   5.686 -0.1182  0.4462 -0.1268
   59MOL   C10318779   6.753   1.301   5.795  0.0044  0.1407 -0.6704
   59MOL   C10418780   6.742   1.350   5.925  0.2922 -0.3729 -0.4510
   59MOL   C10518781   6.648   1.448   5.949  0.2131  0.3175  0.7197
   59MOL   C10618782   6.545   1.751   5.922 -0.0429 -0.3631 -0.0063
   59MOL   H10718783   6.428   1.651   5.785 -2.0124 -0.6190  0.8020
   59MOL   H10818784   6.737   1.336   5.588  1.0516 -3.5551  1.4401
   59MOL   H10918785   6.828   1.225   5.787 -1.4732 -1.4381  0.0836
   59MOL   H11018786   6.787   1.301   6.009 -0.0943 -3.5036 -1.9816
   59MOL   H11118787   6.635   1.481   6.051 -2.5802 -0.4757  0.6557
   59MOL   H11218788   6.575   1.737   6.026  0.7667  1.5282  0.0304
   59MOL   H11318789   6.463   1.824   5.921  1.4634  1.3774  1.3277
   59MOL   C11418790   6.661   1.811   5.832 -0.7061 -0.3653 -0.5759
   59MOL   C11518791   6.800   1.765   5.871 -0.8052  0.6421 -0.2930
   59MOL   C11618792   6.887   1.707   5.775 -0.2559  0.6087  0.3395
   59MOL  Cl11718793   6.851   1.702   5.610 -0.0748 -0.3531 -0.2932
   59MOL   C11818794   7.011   1.658   5.811 -0.1859  0.1860  0.7385
   59MOL   C11918795   7.048   1.669   5.945  0.1863 -0.2308 -0.9010
   59MOL   C12018796   6.973   1.740   6.040 -0.4328  0.4043 -0.3557
   59MOL   C12118797   6.850   1.789   6.003 -0.4418 -0.0464 -0.5087
   59MOL   C12218798   6.657   1.965   5.823 -0.3097 -0.1301  0.7163
   59MOL   H12318799   6.645   1.771   5.732 -2.3712 -1.1926  0.0013
   59MOL   H12418800   7.083   1.617   5.742 -0.3627 -0.2383  0.8053
   59MOL   H12518801   7.148   1.641   5.975 -0.4821  1.2611  3.0090
   59MOL   H12618802   7.007   1.768   6.138  0.0473 -0.0683 -0.3877
   59MOL   H12718803   6.797   1.837   6.084 -1.4549 -3.7815  1.1251
   59MOL   H12818804   6.735   2.015   5.880  0.0860  0.8940 -0.6807
   59MOL   H12918805   6.565   2.002   5.868  0.6950  0.9239  1.9526
   59MOL   C13018806   6.660   2.007   5.674  0.6508 -0.5148 -0.6425
   59MOL   C13118807   6.696   2.153   5.651  0.0112  0.2297  0.0618
   59MOL   C13218808   6.754   2.181   5.525 -0.2661  0.0099  0.1541
   59MOL  Cl13318809   6.780   2.068   5.406  0.4805 -0.0714  0.2439
   59MOL   C13418810   6.787   2.317   5.499 -1.0423 -0.4326  0.9901
   59MOL   C13518811   6.781   2.416   5.588  0.2968 -0.0220 -0.0762
   59MOL   C13618812   6.736   2.382   5.718  0.0873  0.1556 -0.0004
   59MOL   C13718813   6.697   2.248   5.752 -0.2398 -0.0324 -0.4782
   59MOL   C13818814   6.523   1.968   5.595  0.1861 -0.6368 -0.3490
   59MOL   H13918815   6.747   1.956   5.633 -0.4982 -1.9641 -1.3364
   59MOL   H14018816   6.831   2.347   5.405 -1.5619  1.0979  1.2172
   59MOL   H14118817   6.810   2.514   5.552  2.0492 -1.6858 -3.3467
   59MOL   H14218818   6.730   2.461   5.790  2.2393  0.2970  0.0709
   59MOL   H14318819   6.661   2.229   5.852  0.1964 -1.8028 -0.6345
   59MOL   H14418820   6.479   1.869   5.607  2.6309 -1.7339 -0.2373
   59MOL   H14518821   6.551   1.974   5.490 -1.5886  2.4919 -0.7219
   59MOL   C14618822   6.399   2.074   5.598 -0.4327  0.0065  0.6569
   59MOL   C14718823   6.328   2.063   5.737 -0.3230 -0.0043 -0.4848
   59MOL   C14818824   6.244   1.959   5.772  0.7650  0.2828 -0.0196
   59MOL  Cl14918825   6.218   1.816   5.672 -0.0080  0.4872  0.0050
   59MOL   C15018826   6.191   1.960   5.903 -0.0615 -0.0098 -0.1158
   59MOL   C15118827   6.207   2.075   5.989 -0.5540 -0.5114  0.1656
   59MOL   C15218828   6.299   2.180   5.955 -0.8213  0.1019  0.6266
   59MOL   C15318829   6.363   2.171   5.829 -0.4404  0.6880 -0.5313
   59MOL   C15418830   6.308   2.078   5.471 -0.2939  0.0309 -0.6387
   59MOL   H15518831   6.434   2.177   5.588  0.2134 -0.3375 -0.8072
   59MOL   H15618832   6.115   1.888   5.930 -0.2889  0.1444 -0.3402
   59MOL   H15718833   6.146   2.083   6.078  0.4750 -1.5425  0.9758
   59MOL   H15818834   6.325   2.254   6.029  1.8638 -0.1883 -0.0058
   59MOL   H15918835   6.419   2.260   5.804  0.5120  0.0727 -0.6266
   59MOL   H16018836   6.236   1.997   5.464  0.6221 -0.9255  0.7774
   59MOL   H16118837   6.378   2.079   5.387 -0.0631  1.0201 -0.4476
   59MOL   C16218838   6.228   2.208   5.442 -0.5893 -0.7213 -0.4693
   59MOL   C16318839   6.128   2.242   5.555 -0.8016 -0.7995 -0.1214
   59MOL   C16418840   6.154   2.352   5.637 -0.3254  0.0211 -0.3942
   59MOL  Cl16518841   6.275   2.474   5.601  0.3139 -0.3904  0.2485
   59MOL   C16618842   6.080   2.370   5.754 -0.0762  0.1611  0.4669
   59MOL   C16718843   5.976   2.286   5.794  0.1935 -0.1182  0.1766
   59MOL   C16818844   5.951   2.180   5.703  0.2276  0.0331 -0.6067
   59MOL   C16918845   6.020   2.159   5.586 -0.4389 -0.1220  0.5093
   59MOL   C17018846   6.159   2.212   5.310  0.4693  0.0362  0.3768
   59MOL   H17118847   6.294   2.294   5.432 -1.7281  0.1216 -0.8134
   59MOL   H17218848   6.093   2.460   5.812  0.4850  0.1336  0.3901
   59MOL   H17318849   5.904   2.300   5.873 -1.3783  0.8897 -1.3934
   59MOL   H17418850   5.867   2.113   5.713 -0.0858  0.3971 -0.7917
   59MOL   H17518851   5.996   2.074   5.524  1.0786 -2.8000  3.4421
   59MOL   H17618852   6.085   2.291   5.320 -0.6734 -1.1624  1.6506
   59MOL   H17718853   6.097   2.123   5.298  1.2589 -0.8862  2.8335
   59MOL   C17818854   6.238   2.244   5.183  0.6963 -0.1006  0.4171
   59MOL   C17918855   6.264   2.390   5.168 -0.4356  0.1483 -0.2148
   59MOL   C18018856   6.400   2.438   5.183  0.8037 -0.0286  0.7435
   59MOL  Cl18118857   6.533   2.340   5.235  0.0038  0.2826 -0.2711
   59MOL   C18218858   6.421   2.577   5.170  0.3151  0.0257  0.3441
   59MOL   C18318859   6.313   2.660   5.125 -0.8711  0.2493 -0.3113
   59MOL   C18418860   6.184   2.619   5.111  0.3885 -0.4419  0.3172
   59MOL   C18518861   6.162   2.481   5.125 -0.8282 -0.3379  0.3654
   59MOL   C18618862   6.167   2.189   5.066  0.5988  0.0119  0.0259
   59MOL   H18718863   6.334   2.192   5.185  0.9693  0.3441 -0.7886
   59MOL   H18818864   6.518   2.616   5.197 -0.1704  2.1369 -0.8001
   59MOL   H18918865   6.342   2.763   5.116  2.8597 -0.7197 -0.0830
   59MOL   H19018866   6.099   2.674   5.073 -0.4257 -1.7317  0.2228
   59MOL   H19118867   6.060   2.450   5.106 -1.0381  0.5311  0.0693
   59MOL   H19218868   6.163   2.268   4.991 -3.1172 -0.1268 -0.0150
   59MOL   H19318869   6.063   2.174   5.096  0.2071 -0.2570 -1.4574
   59MOL   C19418870   6.224   2.060   5.001  0.6569 -0.0921 -0.0730
   59MOL   C19518871   6.140   2.048   4.866 -0.4538 -0.4377  0.0230
   59MOL   C19618872   6.187   2.108   4.743 -0.5429  0.8441 -0.1025
   59MOL  Cl19718873   6.328   2.205   4.730  0.2781 -0.2711 -0.1435
   59MOL   C19818874   6.124   2.087   4.622  0.8302  0.5645  0.4160
   59MOL   C19918875   6.008   2.010   4.612 -0.4695  0.2326  1.1758
   59MOL   C20018876   5.960   1.951   4.728 -0.0702 -0.0511  0.0608
   59MOL   C20118877   6.024   1.968   4.851  0.1111  0.5451  0.4381
   59MOL   C20218878   6.234   1.932   5.095 -0.3415 -0.2793 -0.6321
   59MOL   H20318879   6.327   2.089   4.978 -0.2677  1.0722 -2.8650
   59MOL   H20418880   6.165   2.126   4.531  1.7373 -1.5896 -0.1194
   59MOL   H20518881   5.954   1.975   4.525  1.7908 -4.2022  1.4300
   59MOL   H20618882   5.870   1.891   4.720 -0.8385  1.1694 -0.5949
   59MOL   H20718883   5.985   1.919   4.939  2.3306 -0.6550  0.7762
   59MOL   H20818884   6.133   1.896   5.116 -0.5609 -0.0272 -1.2462
   59MOL   H20918885   6.283   1.948   5.191  0.5664  0.8606 -1.2664
   59MOL   C21018886   6.318   1.813   5.045 -0.8705 -0.3524 -0.5551
   59MOL   C21118887   6.241   1.678   5.048  0.3108  0.2270  0.2208
   59MOL   C21218888   6.204   1.608   5.164  0.1204  0.2062 -0.3310
   59MOL  Cl21318889   6.252   1.676   5.321  0.1169  0.1394  0.2204
   59MOL   C21418890   6.137   1.482   5.161 -0.4048  1.1665 -0.5649
   59MOL   C21518891   6.107   1.419   5.035 -0.0792  0.9810  0.6557
   59MOL   C21618892   6.135   1.490   4.920  0.4052 -0.0572 -0.1618
   59MOL   C21718893   6.199   1.616   4.926 -0.5063 -0.1437  0.1679
   59MOL   C21818894   6.466   1.820   5.091 -0.1426 -0.1453 -0.7608
   59MOL   H21918895   6.326   1.826   4.937  0.4229  0.4657 -0.3768
   59MOL   H22018896   6.125   1.429   5.254 -0.9553 -1.3832 -2.0218
   59MOL   H22118897   6.057   1.323   5.034  0.0765  0.8876  1.4595
   59MOL   H22218898   6.104   1.448   4.826 -2.5635  2.4608 -0.3805
   59MOL   H22318899   6.220   1.668   4.833 -0.8818  3.0114  1.7965
   59MOL   H22418900   6.471   1.837   5.199  1.2555 -0.6670 -0.7398
   59MOL   H22518901   6.505   1.910   5.044  0.8986 -0.8645 -1.2903
   59MOL   C22618902   6.560   1.699   5.063 -0.8125  0.1655 -0.4090
   59MOL   C22718903   6.690   1.698   5.137 -0.0707 -0.6377 -1.1472
   59MOL   C22818904   6.728   1.589   5.214 -0.0811 -0.7328  0.1485
   59MOL  Cl22918905   6.631   1.449   5.239 -0.0250  0.1023 -0.1361
   59MOL   C23018906   6.854   1.599   5.283  0.1995 -0.0907 -0.6028
   59MOL   C23118907   6.936   1.707   5.276 -0.1855 -0.6118  0.7405
   59MOL   C23218908   6.888   1.819   5.204 -0.3785 -0.1390 -0.2404
   59MOL   C23318909   6.769   1.817   5.128  0.1716  0.4584 -0.6428
   59MOL   C23418910   6.571   1.668   4.915 -0.3374 -0.2769  0.3515
   59MOL   H23518911   6.509   1.611   5.101 -0.6553  0.4303  0.4246
   59MOL   H23618912   6.879   1.513   5.343 -1.7532 -0.4932 -0.3445
   59MOL   H23718913   7.027   1.706   5.334 -2.5495  0.7208  4.6199
   59MOL   H23818914   6.958   1.901   5.195  0.4080 -0.7571  0.2395
   59MOL   H23918915   6.739   1.895   5.059  0.2644  1.3982  0.3639
   59MOL   H24018916   6.629   1.750   4.872 -1.0620 -0.3949 -0.8960
   59MOL   H24118917   6.473   1.672   4.866 -0.8494 -0.0866  1.3727
   59MOL   C24218918   6.621   1.526   4.875  0.6944 -0.3944  0.7444
   59MOL   C24318919   6.700   1.527   4.741  0.1711 -0.1575 -0.0866
   59MOL   C24418920   6.839   1.549   4.735 -0.2793 -0.0922 -0.8052
   59MOL  Cl24518921   6.940   1.569   4.877 -0.0294  0.3189  0.2586
   59MOL   C24618922   6.906   1.560   4.611  0.0558 -0.7924  0.4023
   59MOL   C24718923   6.835   1.554   4.493  0.1942 -1.1662  0.5017
   59MOL   C24818924   6.692   1.538   4.496 -0.8526 -0.6404  0.7859
   59MOL   C24918925   6.624   1.535   4.619 -0.3546  0.8142 -0.7378
   59MOL   C25018926   6.498   1.424   4.874 -0.7409  0.2210  0.4691
   59MOL   H25118927   6.687   1.491   4.954 -0.0049  0.3199  1.6633
   59MOL   H25218928   7.013   1.572   4.606  0.0269 -0.1563  1.2173
   59MOL   H25318929   6.891   1.572   4.403  2.9904 -1.1647  2.1776
   59MOL   H25418930   6.634   1.550   4.405  1.5416  1.3166 -0.5497
   59MOL   H25518931   6.517   1.527   4.623 -0.2453 -0.2719  0.4967
   59MOL   H25618932   6.423   1.470   4.810  0.0345  1.5273  0.4656
   59MOL   H25718933   6.444   1.426   4.969  1.8485 -3.2113  2.1313
   59MOL   C25818934   6.541   1.285   4.829 -0.3420 -0.7129 -0.6810
   59MOL   C25918935   6.428   1.235   4.739 -0.7338  0.1424 -0.0749
   59MOL   C26018936   6.447   1.204   4.601  0.0273 -0.3519  0.0641
   59MOL  Cl26118937   6.601   1.213   4.520  0.0816 -0.1036 -0.5637
   59MOL   C26218938   6.334   1.152   4.525 -0.4195  0.0306  0.7259
   59MOL   C26318939   6.205   1.141   4.588 -0.2603 -0.4542 -0.8507
   59MOL   C26418940   6.189   1.178   4.723  0.1058 -0.1184  0.3202
   59MOL   C26518941   6.301   1.219   4.798  0.7527  0.1369 -0.1570
   59MOL   C26618942   6.560   1.202   4.963 -0.4770  0.0718 -0.0902
   59MOL   H26718943   6.636   1.292   4.776  0.2924  0.2723  0.5574
   59MOL   H26818944   6.356   1.130   4.422  0.8149 -0.8756  1.1736
   59MOL   H26918945   6.118   1.103   4.535  0.4959  0.3069 -2.6975
   59MOL   H27018946   6.103   1.168   4.788  0.4364  0.8633  0.9191
   59MOL   H27118947   6.289   1.238   4.903 -0.5306 -1.1411 -0.0546
   59MOL   H27218948   6.501   1.111   4.955 -1.6916  0.9551 -1.3253
   59MOL   H27318949   6.521   1.254   5.050 -0.1705 -1.5007  1.0056
   59MOL   C27418950   6.714   1.172   4.987  0.3550 -0.2317 -0.3996
   59MOL   C27518951   6.752   1.058   4.889  0.1685 -0.1326  0.0151
   59MOL   C27618952   6.847   1.070   4.786 -0.7434 -0.1004  0.3839
   59MOL  Cl27718953   6.934   1.214   4.745 -0.0910 -0.3383  0.1637
   59MOL   C27818954   6.878   0.961   4.701  0.4076 -0.4800  0.1689
   59MOL   C27918955   6.806   0.842   4.704  0.4047 -0.2317 -0.0277
   59MOL   C28018956   6.718   0.829   4.814 -0.6675  0.5490 -0.4421
   59MOL   C28118957   6.690   0.934   4.899  0.0063 -0.0461 -0.8069
   59MOL   C28218958   6.748   1.121   5.132 -0.5730 -0.4623 -0.9639
   59MOL   H28318959   6.770   1.265   4.976  0.7123  0.1745  3.8215
   59MOL   H28418960   6.955   0.971   4.626  0.0172 -0.6470 -0.2616
   59MOL   H28518961   6.823   0.755   4.641  1.6842 -0.1653  0.1994
   59MOL   H28618962   6.657   0.742   4.832 -1.0004  0.8219 -0.2401
   59MOL   H28718963   6.615   0.902   4.971  2.0769 -3.0579  0.0962
   59MOL   H28818964   6.712   1.021   5.155 -2.8440  0.2094 -1.4917
   59MOL   H28918965   6.697   1.185   5.205 -0.7934 -2.3522  0.5814
   59MOL   C29018966   6.899   1.128   5.169  0.7319  0.3367  0.0365
   59MOL   C29118967   6.931   1.050   5.299  0.1130 -0.0516  0.6234
   59MOL   C29218968   7.024   0.947   5.299 -0.5706 -0.5943  0.0587
   59MOL  Cl29318969   7.099   0.884   5.153 -0.7222 -0.1944  0.1060
   59MOL   C29418970   7.050   0.880   5.422 -0.1399 -0.7347  0.5724
   59MOL   C29518971   6.983   0.916   5.547 -0.7875  0.1502 -0.2021
   59MOL   C29618972   6.892   1.021   5.545  0.8609 -0.3883 -0.7995
   59MOL   C29718973   6.866   1.083   5.422 -0.3338 -0.5015 -0.5384
   59MOL   C29818974   6.965   1.267   5.161 -0.2923  0.0109  0.1364
   59MOL   H29918975   6.937   1.076   5.081  0.5612 -1.1397  0.8219
   59MOL   H30018976   7.124   0.801   5.414 -0.2880 -1.0303  1.9480
   59MOL   H30118977   7.017   0.881   5.643 -1.4606 -0.4123 -0.1650
   59MOL   H30218978   6.842   1.062   5.632  0.6993 -0.7049 -0.7439
   59MOL   H30318979   6.800   1.168   5.416  0.3187 -0.0522 -1.6340
   59MOL   H30418980   6.923   1.322   5.246 -0.8504 -3.0459  1.8886
   59MOL   H30518981   6.936   1.314   5.067  1.5363 -0.1675 -0.5324
   59MOL   C30618982   7.121   1.271   5.167  0.2629 -0.2915 -0.8669
   59MOL   C30718983   7.185   1.396   5.235 -0.5720 -0.3518 -0.2151
   59MOL   C30818984   7.207   1.404   5.370 -0.3194 -0.4109 -0.8686
   59MOL  Cl30918985   7.157   1.276   5.476 -0.0268  0.3761  0.1753
   59MOL   C31018986   7.254   1.526   5.433  0.4596  0.2461  0.3041
   59MOL   C31118987   7.290   1.641   5.350 -0.8190  1.2444 -0.2891
   59MOL   C31218988   7.267   1.631   5.217 -0.5687  0.1949  0.6374
   59MOL   C31318989   7.208   1.515   5.162  0.7735  0.1626  0.0269
   59MOL   C31418990   7.178   1.234   5.037 -0.7954  0.9436  0.3544
   59MOL   H31518991   7.148   1.194   5.240  1.3400  0.7216 -0.1871
   59MOL   H31618992   7.277   1.535   5.538 -0.0413 -0.2775  0.4628
   59MOL   H31718993   7.328   1.732   5.395  0.3151 -0.0542  1.4552
   59MOL   H31818994   7.277   1.718   5.153  0.0178 -0.3259  0.0050
   59MOL   H31918995   7.179   1.517   5.058 -0.7842  0.9849  0.4556
   59MOL   H32018996   7.161   1.132   5.005 -0.7162  0.8327  0.6645
   59MOL   H32118997   7.287   1.233   5.040 -0.7391 -1.2226 -1.1988
   59MOL   H32218998   7.149   1.308   4.962 -1.7079  0.3980  0.1668
   60MOL     C118999   1.012   5.824   5.135  0.2376 -0.3824  0.6237
   60MOL     C219000   1.055   5.718   5.238  0.7285 -0.1627  0.4675
   60MOL     C319001   0.963   5.627   5.302  0.2926  0.0064  0.0857
   60MOL    Cl419002   0.787   5.632   5.287  0.2730  0.0368  0.0593
   60MOL     C519003   1.010   5.524   5.382  0.0269 -0.2816  0.1584
   60MOL     C619004   1.146   5.499   5.400 -0.1074  0.4795  0.0004
   60MOL     C719005   1.240   5.590   5.344  0.1484 -0.0994 -0.4379
   60MOL     C819006   1.191   5.692   5.257 -0.1942 -0.3981 -0.2096
   60MOL     C919007   1.047   5.773   4.999  0.0000  0.6361  0.9765
   60MOL    H1019008   0.908   5.858   5.141 -0.1440 -1.5792  1.0637
   60MOL    H1119009   0.940   5.456   5.428 -0.6701 -0.9561 -1.8552
   60MOL    H1219010   1.184   5.415   5.456  1.1824 -0.2826 -1.9491
   60MOL    H1319011   1.347   5.577   5.349  0.0866 -0.4489  0.1154
   60MOL    H1419012   1.265   5.754   5.210 -0.1610  0.3594  0.8132
   60MOL    H1519013   0.991   5.680   4.989 -1.2346  1.3231  1.3804
   60MOL    H1619014   1.155   5.764   5.004 -0.1447 -2.6331 -0.9078
   60MOL    H1719015   1.072   5.913   5.150 -1.9496  1.5835 -1.7898
   60MOL    C1819016   1.002   5.865   4.878 -0.4101 -0.6832 -0.3334
   60MOL    C1919017   0.859   5.923   4.892  0.2706 -0.1609 -0.4553
   60MOL    C2019018   0.834   6.058   4.913  0.3764 -0.1472 -0.4120
   60MOL   Cl2119019   0.962   6.171   4.936 -0.0824 -0.2441  0.2902
   60MOL    C2219020   0.701   6.108   4.915 -0.1994  0.3633 -0.6453
   60MOL    C2319021   0.589   6.021   4.895  0.0282 -0.6320  0.1849
   60MOL    C2419022   0.615   5.886   4.883  0.2724 -0.2100  0.2836
   60MOL    C2519023   0.743   5.839   4.881 -0.5742  0.3397  0.7102
   60MOL    C2619024   1.027   5.792   4.746  0.1970 -0.4412  0.1384
   60MOL    H2719025   1.073   5.947   4.886  0.2864 -1.3907  0.9096
   60MOL    H2819026   0.675   6.212   4.917 -0.6814  0.2447 -0.7903
   60MOL    H2919027   0.493   6.068   4.912  1.1772  1.9526 -0.1553
   60MOL    H3019028   0.533   5.816   4.872  0.6157 -0.3738 -1.3714
   60MOL    H3119029   0.764   5.733   4.874  3.2918  0.9863  1.1128
   60MOL    H3219030   0.970   5.698   4.744  0.3440 -0.4998 -3.6826
   60MOL    H3319031   1.128   5.753   4.732  0.0441 -1.0038  0.5653
   60MOL    C3419032   0.983   5.866   4.612 -0.2631 -0.0997 -0.3422
   60MOL    C3519033   0.914   5.768   4.524 -0.0961 -0.0459  0.3901
   60MOL    C3619034   0.776   5.782   4.490  0.1314  0.5139  0.2064
   60MOL   Cl3719035   0.673   5.908   4.554  0.2126 -0.1618  0.3556
   60MOL    C3819036   0.703   5.687   4.412  0.4240 -0.1836 -0.3658
   60MOL    C3919037   0.774   5.576   4.362  0.0367  0.5192  0.6668
   60MOL    C4019038   0.913   5.559   4.388 -0.8410  0.1224 -0.3490
   60MOL    C4119039   0.983   5.658   4.465 -0.2644 -0.1176  0.3036
   60MOL    C4219040   1.098   5.949   4.551  0.3809  0.3562  0.3161
   60MOL    H4319041   0.905   5.940   4.631 -1.2688 -0.8805 -1.3606
   60MOL    H4419042   0.598   5.683   4.390  0.2771 -2.2267  0.6070
   60MOL    H4519043   0.720   5.503   4.303 -0.6221 -1.1295  3.2191
   60MOL    H4619044   0.962   5.472   4.349 -1.2129  0.6323 -1.9883
   60MOL    H4719045   1.090   5.648   4.470 -0.2401  0.0914  0.1773
   60MOL    H4819046   1.080   5.929   4.446 -2.1935 -1.9258  1.1282
   60MOL    H4919047   1.193   5.901   4.576  0.7050  1.3126  0.9551
   60MOL    C5019048   1.113   6.105   4.584 -0.0784  0.0032  0.2310
   60MOL    C5119049   1.007   6.197   4.517  0.4084 -0.6811 -0.4626
   60MOL    C5219050   0.973   6.326   4.563  0.2254  0.6214  0.1427
   60MOL   Cl5319051   1.065   6.395   4.690 -0.2516 -0.0086  0.0770
   60MOL    C5419052   0.874   6.406   4.508  0.1909  1.1648  0.0945
   60MOL    C5519053   0.805   6.360   4.392 -0.0668 -0.2460 -0.3546
   60MOL    C5619054   0.829   6.232   4.345 -0.7878 -0.3823  1.0623
   60MOL    C5719055   0.935   6.150   4.404 -0.3578  0.0870 -0.3447
   60MOL    C5819056   1.257   6.155   4.548 -0.2469  0.6715  0.0467
   60MOL    H5919057   1.099   6.109   4.692  1.0182 -0.3747  0.3966
   60MOL    H6019058   0.854   6.500   4.556  0.1575  1.3798 -0.3455
   60MOL    H6119059   0.738   6.417   4.330 -1.1471  0.2917  1.2802
   60MOL    H6219060   0.767   6.190   4.267  2.5467 -0.1091 -1.8573
   60MOL    H6319061   0.950   6.055   4.355  2.6839 -1.4541  3.3898
   60MOL    H6419062   1.266   6.263   4.566  1.5735  0.8353 -1.5902
   60MOL    H6519063   1.264   6.145   4.440 -2.0327 -0.5464  0.0415
   60MOL    C6619064   1.384   6.088   4.616 -0.0003  0.4402  0.5139
   60MOL    C6719065   1.370   6.107   4.768 -0.4960 -0.2035  0.2826
   60MOL    C6819066   1.356   6.000   4.855  0.3537  0.2464 -0.8009
   60MOL   Cl6919067   1.366   5.834   4.803 -0.1049 -0.4413  0.0612
   60MOL    C7019068   1.333   6.027   4.993  0.4870 -0.3332  0.1019
   60MOL    C7119069   1.332   6.165   5.043  0.1600  0.7922 -0.3946
   60MOL    C7219070   1.354   6.269   4.954  0.2522 -0.7764 -0.4005
   60MOL    C7319071   1.378   6.239   4.816  0.1365 -0.2116  0.2578
   60MOL    C7419072   1.513   6.137   4.561 -0.6343 -0.5611  0.1734
   60MOL    H7519073   1.382   5.982   4.590 -0.3068  1.0821 -2.2092
   60MOL    H7619074   1.323   5.941   5.057 -3.2886  0.0695  0.1748
   60MOL    H7719075   1.318   6.184   5.148  2.1794  0.4370 -0.0297
   60MOL    H7819076   1.356   6.370   4.992  1.6608 -1.6477  1.9967
   60MOL    H7919077   1.401   6.324   4.754 -1.5828  0.9100  1.1125
   60MOL    H8019078   1.581   6.104   4.640 -0.2561 -3.1116 -1.1740
   60MOL    H8119079   1.500   6.245   4.549 -0.6150 -0.8066 -2.3297
   60MOL    C8219080   1.553   6.077   4.421  0.0043  0.3509 -0.0394
   60MOL    C8319081   1.608   5.939   4.421 -0.0775 -0.2628 -0.3914
   60MOL    C8419082   1.532   5.828   4.371  0.3691 -0.6051  0.2207
   60MOL   Cl8519083   1.370   5.862   4.319  0.3486 -0.0833  0.1871
   60MOL    C8619084   1.583   5.697   4.367 -0.0794 -0.0753  0.3604
   60MOL    C8719085   1.716   5.675   4.416  0.6344 -0.3769  0.5818
   60MOL    C8819086   1.791   5.782   4.467  0.1941  0.5703 -0.6332
   60MOL    C8919087   1.737   5.908   4.474  1.2045  0.1098  0.2733
   60MOL    C9019088   1.649   6.183   4.356  0.6923  0.0819  0.2101
   60MOL    H9119089   1.460   6.079   4.364  0.6445  0.9632 -1.0817
   60MOL    H9219090   1.522   5.613   4.338  2.1464 -1.0484 -1.6325
   60MOL    H9319091   1.750   5.573   4.414  1.9311  0.0700 -0.7556
   60MOL    H9419092   1.894   5.761   4.490  0.6713  2.0690 -1.3454
   60MOL    H9519093   1.794   5.996   4.501  1.6802 -0.0340 -0.2454
   60MOL    H9619094   1.727   6.208   4.427  0.2669  0.5533  0.5108
   60MOL    H9719095   1.587   6.273   4.354  0.8956  0.2189 -1.9367
   60MOL    C9819096   1.679   6.143   4.207  0.3481 -0.7771  0.0568
   60MOL    C9919097   1.787   6.038   4.190 -0.1917  0.0758  0.4835
   60MOL   C10019098   1.772   5.914   4.113 -0.1468 -0.6244 -0.1540
   60MOL  Cl10119099   1.621   5.870   4.049  0.1126  0.2189 -0.2099
   60MOL   C10219100   1.873   5.817   4.110 -0.0029 -0.0560 -0.1890
   60MOL   C10319101   1.999   5.855   4.159  0.0449  0.2178 -0.1020
   60MOL   C10419102   2.020   5.972   4.234 -0.1745 -0.2232 -0.0608
   60MOL   C10519103   1.911   6.060   4.253  0.1054 -0.6972  0.3677
   60MOL   C10619104   1.705   6.272   4.122 -0.1327  0.6695 -0.2397
   60MOL   H10719105   1.588   6.097   4.167 -0.9552  1.3865  0.4206
   60MOL   H10819106   1.858   5.725   4.056 -0.7520 -1.0337  1.6288
   60MOL   H10919107   2.083   5.787   4.158  0.3348  0.5441  0.9385
   60MOL   H11019108   2.118   6.000   4.270  0.2459 -2.1382  0.3690
   60MOL   H11119109   1.933   6.154   4.301  2.6109 -0.8779 -0.3859
   60MOL   H11219110   1.722   6.230   4.023  0.2033  2.1566 -0.8343
   60MOL   H11319111   1.797   6.306   4.170  0.3263 -1.1545  0.2062
   60MOL   C11419112   1.598   6.387   4.116  0.2026  0.4829 -0.1017
   60MOL   C11519113   1.462   6.330   4.096 -0.0732  0.0977 -0.2122
   60MOL   C11619114   1.350   6.356   4.178  0.0593 -0.5883  0.6896
   60MOL  Cl11719115   1.350   6.480   4.302  0.1203 -0.0327  0.3686
   60MOL   C11819116   1.229   6.303   4.144  0.6857 -0.2937 -0.1287
   60MOL   C11919117   1.213   6.217   4.036 -0.7227  0.4010 -0.7464
   60MOL   C12019118   1.323   6.190   3.949 -0.0558  0.2726 -0.4119
   60MOL   C12119119   1.441   6.245   3.982  0.0893 -0.4602  0.7685
   60MOL   C12219120   1.640   6.501   4.019  0.5035 -0.6637 -0.8837
   60MOL   H12319121   1.598   6.433   4.215  0.9383  1.4573 -0.5412
   60MOL   H12419122   1.142   6.330   4.202  0.6656 -0.4252 -0.0973
   60MOL   H12519123   1.118   6.168   4.021 -0.2667 -0.1761 -1.8692
   60MOL   H12619124   1.308   6.123   3.866  0.0414  0.5994 -0.6902
   60MOL   H12719125   1.522   6.214   3.917 -0.5269  1.2562 -0.8775
   60MOL   H12819126   1.558   6.572   4.010  0.2620 -0.7674  0.4389
   60MOL   H12919127   1.649   6.454   3.921 -1.5376 -2.0524 -0.4302
   60MOL   C13019128   1.769   6.575   4.057 -0.0591  0.1307  0.2919
   60MOL   C13119129   1.771   6.639   4.200  0.8780  0.2630 -0.2069
   60MOL   C13219130   1.877   6.628   4.287 -0.1386  0.0988 -0.4783
   60MOL  Cl13319131   2.024   6.554   4.230 -0.0587  0.2501 -0.2211
   60MOL   C13419132   1.873   6.688   4.413 -0.0167  0.2781  0.3511
   60MOL   C13519133   1.765   6.770   4.451 -0.2684 -0.7189  0.0800
   60MOL   C13619134   1.657   6.783   4.365  0.3897 -0.4564 -0.7543
   60MOL   C13719135   1.658   6.715   4.246 -0.1309 -0.1647 -0.1101
   60MOL   C13819136   1.804   6.687   3.955  0.0049 -0.5172  0.3265
   60MOL   H13919137   1.852   6.503   4.061 -1.0617 -0.9766  1.7655
   60MOL   H14019138   1.968   6.686   4.465  1.0261 -0.7608 -1.5593
   60MOL   H14119139   1.776   6.837   4.534 -0.1859  1.6198 -1.7585
   60MOL   H14219140   1.581   6.856   4.388 -0.1819 -0.5000 -2.3844
   60MOL   H14319141   1.572   6.720   4.181 -1.5818  0.3162  1.8005
   60MOL   H14419142   1.870   6.763   3.996  0.1661 -0.0074 -0.8665
   60MOL   H14519143   1.710   6.738   3.933  0.0127  0.4570  2.3669
   60MOL   C14619144   1.879   6.632   3.830  0.0786 -0.2881  1.3961
   60MOL   C14719145   2.023   6.584   3.859 -0.0485  0.6316 -0.5478
   60MOL   C14819146   2.061   6.446   3.855 -0.4094 -0.0694  0.2228
   60MOL  Cl14919147   1.941   6.330   3.837 -0.3891  0.5040  0.4792
   60MOL   C15019148   2.190   6.403   3.881  0.1269 -0.3720 -0.5114
   60MOL   C15119149   2.287   6.500   3.921 -0.7854  0.4993  0.2402
   60MOL   C15219150   2.253   6.639   3.916  0.1156 -0.6518  0.5653
   60MOL   C15319151   2.121   6.678   3.895 -0.1045 -0.3388  0.0461
   60MOL   C15419152   1.895   6.744   3.723  0.8160 -0.4103 -0.2909
   60MOL   H15519153   1.817   6.556   3.782  0.0595 -0.8602  2.3137
   60MOL   H15619154   2.219   6.300   3.887 -0.4606 -0.5030  0.1250
   60MOL   H15719155   2.387   6.462   3.936 -1.1561 -0.8313 -0.5441
   60MOL   H15819156   2.319   6.716   3.954  2.0401 -1.6097 -0.7704
   60MOL   H15919157   2.086   6.778   3.917  1.0076  0.0564  0.0562
   60MOL   H16019158   1.977   6.738   3.652 -0.1486  0.1677 -1.4704
   60MOL   H16119159   1.947   6.827   3.772 -0.0711  0.1356 -0.2686
   60MOL   C16219160   1.762   6.784   3.650  0.6935  0.0075 -0.9755
   60MOL   C16319161   1.717   6.680   3.549  0.3293  0.3206 -0.2640
   60MOL   C16419162   1.590   6.618   3.559  0.5149  0.1155  0.4243
   60MOL  Cl16519163   1.474   6.653   3.686  0.4935 -0.3609 -0.1489
   60MOL   C16619164   1.560   6.513   3.468 -0.0134 -1.0439  0.1432
   60MOL   C16719165   1.648   6.476   3.372  0.0547  0.0639  0.1507
   60MOL   C16819166   1.776   6.542   3.359  0.9094  0.3840  0.6380
   60MOL   C16919167   1.814   6.631   3.457  0.3446  0.4959  0.2446
   60MOL   C17019168   1.764   6.928   3.600 -0.9095  0.8498  0.0800
   60MOL   H17119169   1.686   6.790   3.728  0.6658 -0.3750 -0.9732
   60MOL   H17219170   1.469   6.456   3.480 -0.1879 -0.1266  3.7240
   60MOL   H17319171   1.627   6.389   3.312 -2.4888  1.3101 -0.8211
   60MOL   H17419172   1.840   6.512   3.277 -1.1725 -0.1495 -0.8326
   60MOL   H17519173   1.912   6.676   3.452  0.4029  0.0715 -4.8696
   60MOL   H17619174   1.665   6.959   3.565 -0.9051  1.6068  0.7313
   60MOL   H17719175   1.819   6.930   3.506 -1.1575  0.4797 -0.0746
   60MOL   C17819176   1.806   7.047   3.692  0.3722 -0.1235 -0.0587
   60MOL   C17919177   1.742   7.047   3.831 -1.2505 -0.1778  0.0257
   60MOL   C18019178   1.827   7.038   3.946  0.2675  0.2421 -0.6167
   60MOL  Cl18119179   2.005   7.046   3.937 -0.1103 -0.0336  0.2305
   60MOL   C18219180   1.764   7.038   4.073 -0.5437 -0.3122  0.3255
   60MOL   C18319181   1.626   7.019   4.089 -1.0305  1.2875  0.2969
   60MOL   C18419182   1.547   7.030   3.975  0.0349  0.3722 -0.4416
   60MOL   C18519183   1.605   7.052   3.848  0.2385 -0.0423 -0.0594
   60MOL   C18619184   1.794   7.179   3.614 -0.2848 -0.0272  0.1732
   60MOL   H18719185   1.912   7.029   3.708 -0.4628 -3.1806  2.6158
   60MOL   H18819186   1.832   7.041   4.158  0.4894  0.3653 -0.5117
   60MOL   H18919187   1.585   7.021   4.188 -3.1405  0.2733 -0.5218
   60MOL   H19019188   1.440   7.033   3.989  0.2541  1.9265  0.9677
   60MOL   H19119189   1.548   7.073   3.759  0.7595 -0.1382 -0.4185
   60MOL   H19219190   1.690   7.208   3.598  0.0324 -0.0472 -2.1325
   60MOL   H19319191   1.823   7.162   3.510 -2.3078  0.6161 -0.5099
   60MOL   C19419192   1.878   7.298   3.670  0.6851 -0.3409 -0.7078
   60MOL   C19519193   1.798   7.390   3.762 -0.2153 -0.1097  0.1089
   60MOL   C19619194   1.692   7.476   3.720 -0.2405  0.2325  0.0358
   60MOL  Cl19719195   1.639   7.484   3.558 -0.2055  0.5001  0.3493
   60MOL   C19819196   1.632   7.569   3.812 -1.2333 -0.0607 -0.0296
   60MOL   C19919197   1.680   7.577   3.944  0.4573 -0.1423  0.2380
   60MOL   C20019198   1.770   7.482   3.992 -0.3749 -0.3663  0.9428
   60MOL   C20119199   1.834   7.390   3.899  0.3919 -1.0010 -0.0811
   60MOL   C20219200   1.972   7.363   3.564  0.1691  0.0488  0.1835
   60MOL   H20319201   1.943   7.249   3.743 -1.2432  1.0333  2.0059
   60MOL   H20419202   1.553   7.640   3.792 -2.8249 -1.3795  1.5309
   60MOL   H20519203   1.635   7.646   4.014 -1.2107 -0.5516 -0.3798
   60MOL   H20619204   1.808   7.500   4.092 -1.8758  0.8551  1.3109
   60MOL   H20719205   1.922   7.337   3.933  0.2857 -0.7989  0.5237
   60MOL   H20819206   1.907   7.390   3.482 -1.1839 -2.9416  0.2146
   60MOL   H20919207   2.038   7.285   3.525  1.8205  1.2266  0.5489
   60MOL   C21019208   2.054   7.475   3.628 -0.1775 -0.3671 -0.0589
   60MOL   C21119209   2.124   7.563   3.521 -0.4583 -0.2422  0.1535
   60MOL   C21219210   2.053   7.662   3.449 -0.2760 -0.3115 -0.2663
   60MOL  Cl21319211   1.884   7.688   3.479 -0.2374  0.4239  0.2447
   60MOL   C21419212   2.125   7.747   3.357 -0.2116  0.3133 -0.0541
   60MOL   C21519213   2.256   7.719   3.323 -0.2058 -0.2164 -0.3889
   60MOL   C21619214   2.324   7.621   3.386 -0.5389  0.5735  0.3299
   60MOL   C21719215   2.259   7.542   3.482  0.6920 -0.2077 -0.0521
   60MOL   C21819216   2.157   7.428   3.734 -0.2125  0.1064  0.2789
   60MOL   H21919217   1.993   7.553   3.673  0.7243  0.2435  0.1133
   60MOL   H22019218   2.068   7.830   3.318  0.3235  1.2460  1.1259
   60MOL   H22119219   2.310   7.786   3.258 -0.2315  1.1646  0.9749
   60MOL   H22219220   2.426   7.599   3.359 -0.9537 -2.8088  1.2215
   60MOL   H22319221   2.319   7.464   3.526 -0.6170 -0.7907  0.7424
   60MOL   H22419222   2.240   7.379   3.683  0.6475  1.3840  0.4322
   60MOL   H22519223   2.111   7.348   3.792 -1.4397  0.6948  0.1321
   60MOL   C22619224   2.204   7.530   3.840 -0.2557  0.0111 -0.2432
   60MOL   C22719225   2.311   7.460   3.912 -0.1006  0.5465 -0.6622
   60MOL   C22819226   2.443   7.494   3.883 -0.0056  0.1914 -0.2207
   60MOL  Cl22919227   2.486   7.607   3.755  0.1195 -0.0606 -0.3259
   60MOL   C23019228   2.544   7.426   3.947 -0.4162 -0.0927 -0.7563
   60MOL   C23119229   2.515   7.326   4.038  0.3132 -0.6368  0.2350
   60MOL   C23219230   2.381   7.303   4.074  0.1084  0.9353  0.4019
   60MOL   C23319231   2.278   7.360   4.005 -0.2602  0.0971  0.1964
   60MOL   C23419232   2.101   7.593   3.929  0.1577  0.2025 -0.2611
   60MOL   H23519233   2.238   7.620   3.787  0.7125 -0.4693 -0.4411
   60MOL   H23619234   2.647   7.446   3.923 -0.3008 -0.1013 -0.2624
   60MOL   H23719235   2.592   7.276   4.095  1.3215  0.6288  0.0114
   60MOL   H23819236   2.369   7.223   4.146  1.7931  0.5969  0.3309
   60MOL   H23919237   2.177   7.332   4.030 -0.0744  0.7909  1.8133
   60MOL   H24019238   2.053   7.518   3.992  0.1928 -0.4154 -0.9614
   60MOL   H24119239   2.021   7.640   3.872  1.6035  1.9582 -0.8731
   60MOL   C24219240   2.157   7.685   4.046 -0.1556 -0.3059 -0.2151
   60MOL   C24319241   2.047   7.715   4.143 -0.0165 -0.7087 -0.6497
   60MOL   C24419242   2.019   7.632   4.254  0.6834 -0.3818 -0.4178
   60MOL  Cl24519243   2.111   7.492   4.293  0.1684 -0.5321 -0.2940
   60MOL   C24619244   1.909   7.661   4.338 -0.0253 -0.1999  0.2806
   60MOL   C24719245   1.828   7.774   4.313  0.4854  0.6235 -0.4741
   60MOL   C24819246   1.853   7.856   4.201 -0.4138 -0.3147  0.1969
   60MOL   C24919247   1.956   7.824   4.113  0.4643  0.3091 -0.2029
   60MOL   C25019248   2.232   7.811   3.989  0.7386  0.6572  0.2326
   60MOL   H25119249   2.234   7.635   4.104 -0.2518  1.6100  1.6641
   60MOL   H25219250   1.898   7.605   4.430  4.7651 -0.5736  0.7400
   60MOL   H25319251   1.748   7.803   4.380 -1.0030  3.9929 -3.5439
   60MOL   H25419252   1.794   7.943   4.180  0.4935 -0.0977 -1.5440
   60MOL   H25519253   1.975   7.881   4.023 -3.7150 -0.9414 -2.0011
   60MOL   H25619254   2.166   7.865   3.921 -1.2500 -1.3159  0.5123
   60MOL   H25719255   2.302   7.774   3.915 -0.9830 -0.8345 -0.6837
   60MOL   C25819256   2.311   7.903   4.080 -0.8485  0.4607  0.1033
   60MOL   C25919257   2.218   8.008   4.155  0.3241 -0.2926 -0.6087
   60MOL   C26019258   2.187   8.006   4.291 -0.9846 -0.2808  0.3607
   60MOL  Cl26119259   2.260   7.892   4.397  0.0756  0.1116 -0.0285
   60MOL   C26219260   2.094   8.094   4.347 -0.1621 -0.5589  0.4856
   60MOL   C26319261   2.027   8.188   4.268 -0.6073 -0.1659  0.2194
   60MOL   C26419262   2.048   8.187   4.130  0.2230 -0.4843 -0.4264
   60MOL   C26519263   2.149   8.103   4.079 -0.4746  0.8902 -0.5164
   60MOL   C26619264   2.432   7.956   4.007 -0.0875 -0.1649  0.6390
   60MOL   H26719265   2.361   7.835   4.149  0.1433 -0.2079 -1.2626
   60MOL   H26819266   2.098   8.099   4.454 -1.4141 -2.5351  0.6497
   60MOL   H26919267   1.952   8.247   4.319 -1.4641 -0.9790 -0.0643
   60MOL   H27019268   1.996   8.256   4.065  1.5078 -0.0036 -0.9547
   60MOL   H27119269   2.179   8.102   3.976  0.7203 -1.1228 -0.1813
   60MOL   H27219270   2.407   8.016   3.919 -0.9377  1.4848  1.9748
   60MOL   H27319271   2.488   7.871   3.968  1.0712  0.8408  0.0874
   60MOL   C27419272   2.516   8.064   4.091  0.1754  0.3924 -0.7372
   60MOL   C27519273   2.609   8.141   3.993  0.1407 -0.0733 -0.9007
   60MOL   C27619274   2.604   8.283   3.988  0.2282 -0.0673  0.4320
   60MOL  Cl27719275   2.496   8.378   4.082  0.2541 -0.0868  0.0603
   60MOL   C27819276   2.686   8.347   3.901 -0.7380 -0.5810 -0.0145
   60MOL   C27919277   2.772   8.279   3.812  0.1894 -0.3546  0.2624
   60MOL   C28019278   2.773   8.141   3.814  0.1364  0.4030  0.0721
   60MOL   C28119279   2.696   8.070   3.912 -0.1674 -0.9637 -0.5260
   60MOL   C28219280   2.593   8.004   4.208 -0.8841 -0.4431 -0.2033
   60MOL   H28319281   2.441   8.132   4.130  1.7225  2.0236 -0.5702
   60MOL   H28419282   2.676   0.033   3.891 -1.4957 -0.7694 -1.3896
   60MOL   H28519283   2.835   8.333   3.742  1.0632 -1.6851  0.0177
   60MOL   H28619284   2.832   8.081   3.746 -2.1305 -0.8105 -0.8681
   60MOL   H28719285   2.695   7.962   3.921  1.9280 -0.8833  0.9660
   60MOL   H28819286   2.672   7.936   4.175 -0.8777  1.1897 -3.7238
   60MOL   H28919287   2.523   7.943   4.266 -0.6180 -1.9248 -1.4043
   60MOL   C29019288   2.662   8.102   4.312  0.5396  0.0922 -0.4557
   60MOL   C29119289   2.745   8.031   4.414  0.4977  0.3604 -0.5302
   60MOL   C29219290   2.884   8.053   4.440 -0.6531  0.8451 -0.5252
   60MOL  Cl29319291   2.972   8.177   4.357  0.1089  0.0859 -0.5155
   60MOL   C29419292   2.951   7.982   4.542  0.6086 -0.1682 -0.0123
   60MOL   C29519293   2.876   7.895   4.624  0.3686  0.3567 -0.1798
   60MOL   C29619294   2.741   7.873   4.600  0.0016  0.2578 -0.0386
   60MOL   C29719295   2.678   7.936   4.492  0.4428  0.0554  0.0044
   60MOL   C29819296   2.565   8.205   4.378  0.2443 -0.1190  0.0295
   60MOL   H29919297   2.733   8.166   4.258  1.4439 -1.3139 -0.9675
   60MOL   H30019298   3.057   8.001   4.556  0.9734 -2.6204  0.9767
   60MOL   H30119299   2.924   7.839   4.703 -1.1133  0.3185  0.7288
   60MOL   H30219300   2.688   7.795   4.653 -0.3861  0.8068  0.3884
   60MOL   H30319301   2.574   7.911   4.477  0.1491  1.3973 -0.2682
   60MOL   H30419302   2.490   8.155   4.440  0.3173  0.7537  0.8379
   60MOL   H30519303   2.503   8.255   4.304 -1.2360  0.0307  1.3247
   60MOL   C30619304   2.626   8.306   4.478 -0.1818  0.2883 -0.5402
   60MOL   C30719305   2.534   8.366   4.580 -0.5423  0.2019  0.3654
   60MOL   C30819306   2.419   0.023   4.541  0.3238 -0.4629  0.1301
   60MOL  Cl30919307   2.380   0.057   4.375 -0.3748  0.0732  0.2454
   60MOL   C31019308   2.331   0.082   4.641  0.9904  0.3470  0.2451
   60MOL   C31119309   2.362   0.057   4.775  0.1457  0.3548 -0.1028
   60MOL   C31219310   2.480   8.407   4.816  0.2473 -0.0670 -0.0538
   60MOL   C31319311   2.562   8.345   4.719  0.5474  0.1263  0.0491
   60MOL   C31419312   2.714   8.414   4.407 -0.3312  0.4029 -0.1765
   60MOL   H31519313   2.696   8.246   4.536 -0.2444 -0.2971 -1.0716
   60MOL   H31619314   2.248   0.140   4.606  0.7430  0.1505  0.5084
   60MOL   H31719315   2.298   0.100   4.850 -0.1840  2.4262 -1.5514
   60MOL   H31819316   2.491   8.389   4.922 -0.2614  1.3083  0.2516
   60MOL   H31919317   2.638   8.279   4.758  1.4333  0.1029 -1.6783
   60MOL   H32019318   2.776   0.050   4.477  1.2475 -2.5122  0.8868
   60MOL   H32119319   2.664   0.077   4.358 -1.5731  1.3280  2.5279
   60MOL   H32219320   2.774   8.376   4.325 -0.8391 -1.2304  0.1957
   61MOL     C119321   7.451   0.243   1.737  0.3006  0.1654 -0.2402
   61MOL     C219322   7.564   0.212   1.836  0.0176 -0.6745  0.5435
   61MOL     C319323   7.547   0.224   1.980 -0.6299  0.4425  0.9248
   61MOL    Cl419324   7.389   0.261   2.052 -0.1075 -0.1161  0.1781
   61MOL     C519325   7.653   0.198   2.068  0.4436  0.0825 -0.1406
   61MOL     C619326   7.782   0.173   2.015  0.4339 -0.0239 -0.0364
   61MOL     C719327   7.796   0.137   1.874  0.3172 -0.4517  0.4341
   61MOL     C819328   7.689   0.157   1.788  0.3452  0.1581  0.8806
   61MOL     C919329   7.497   0.342   1.632  0.0305 -0.0000  0.3545
   61MOL    H1019330   7.416   0.147   1.699  0.2609 -1.0345  2.6904
   61MOL    H1119331   7.647   0.214   2.175 -0.2311 -2.2602  0.1927
   61MOL    H1219332   7.872   0.164   2.074  0.6317 -0.8785 -0.4596
   61MOL    H1319333   7.897   0.116   1.842 -0.1023 -0.8485 -0.6313
   61MOL    H1419334   7.699   0.138   1.683  3.9775  2.8070  0.6611
   61MOL    H1519335   7.412   0.354   1.565  0.4413  2.3225  0.2093
   61MOL    H1619336   7.575   0.297   1.571 -0.2432  0.6824 -0.5040
   61MOL    H1719337   7.371   0.289   1.795  1.0911  0.0408  0.9821
   61MOL    C1819338   7.555   0.471   1.691 -0.2775 -0.4114  0.5135
   61MOL    C1919339   7.462   0.544   1.782 -0.1332 -0.6872 -0.7051
   61MOL    C2019340   7.505   0.586   1.912  0.0815  1.0192 -0.0439
   61MOL   Cl2119341   7.674   0.593   1.954  0.2416  0.2581 -0.2319
   61MOL    C2219342   7.423   0.660   1.995  0.2525  0.5467 -0.5913
   61MOL    C2319343   7.285   0.680   1.958 -0.6702  0.0473  0.0251
   61MOL    C2419344   7.241   0.630   1.835  0.1339 -0.2855  0.2795
   61MOL    C2519345   7.322   0.567   1.741  0.0869 -0.0024 -0.5221
   61MOL    C2619346   7.615   0.566   1.578 -0.3622  0.1617 -0.3124
   61MOL    H2719347   7.648   0.447   1.742 -0.0586  0.7185  0.6458
   61MOL    H2819348   7.458   0.698   2.090  2.6042 -0.6789 -0.9367
   61MOL    H2919349   7.215   0.726   2.025  1.5861  0.9564  1.8270
   61MOL    H3019350   7.139   0.651   1.804  0.6987  2.6825  0.3297
   61MOL    H3119351   7.295   0.542   1.639  2.8493  0.6384 -1.4617
   61MOL    H3219352   7.695   0.501   1.544 -1.4856 -0.6630 -1.4100
   61MOL    H3319353   7.667   0.648   1.628 -0.6382 -0.1910  0.5457
   61MOL    C3419354   7.526   0.612   1.461 -0.1627 -0.3778  0.3294
   61MOL    C3519355   7.496   0.494   1.356 -0.4504  0.4923  0.0241
   61MOL    C3619356   7.366   0.449   1.321  1.1832 -0.4154 -0.0768
   61MOL   Cl3719357   7.222   0.531   1.391 -0.1845 -0.1996 -0.6920
   61MOL    C3819358   7.345   0.349   1.225  0.5013 -0.8173  0.8268
   61MOL    C3919359   7.457   0.297   1.160 -0.4935 -0.0014 -0.6626
   61MOL    C4019360   7.584   0.353   1.181  0.4026 -0.5659 -0.2864
   61MOL    C4119361   7.606   0.450   1.282 -0.2204  0.2422 -0.3708
   61MOL    C4219362   7.594   0.734   1.387 -0.6009 -0.4308  0.7000
   61MOL    H4319363   7.429   0.646   1.495 -1.0357  1.0742 -3.3901
   61MOL    H4419364   7.246   0.314   1.200 -0.4847  2.2215  0.2491
   61MOL    H4519365   7.436   0.214   1.093  0.2672 -2.4826  2.0878
   61MOL    H4619366   7.669   0.317   1.125  0.0807 -0.2559 -0.9722
   61MOL    H4719367   7.707   0.477   1.309 -0.6453  0.6941  0.7945
   61MOL    H4819368   7.541   0.770   1.299 -2.5004 -0.1133  1.9626
   61MOL    H4919369   7.680   0.689   1.336 -0.6753  0.0863  0.1177
   61MOL    C5019370   7.625   0.859   1.453  0.3783  0.6291  0.5537
   61MOL    C5119371   7.509   0.925   1.527  0.4051  0.1682  0.5966
   61MOL    C5219372   7.503   0.934   1.670  0.4101 -0.3004 -0.1244
   61MOL   Cl5319373   7.625   0.880   1.772  0.2655  0.3310  0.1969
   61MOL    C5419374   7.392   0.988   1.735 -0.1955  0.1650 -0.7083
   61MOL    C5519375   7.283   1.030   1.661 -0.5187 -0.3634 -0.9850
   61MOL    C5619376   7.281   1.020   1.522  0.0374 -0.2723  0.6519
   61MOL    C5719377   7.395   0.965   1.456  0.2331 -0.2968 -0.2728
   61MOL    C5819378   7.686   0.960   1.350 -0.4401  0.3433  0.2636
   61MOL    H5919379   7.700   0.840   1.530  1.2377  2.2258  0.1333
   61MOL    H6019380   7.394   0.988   1.843  2.7143 -0.1931 -0.7242
   61MOL    H6119381   7.202   1.069   1.720  0.0875 -0.4533 -0.0949
   61MOL    H6219382   7.192   1.057   1.473 -0.1985 -0.3569  1.0169
   61MOL    H6319383   7.399   0.956   1.349  1.2158 -1.1278 -0.1746
   61MOL    H6419384   7.599   0.995   1.295 -1.2350  0.8381  1.7898
   61MOL    H6519385   7.757   0.916   1.281 -0.6075  2.0143 -1.0089
   61MOL    C6619386   7.761   1.079   1.421 -0.1447 -0.8185  0.3227
   61MOL    C6719387   7.692   1.210   1.379  0.1997 -0.1824 -0.1242
   61MOL    C6819388   7.618   1.289   1.469 -0.7100 -0.6325 -1.7008
   61MOL   Cl6919389   7.613   1.251   1.637 -0.2170  0.0413  0.1075
   61MOL    C7019390   7.556   1.407   1.430  0.3305 -0.1280  0.5009
   61MOL    C7119391   7.556   1.439   1.295  0.3180  0.5553  0.4861
   61MOL    C7219392   7.609   1.353   1.194 -0.0578 -0.3362  0.7663
   61MOL    C7319393   7.690   1.248   1.239  0.0816 -0.0905 -0.0752
   61MOL    C7419394   7.916   1.084   1.379 -0.0914  0.2284  0.4472
   61MOL    H7519395   7.751   1.072   1.529 -0.1396  1.8581  0.5226
   61MOL    H7619396   7.499   1.469   1.497 -0.9898 -1.2526  0.4399
   61MOL    H7719397   7.503   1.530   1.270 -0.5381 -0.7308 -2.7063
   61MOL    H7819398   7.597   1.386   1.092 -0.0398  1.9053  1.4584
   61MOL    H7919399   7.744   1.191   1.165  0.7251  0.6052 -0.1530
   61MOL    H8019400   7.959   1.181   1.404 -2.2988  1.4186 -0.2419
   61MOL    H8119401   7.922   1.088   1.271 -1.2654 -0.8104  0.3375
   61MOL    C8219402   7.995   0.969   1.439 -0.2174  0.3580 -0.1307
   61MOL    C8319403   8.005   0.963   1.589  0.8948 -0.1365  0.1884
   61MOL    C8419404   7.998   0.840   1.663 -0.9136 -0.0223 -0.1357
   61MOL   Cl8519405   7.968   0.682   1.588 -0.0772  0.2512  0.0438
   61MOL    C8619406   8.010   0.842   1.804 -0.3324  0.5924 -0.5823
   61MOL    C8719407   8.039   0.964   1.871  0.3960  1.0161 -0.3434
   61MOL    C8819408   8.049   1.088   1.799 -0.8952 -0.0432 -1.1192
   61MOL    C8919409   8.030   1.084   1.659  0.0512  0.0080 -0.2739
   61MOL    C9019410   8.137   0.958   1.379  0.0900  0.2111  0.5498
   61MOL    H9119411   7.945   0.878   1.406 -0.9402  0.7610 -0.1619
   61MOL    H9219412   7.997   0.751   1.861  0.4716  0.0901 -1.1899
   61MOL    H9319413   8.044   0.958   1.978 -1.4279  1.4618 -0.2156
   61MOL    H9419414   8.055   1.182   1.851 -1.6506 -0.4799 -0.2337
   61MOL    H9519415   8.057   1.179   1.615 -1.8709  0.2741 -0.8951
   61MOL    H9619416   8.196   0.878   1.424 -1.0836 -1.1558 -0.3084
   61MOL    H9719417   8.184   1.054   1.399 -2.3450  0.7210  4.3568
   61MOL    C9819418   8.139   0.931   1.227  0.5492  0.4993 -0.2420
   61MOL    C9919419   8.076   0.800   1.171  0.6800 -0.0598 -0.3615
   61MOL   C10019420   7.970   0.802   1.074 -0.0449  0.3740  0.3690
   61MOL  Cl10119421   7.894   0.948   1.023 -0.1889  0.5591 -0.0830
   61MOL   C10219422   7.902   0.685   1.038 -0.2338 -0.7728  0.3449
   61MOL   C10319423   7.945   0.564   1.099 -0.6172 -0.2924  0.8255
   61MOL   C10419424   8.062   0.557   1.178 -0.3208 -0.5455  0.5239
   61MOL   C10519425   8.120   0.675   1.221  0.1061 -0.1744 -0.5698
   61MOL   C10619426   8.280   0.944   1.168 -0.0519  0.4207  0.2526
   61MOL   H10719427   8.089   1.013   1.175 -1.2884  0.1657  0.9433
   61MOL   H10819428   7.807   0.689   0.986  0.9144  0.0938 -1.7235
   61MOL   H10919429   7.899   0.467   1.082 -0.1828 -0.3649  0.0808
   61MOL   H11019430   8.096   0.461   1.214 -0.6047 -0.6574  0.4973
   61MOL   H11119431   8.204   0.675   1.289  0.2741 -1.4778 -0.7630
   61MOL   H11219432   8.282   0.902   1.067  0.9290  1.6063 -0.2267
   61MOL   H11319433   8.341   0.879   1.231 -0.9095  0.5740  1.2649
   61MOL   C11419434   8.346   1.083   1.156 -0.0835 -0.5936  0.4543
   61MOL   C11519435   8.260   1.184   1.078  0.5444  0.0188 -0.2475
   61MOL   C11619436   8.223   1.312   1.134  0.2152  0.3765  0.4196
   61MOL  Cl11719437   8.264   1.350   1.294  0.3694 -0.0625 -0.3793
   61MOL   C11819438   8.132   1.396   1.061 -1.3731 -0.1302  0.8794
   61MOL   C11919439   8.109   1.364   0.931  0.1383  0.2739 -0.4890
   61MOL   C12019440   8.155   1.246   0.870  0.8751  0.3611  0.1706
   61MOL   C12119441   8.225   1.151   0.944 -0.4384  0.0485 -0.3030
   61MOL   C12219442   0.066   1.077   1.087  0.7503  0.1530  0.7715
   61MOL   H12319443   8.364   1.119   1.258 -0.9192  2.2312 -0.3616
   61MOL   H12419444   8.102   1.490   1.105  0.4190  1.3045 -0.8870
   61MOL   H12519445   8.048   1.434   0.876 -1.3129  0.9492  1.9025
   61MOL   H12619446   8.117   1.210   0.775 -2.6250 -1.0581  2.0361
   61MOL   H12719447   8.246   1.052   0.904  0.1374  0.8248 -1.9760
   61MOL   H12819448   0.033   1.079   0.983  1.5931  2.6640  0.5391
   61MOL   H12919449   0.110   0.979   1.107 -1.5497 -1.0302  0.2896
   61MOL   C13019450   0.167   1.183   1.112  0.5422  0.2321  0.3992
   61MOL   C13119451   0.270   1.195   0.994  0.2316  0.2961  0.5548
   61MOL   C13219452   0.247   1.291   0.892 -0.4061 -0.3849 -0.2185
   61MOL  Cl13319453   0.115   1.396   0.886 -0.1315 -0.4236 -0.2758
   61MOL   C13419454   0.341   1.305   0.792 -0.4009  0.2626  0.0102
   61MOL   C13519455   0.443   1.210   0.767 -0.0172 -0.4984  0.0088
   61MOL   C13619456   0.467   1.119   0.872 -0.1824  0.1409  0.5950
   61MOL   C13719457   0.380   1.104   0.977 -0.1859 -0.1671 -0.7580
   61MOL   C13819458   0.219   1.181   1.258 -0.3025 -0.0875 -0.1002
   61MOL   H13919459   0.104   1.271   1.101 -0.7822 -0.8583 -0.8339
   61MOL   H14019460   0.320   1.384   0.721  0.1872 -0.1061 -0.5849
   61MOL   H14119461   0.500   1.198   0.676  0.8092  0.3819  0.4026
   61MOL   H14219462   0.553   1.054   0.867  0.3476  0.8771  0.0933
   61MOL   H14319463   0.395   1.032   1.055 -1.1118 -1.0793 -1.3989
   61MOL   H14419464   0.268   1.085   1.278  0.5012  0.2173 -0.5729
   61MOL   H14519465   0.133   1.183   1.324 -0.4368 -1.5146 -0.2010
   61MOL   C14619466   0.309   1.305   1.293 -0.4393 -0.1625  0.2534
   61MOL   C14719467   0.447   1.292   1.238 -0.7870  0.2897 -0.0168
   61MOL   C14819468   0.500   1.398   1.159  0.0013 -0.1904  0.6753
   61MOL  Cl14919469   0.419   1.554   1.129  0.0784  0.0859 -0.1966
   61MOL   C15019470   0.631   1.382   1.114  0.2408  0.0824  0.0174
   61MOL   C15119471   0.705   1.264   1.130 -0.3422 -0.0107  0.0313
   61MOL   C15219472   0.645   1.156   1.202  0.4140  0.0307  0.4991
   61MOL   C15319473   0.518   1.168   1.258 -0.0325 -0.6671  0.3800
   61MOL   C15419474   0.318   1.312   1.448 -0.2300  0.0801 -0.5115
   61MOL   H15519475   0.261   1.398   1.263  0.0669  0.2004  0.5498
   61MOL   H15619476   0.680   1.465   1.066 -0.0044  0.3205  0.1824
   61MOL   H15719477   0.806   1.277   1.095  0.0031 -0.1887  0.9542
   61MOL   H15819478   0.699   1.062   1.210  1.8983  0.8079 -0.1666
   61MOL   H15919479   0.485   1.087   1.321  0.3088 -0.9111  0.2440
   61MOL   H16019480   0.413   1.351   1.482  0.0631 -1.6434  0.7501
   61MOL   H16119481   0.306   1.211   1.489  0.9765  1.6197  3.8820
   61MOL   C16219482   0.200   1.394   1.501  0.4782 -0.6720 -0.1724
   61MOL   C16319483   0.236   1.538   1.514 -0.3225  0.9705 -0.0174
   61MOL   C16419484   0.176   1.641   1.440  0.2082 -0.6953  0.6837
   61MOL  Cl16519485   0.045   1.617   1.331  0.0346 -0.1922 -0.2007
   61MOL   C16619486   0.225   1.771   1.449 -0.9379 -0.3053  0.4066
   61MOL   C16719487   0.331   1.794   1.535 -0.2296 -0.5597  0.2666
   61MOL   C16819488   0.388   1.701   1.620  0.1317 -0.1869 -0.1450
   61MOL   C16919489   0.344   1.567   1.604 -0.0296  0.0958  0.2266
   61MOL   C17019490   0.156   1.325   1.635 -0.5538 -0.0763  0.2683
   61MOL   H17119491   0.114   1.390   1.434  1.4614  1.1189 -1.5998
   61MOL   H17219492   0.187   1.857   1.396 -0.3573 -2.0475 -2.9565
   61MOL   H17319493   0.372   1.893   1.535  1.4284 -1.2401 -0.2220
   61MOL   H17419494   0.475   1.720   1.680 -1.5789  3.2030  1.4022
   61MOL   H17519495   0.389   1.481   1.650 -2.4739 -2.1611 -1.4881
   61MOL   H17619496   0.247   1.301   1.691  0.3071 -2.7741 -2.1747
   61MOL   H17719497   0.118   1.228   1.603  1.1720 -0.9871  0.9278
   61MOL   C17819498   0.063   1.412   1.727 -0.3187  0.1522  0.5309
   61MOL   C17919499   0.046   1.351   1.867 -0.3945  0.0076 -0.5109
   61MOL   C18019500   0.114   1.407   1.978  0.4919 -0.2246 -0.2261
   61MOL  Cl18119501   0.226   1.543   1.976 -0.1648  0.3258 -0.1561
   61MOL   C18219502   0.096   1.351   2.108 -0.4654 -0.3124  0.6818
   61MOL   C18319503   0.001   1.242   2.128 -0.5594 -0.1204 -0.4775
   61MOL   C18419504   8.365   1.180   2.012 -0.1205 -0.5453 -0.1709
   61MOL   C18519505   8.382   1.241   1.886  0.1768 -0.1399  0.6017
   61MOL   C18619506   8.350   1.435   1.654  0.2436 -0.6170 -0.2110
   61MOL   H18719507   0.123   1.503   1.735 -1.1718  0.6689  1.0659
   61MOL   H18819508   0.168   1.382   2.182  1.4463 -1.5525 -0.6298
   61MOL   H18919509   8.400   1.196   2.223 -2.1932  1.3123 -0.1432
   61MOL   H19019510   8.299   1.095   2.023 -0.4106 -0.4660 -1.2723
   61MOL   H19119511   8.340   1.192   1.799 -1.3769 -0.1150  1.3356
   61MOL   H19219512   8.299   1.339   1.648 -0.5228 -0.1586 -1.2991
   61MOL   H19319513   8.368   1.476   1.555 -0.1541  1.5145  0.5480
   61MOL   C19419514   8.255   1.534   1.731  0.3355 -0.4981 -0.4709
   61MOL   C19519515   8.120   1.543   1.650 -0.1027  1.1542 -0.0369
   61MOL   C19619516   7.997   1.512   1.708  0.1924 -0.3585 -0.2204
   61MOL  Cl19719517   7.969   1.469   1.873  0.0586 -0.4627  0.1546
   61MOL   C19819518   7.888   1.507   1.621 -0.8042 -0.0736  0.0077
   61MOL   C19919519   7.894   1.549   1.487  0.6976 -0.1238  0.5352
   61MOL   C20019520   8.016   1.585   1.430 -0.5631  0.4238  0.1546
   61MOL   C20119521   8.131   1.583   1.510 -0.7429  0.2381 -0.8897
   61MOL   C20219522   8.320   1.674   1.757  0.3731 -0.0980 -0.9083
   61MOL   H20319523   8.232   1.497   1.831 -0.1290  0.0706 -0.3664
   61MOL   H20419524   7.790   1.479   1.658 -0.2776  0.8179  2.1212
   61MOL   H20519525   7.804   1.539   1.428  2.5018 -1.0224 -2.1779
   61MOL   H20619526   8.019   1.617   1.327  0.8311  0.9641  0.3399
   61MOL   H20719527   8.225   1.614   1.466  0.8768  0.3110  2.4334
   61MOL   H20819528   8.313   1.744   1.674 -0.1650 -1.0558 -1.6795
   61MOL   H20919529   0.006   1.680   1.777  0.3789  0.0174 -0.9739
   61MOL   C21019530   8.257   1.753   1.867  0.0741 -0.0505 -0.9880
   61MOL   C21119531   8.230   1.901   1.837 -0.0454 -0.1951 -0.2499
   61MOL   C21219532   8.106   1.943   1.783  0.3095  0.0749 -0.3126
   61MOL  Cl21319533   7.978   1.840   1.746 -0.0318 -0.4698  0.0285
   61MOL   C21419534   8.083   2.081   1.767  0.1742  0.4009 -0.1590
   61MOL   C21519535   8.188   2.175   1.796 -0.7839 -0.4065  0.1901
   61MOL   C21619536   8.309   2.135   1.856  0.1415  0.1266  0.0426
   61MOL   C21719537   8.326   1.995   1.881  0.6334 -0.0290  0.1425
   61MOL   C21819538   8.315   1.714   2.009  0.0545 -0.7245  0.4033
   61MOL   H21919539   8.161   1.702   1.874  0.2507 -0.1536  1.2659
   61MOL   H22019540   7.988   2.113   1.727  0.0720 -0.4526 -0.5981
   61MOL   H22119541   8.173   2.282   1.787  1.2020  0.1139  2.4394
   61MOL   H22219542   8.389   2.206   1.870 -1.6164  1.8376  1.7363
   61MOL   H22319543   8.410   1.949   1.932 -1.6050 -1.9626  2.2207
   61MOL   H22419544   8.418   1.751   2.015 -0.2125  0.0896  0.1375
   61MOL   H22519545   8.328   1.606   2.010  1.0359 -0.5990  2.4926
   61MOL   C22619546   8.249   1.769   2.133 -0.2326  0.0699  0.3911
   61MOL   C22719547   8.337   1.761   2.260 -0.6846 -0.2515 -0.3497
   61MOL   C22819548   8.371   1.878   2.333  0.4174 -0.2689  0.4784
   61MOL  Cl22919549   8.317   2.034   2.282  0.3121 -0.4124 -0.4126
   61MOL   C23019550   0.021   1.866   2.454 -0.0166 -0.0797 -0.0329
   61MOL   C23119551   0.058   1.738   2.500  0.2958 -0.1635  0.1328
   61MOL   C23219552   0.029   1.625   2.419  0.6557  0.3135 -0.0739
   61MOL   C23319553   8.381   1.638   2.299 -0.0117  0.1028 -0.1198
   61MOL   C23419554   8.114   1.697   2.162  0.4746  0.9213 -0.2544
   61MOL   H23519555   8.223   1.873   2.116  0.7512  0.4826  1.3170
   61MOL   H23619556   0.043   1.959   2.503 -0.4491  1.4324 -2.5777
   61MOL   H23719557   0.102   1.740   2.598 -1.4561 -1.0595  0.9656
   61MOL   H23819558   0.058   1.526   2.451  0.9842  0.5170  0.2591
   61MOL   H23919559   8.363   1.552   2.237  2.4627  0.6608 -1.6937
   61MOL   H24019560   8.140   1.604   2.212  1.3549 -0.0580 -2.4300
   61MOL   H24119561   8.070   1.663   2.068  0.7314 -0.7948  0.2199
   61MOL   C24219562   8.013   1.791   2.237 -0.7442 -0.2375  0.2519
   61MOL   C24319563   7.895   1.709   2.282  0.3345  0.0404  0.4602
   61MOL   C24419564   7.865   1.688   2.419 -0.0943 -0.0777 -0.3429
   61MOL  Cl24519565   7.974   1.735   2.545 -0.2245 -0.1879 -0.2561
   61MOL   C24619566   7.753   1.612   2.454  0.5176 -0.1084  0.3640
   61MOL   C24719567   7.669   1.549   2.357 -0.3085  0.3157 -0.1417
   61MOL   C24819568   7.698   1.573   2.221 -0.2394 -0.4404  0.8453
   61MOL   C24919569   7.809   1.656   2.189 -0.2179 -0.0009 -0.0917
   61MOL   C25019570   7.981   1.925   2.166 -0.0601 -0.6251  0.2597
   61MOL   H25119571   8.070   1.824   2.324  1.9313  1.5066 -2.0781
   61MOL   H25219572   7.722   1.590   2.555 -2.7238 -2.8454 -1.1295
   61MOL   H25319573   7.585   1.490   2.391 -1.2952  0.9943 -1.3416
   61MOL   H25419574   7.639   1.532   2.142 -0.4555 -1.9891  1.7879
   61MOL   H25519575   7.820   1.680   2.085 -0.4941 -1.4141 -0.4566
   61MOL   H25619576   7.960   1.904   2.061 -1.2677 -0.4562  0.4520
   61MOL   H25719577   8.066   1.993   2.165 -0.9748  0.5228 -2.1933
   61MOL   C25819578   7.856   2.002   2.205  0.7741 -0.6882  0.3487
   61MOL   C25919579   7.831   2.109   2.107 -0.3453  0.2158 -0.2360
   61MOL   C26019580   7.720   2.109   2.023 -1.0105 -0.1260 -0.5374
   61MOL  Cl26119581   7.617   1.976   2.012 -0.1975 -0.4848 -0.1972
   61MOL   C26219582   7.701   2.214   1.930 -0.5840  0.4175  0.7683
   61MOL   C26319583   7.796   2.319   1.915 -0.0585  0.3693 -0.1412
   61MOL   C26419584   7.905   2.320   2.006  0.0322 -0.3303  0.7884
   61MOL   C26519585   7.922   2.216   2.103  0.1875 -0.6405 -0.4911
   61MOL   C26619586   7.856   2.046   2.355  0.4144 -0.4210  0.7720
   61MOL   H26719587   7.772   1.932   2.197 -2.9170  3.3313  1.9831
   61MOL   H26819588   7.619   2.221   1.860  1.6461  0.2515 -1.9563
   61MOL   H26919589   7.780   2.394   1.838 -0.5648  0.6305  0.2172
   61MOL   H27019590   7.975   2.402   2.007 -2.3046  1.6934  1.0111
   61MOL   H27119591   8.012   2.212   2.163 -1.3679 -1.1385  1.8639
   61MOL   H27219592   7.953   2.090   2.379 -1.4595  3.0330  2.2947
   61MOL   H27319593   7.849   1.957   2.417 -0.1179 -0.2472  0.9597
   61MOL   C27419594   7.747   2.138   2.409 -0.1658  0.4218  0.2196
   61MOL   C27519595   7.793   2.170   2.555  0.2202 -0.2952 -0.9307
   61MOL   C27619596   7.866   2.282   2.588 -0.7104  0.0373 -0.6287
   61MOL  Cl27719597   7.906   2.397   2.474  0.1693  0.0128 -0.0135
   61MOL   C27819598   7.907   2.308   2.719  0.3067 -0.6904 -0.6890
   61MOL   C27919599   7.872   2.214   2.818 -0.2439 -0.3265 -0.2034
   61MOL   C28019600   7.797   2.098   2.790  0.7771  0.6525  0.5900
   61MOL   C28119601   7.755   2.083   2.658  0.5067 -0.6176 -0.0613
   61MOL   C28219602   7.603   2.089   2.391  0.2711 -0.5552  0.2857
   61MOL   H28319603   7.769   2.224   2.346 -1.3900 -0.9454 -2.1188
   61MOL   H28419604   7.953   2.398   2.757  0.9908 -1.4497  0.3132
   61MOL   H28519605   7.902   2.236   2.919  0.6017  2.0187 -0.9110
   61MOL   H28619606   7.758   2.031   2.864 -1.8859 -1.0671 -2.2516
   61MOL   H28719607   7.693   2.000   2.629 -1.8343  1.6725 -1.9146
   61MOL   H28819608   7.594   1.988   2.431  0.2961 -0.6455  0.0614
   61MOL   H28919609   7.579   2.079   2.286 -1.1652 -0.7868  0.6219
   61MOL   C29019610   7.483   2.173   2.448 -0.0113 -0.6093 -0.5860
   61MOL   C29119611   7.356   2.101   2.413  0.9086 -0.5724 -0.0342
   61MOL   C29219612   7.266   2.061   2.520 -0.2907 -0.1924 -0.9771
   61MOL  Cl29319613   7.298   2.106   2.683 -0.5670  0.2899  0.2380
   61MOL   C29419614   7.147   1.992   2.492  0.0473 -0.1621  0.2462
   61MOL   C29519615   7.121   1.953   2.360  0.1038 -0.2962 -1.3006
   61MOL   C29619616   7.208   1.988   2.257 -0.1879  0.0622  1.2107
   61MOL   C29719617   7.320   2.069   2.279  0.0628  0.9288 -1.1450
   61MOL   C29819618   7.479   2.311   2.381 -0.6672  0.1737 -0.1917
   61MOL   H29919619   7.504   2.175   2.555  0.4587 -0.8199 -0.6708
   61MOL   H30019620   7.088   1.962   2.577  1.1491  1.7007  1.7009
   61MOL   H30119621   7.028   1.911   2.326 -0.4733 -0.4495  0.4047
   61MOL   H30219622   7.193   1.941   2.161 -0.6862  0.1700  1.2376
   61MOL   H30319623   7.383   2.104   2.199  1.5299 -1.2116 -0.9436
   61MOL   H30419624   7.377   2.336   2.352 -1.1948 -0.2446  1.2681
   61MOL   H30519625   7.529   2.322   2.285  0.8315  0.6800  0.6310
   61MOL   C30619626   7.536   2.426   2.464 -0.1633 -0.6028  0.4915
   61MOL   C30719627   7.441   2.475   2.575 -0.2521  0.4268 -0.0537
   61MOL   C30819628   7.339   2.569   2.545  0.4485 -0.2616 -0.5402
   61MOL  Cl30919629   7.291   2.625   2.386 -0.4497 -0.2511 -0.3510
   61MOL   C31019630   7.259   2.613   2.650  0.2121  0.0195 -0.6731
   61MOL   C31119631   7.286   2.580   2.786  0.2256 -0.1875  0.7092
   61MOL   C31219632   7.394   2.503   2.815  0.1434  0.6802 -0.5236
   61MOL   C31319633   7.475   2.451   2.710  0.1015  0.0389 -0.2118
   61MOL   C31419634   7.597   2.536   2.373  0.3618 -0.2503  0.2019
   61MOL   H31519635   7.622   2.386   2.517  0.8269 -1.0516 -1.4304
   61MOL   H31619636   7.174   2.678   2.634  0.7146  0.4294 -1.7216
   61MOL   H31719637   7.218   2.616   2.862  0.3559  4.7141 -1.3528
   61MOL   H31819638   7.422   2.486   2.918 -0.9111  0.6892 -0.2322
   61MOL   H31919639   7.565   2.393   2.726 -1.5475 -2.7009 -0.6491
   61MOL   H32019640   7.529   2.550   2.289 -1.3966  0.9559  1.7862
   61MOL   H32119641   7.678   2.487   2.319 -0.4581 -2.2858  0.7665
   61MOL   H32219642   7.622   2.629   2.424  1.0266 -0.7372  0.7846
   62MOL     C119643   6.779   6.506   0.542 -0.5894 -0.1276 -0.6802
   62MOL     C219644   6.855   6.536   0.668  0.6262 -0.2377  0.2814
   62MOL     C319645   6.833   6.453   0.784 -0.1708 -0.3378 -0.1186
   62MOL    Cl419646   6.725   6.319   0.780 -0.1842 -0.1596  0.0007
   62MOL     C519647   6.899   6.485   0.902  0.0106  0.1091  0.1585
   62MOL     C619648   6.987   6.595   0.903 -0.6457 -0.0018 -0.1110
   62MOL     C719649   7.009   6.678   0.792  0.4653 -0.4439  0.2555
   62MOL     C819650   6.944   6.645   0.674  0.2889 -0.1691  0.4507
   62MOL     C919651   6.853   6.414   0.445  0.4941 -0.2200  0.7274
   62MOL    H1019652   6.676   6.480   0.564 -0.7745  0.9223 -0.2551
   62MOL    H1119653   6.877   6.430   0.992 -0.6133  2.6856  1.6185
   62MOL    H1219654   7.034   6.610   0.999 -0.0952 -1.5642 -0.1127
   62MOL    H1319655   7.079   6.760   0.794 -2.3575  2.0885  1.7536
   62MOL    H1419656   6.959   6.706   0.587  1.2050 -1.2586 -0.1704
   62MOL    H1519657   6.841   6.308   0.469 -1.8942 -0.0707  0.3616
   62MOL    H1619658   6.959   6.438   0.439  1.0817 -2.5971  1.1648
   62MOL    H1719659   6.777   6.604   0.494 -0.6312  0.1650 -0.0879
   62MOL    C1819660   6.789   6.416   0.300  0.1571 -0.2977  0.1001
   62MOL    C1919661   6.636   6.390   0.322 -0.6147  0.2918  0.5724
   62MOL    C2019662   6.539   6.488   0.299  0.5461 -0.1097  0.1495
   62MOL   Cl2119663   6.588   6.652   0.265  0.3817  0.0719 -0.0927
   62MOL    C2219664   6.401   6.455   0.308  0.1917 -0.3403  0.4667
   62MOL    C2319665   6.357   6.334   0.353 -0.2171  0.1093  0.0715
   62MOL    C2419666   6.453   6.228   0.371 -0.1505  0.2435 -0.0310
   62MOL    C2519667   6.596   6.261   0.366  0.0137 -0.1414  0.1709
   62MOL    C2619668   6.846   6.318   0.199  0.0427  0.1695  0.4484
   62MOL    H2719669   6.801   6.519   0.267 -1.1464 -0.4062 -0.7412
   62MOL    H2819670   6.330   6.536   0.295  0.6213 -0.1578 -0.8688
   62MOL    H2919671   6.251   6.314   0.347 -0.1268 -0.4575  0.3494
   62MOL    H3019672   6.417   6.131   0.401  0.6991  0.3029  1.1920
   62MOL    H3119673   6.675   6.191   0.387  2.5285  2.2509 -0.9665
   62MOL    H3219674   6.785   6.321   0.109 -0.1900 -1.0721  0.5558
   62MOL    H3319675   6.852   6.217   0.239  0.5219 -0.1528 -0.4297
   62MOL    C3419676   6.990   6.350   0.151  0.1094  0.4456 -0.0582
   62MOL    C3519677   7.004   6.500   0.109 -0.1264  0.4226 -0.0680
   62MOL    C3619678   7.112   6.582   0.154  0.6335 -0.0081 -0.4725
   62MOL   Cl3719679   7.244   6.524   0.246  0.1012  0.1616 -0.0957
   62MOL    C3819680   7.118   6.714   0.117  0.3061 -0.3329  1.0719
   62MOL    C3919681   7.023   6.774   0.035  0.4488  0.1301 -0.3011
   62MOL    C4019682   6.913   6.696   8.417 -0.2122 -0.6609 -0.0981
   62MOL    C4119683   6.905   6.560   0.031  0.9330  0.1960  0.3104
   62MOL    C4219684   7.035   6.254   0.040 -0.4959 -0.1721 -1.2559
   62MOL    H4319685   7.048   6.343   0.244  0.0800 -0.4633 -0.0964
   62MOL    H4419686   7.204   6.775   0.140  0.2510  0.5526 -0.9710
   62MOL    H4519687   7.034   6.878   0.010 -0.2350  0.3686  0.3573
   62MOL    H4619688   6.837   6.753   8.365  1.4835  1.6174 -0.1468
   62MOL    H4719689   6.813   6.508   0.011  0.3699  2.1342 -2.4730
   62MOL    H4819690   7.110   6.308   8.402 -0.8619  0.2495 -1.3390
   62MOL    H4919691   6.948   6.237   8.397 -1.9131  0.6297  0.4353
   62MOL    C5019692   7.102   6.128   0.097 -0.2202 -0.6359  0.3870
   62MOL    C5119693   7.226   6.157   0.180  0.6911  0.3489 -0.7617
   62MOL    C5219694   7.226   6.136   0.319 -1.0332  0.1205 -0.0691
   62MOL   Cl5319695   7.096   6.068   0.402  0.3253 -0.5191 -0.3793
   62MOL    C5419696   7.340   6.188   0.391  0.2424 -0.1448 -0.2601
   62MOL    C5519697   7.447   6.251   0.329  0.0355 -0.3789  0.8300
   62MOL    C5619698   7.452   6.251   0.187  0.2748 -0.1222 -1.1742
   62MOL    C5719699   7.341   6.205   0.114  0.0057  0.1641 -0.1620
   62MOL    C5819700   7.123   6.013   0.002  0.2629  0.2177 -0.0249
   62MOL    H5919701   7.022   6.086   0.158  0.9072 -1.6530  1.1904
   62MOL    H6019702   7.346   6.173   0.498  2.2087 -4.4036 -0.8341
   62MOL    H6119703   7.530   6.292   0.384  1.5756 -1.3540 -0.7051
   62MOL    H6219704   7.532   6.301   0.136 -1.3547  1.9313 -1.7698
   62MOL    H6319705   7.342   6.221   0.007 -0.3157 -0.1186 -0.2073
   62MOL    H6419706   7.184   5.931   0.041  0.2034 -0.6667 -1.7678
   62MOL    H6519707   7.178   6.040   8.333 -0.7479 -0.3342 -0.8174
   62MOL    C6619708   6.993   5.951   8.379  0.5952 -0.2814  0.2453
   62MOL    C6719709   6.904   5.888   0.067 -0.3048 -0.0495  0.3902
   62MOL    C6819710   6.764   5.905   0.077 -0.3299  0.8574  0.4220
   62MOL   Cl6919711   6.684   6.006   8.385 -0.1745 -0.2684 -0.1972
   62MOL    C7019712   6.687   5.828   0.173  0.4702  0.3708  0.2109
   62MOL    C7119713   6.754   5.736   0.255 -0.0724 -0.7803 -0.6338
   62MOL    C7219714   6.895   5.731   0.257 -0.4616 -0.3869 -0.1444
   62MOL    C7319715   6.966   5.808   0.166 -0.4231 -0.3291  0.3816
   62MOL    C7419716   7.005   5.842   8.274  0.0893 -0.4687 -0.1762
   62MOL    H7519717   6.935   6.024   8.322 -1.0425 -1.1002  0.8437
   62MOL    H7619718   6.581   5.845   0.176  0.7655  2.1547  0.5326
   62MOL    H7719719   6.696   5.673   0.320 -0.6241 -1.8404 -2.1067
   62MOL    H7819720   6.954   5.681   0.332  0.7885  1.4121  0.0905
   62MOL    H7919721   7.073   5.801   0.153 -0.1959  0.7613  1.6124
   62MOL    H8019722   6.922   5.771   8.279  0.9481 -1.4422  0.4722
   62MOL    H8119723   7.091   5.785   8.308 -0.2952 -0.5173  0.7335
   62MOL    C8219724   7.032   5.898   8.130  0.0570  0.0113 -0.0440
   62MOL    C8319725   6.897   5.944   8.078  0.7749 -0.2130  0.1409
   62MOL    C8419726   6.867   6.082   8.061 -0.0939  0.1168 -0.7891
   62MOL   Cl8519727   6.979   6.205   8.095 -0.0708 -0.4219  0.2687
   62MOL    C8619728   6.738   6.127   8.015  0.4830  0.5354 -0.0060
   62MOL    C8719729   6.643   6.035   7.976 -0.0669  0.0484 -0.0183
   62MOL    C8819730   6.670   5.895   7.995  0.0578 -0.1396 -0.5611
   62MOL    C8919731   6.794   5.850   8.049  0.4619  0.6459 -0.0515
   62MOL    C9019732   7.102   5.800   8.036 -0.9173 -0.1258 -0.2341
   62MOL    H9119733   7.100   5.982   8.145 -0.1082  0.1742 -0.2045
   62MOL    H9219734   6.723   6.234   8.009  2.3659  0.8439  0.4716
   62MOL    H9319735   6.548   6.069   7.937  0.3476  0.3940 -0.7445
   62MOL    H9419736   6.593   5.826   7.963 -1.3726  1.0210  0.2763
   62MOL    H9519737   6.797   5.742   8.052 -3.8160  0.4090 -0.3252
   62MOL    H9619738   7.087   5.836   7.935  0.0848  2.5384  0.5348
   62MOL    H9719739   7.047   5.707   8.052 -1.2525  0.2632  0.8923
   62MOL    C9819740   7.252   5.781   8.071 -0.1053  0.3333 -0.1793
   62MOL    C9919741   7.329   5.911   8.070 -0.0626  0.0516  0.3576
   62MOL   C10019742   7.415   5.949   8.175 -0.5672  0.8880  0.9211
   62MOL  Cl10119743   7.433   5.841   8.308  0.3561 -0.0398 -0.1903
   62MOL   C10219744   7.479   6.076   8.179 -1.1748  0.1213 -0.2938
   62MOL   C10319745   7.465   6.170   8.072  0.1228  0.5348 -0.3650
   62MOL   C10419746   7.393   6.126   7.965 -0.6795 -0.1558  0.0127
   62MOL   C10519747   7.321   6.002   7.962  0.6333  0.2714  0.1944
   62MOL   C10619748   7.313   5.669   7.988 -0.5453  0.3843  0.6248
   62MOL   H10719749   7.246   5.738   8.171 -0.4963  1.4851  0.3015
   62MOL   H10819750   7.540   6.100   8.265  0.5205 -0.1854 -1.3791
   62MOL   H10919751   7.514   6.266   8.070 -2.4358  1.8455 -3.2297
   62MOL   H11019752   7.386   6.184   7.874 -0.4980  1.3391  0.9466
   62MOL   H11119753   7.269   5.983   7.870 -0.5490 -0.4758  0.9965
   62MOL   H11219754   7.417   5.677   8.021  0.5223 -3.9442 -1.3718
   62MOL   H11319755   7.312   5.693   7.882 -0.7747 -1.3313  0.2193
   62MOL   C11419756   7.259   5.523   8.011  0.3669  0.1398  0.5020
   62MOL   C11519757   7.212   5.492   8.160  0.7782  0.0469 -1.0005
   62MOL   C11619758   7.082   5.460   8.205  0.7830  0.6224 -0.2702
   62MOL  Cl11719759   6.949   5.441   8.085 -0.3801 -0.0754  0.4281
   62MOL   C11819760   7.061   5.439   8.341 -0.1610 -0.1589  0.4116
   62MOL   C11919761   7.164   5.453   0.015  0.4355 -0.0497  1.2228
   62MOL   C12019762   7.289   5.501   8.396 -1.1336  0.4906  0.0465
   62MOL   C12119763   7.317   5.510   8.260  0.1596  0.1150  0.1282
   62MOL   C12219764   7.369   5.425   7.971  0.1181 -0.8144  0.9982
   62MOL   H12319765   7.167   5.509   7.954  0.2288  0.8440  0.5432
   62MOL   H12419766   6.963   5.405   8.373 -0.0518 -2.6463 -1.7610
   62MOL   H12519767   7.142   5.435   0.119 -1.6919  2.1252  1.1981
   62MOL   H12619768   7.371   5.513   0.044 -0.3384  1.8687 -1.1056
   62MOL   H12719769   7.420   5.530   8.237  0.4539 -1.3055  0.1753
   62MOL   H12819770   7.335   5.324   7.997 -1.2642 -0.4374  0.7065
   62MOL   H12919771   7.460   5.439   8.029  1.4611 -2.8090 -0.5637
   62MOL   C13019772   7.398   5.437   7.821  0.2148 -0.5160 -0.3689
   62MOL   C13119773   7.292   5.376   7.733 -0.1429  0.5281  0.5332
   62MOL   C13219774   7.226   5.449   7.631  0.4588  0.0973  0.4796
   62MOL  Cl13319775   7.248   5.628   7.608 -0.2742 -0.1519  0.4698
   62MOL   C13419776   7.129   5.385   7.549 -0.3985 -0.0020  0.8012
   62MOL   C13519777   7.113   5.247   7.554 -0.7259  0.6801 -0.0756
   62MOL   C13619778   7.175   5.173   7.649  0.1104 -0.3931  0.0908
   62MOL   C13719779   7.264   5.237   7.743 -0.1118 -0.3383  0.2986
   62MOL   C13819780   7.535   5.370   7.776  1.0341 -0.1377  0.4479
   62MOL   H13919781   7.420   5.539   7.790 -1.2681 -0.0718  0.0381
   62MOL   H14019782   7.076   5.441   7.473 -0.6696 -1.4228 -0.0679
   62MOL   H14119783   7.048   5.189   7.490  0.2793 -1.9368  1.1995
   62MOL   H14219784   7.154   5.067   7.655 -0.1025 -0.3734 -0.3333
   62MOL   H14319785   7.316   5.183   7.821 -0.3209 -2.9111 -1.2752
   62MOL   H14419786   7.536   5.382   7.667 -0.9058  1.8461  0.6392
   62MOL   H14519787   7.521   5.263   7.793  2.2705 -0.3212  0.3810
   62MOL   C14619788   7.666   5.415   7.843 -0.0371 -0.4294  0.6024
   62MOL   C14719789   7.670   5.570   7.856  0.2753 -0.3790  0.1832
   62MOL   C14819790   7.695   5.642   7.977 -0.6960 -0.3667 -0.5349
   62MOL  Cl14919791   7.690   5.567   8.126  0.2325 -0.1829  0.2369
   62MOL   C15019792   7.693   5.783   7.978  0.2367 -0.8061 -0.5519
   62MOL   C15119793   7.683   5.855   7.864 -0.5388  0.0045  0.1742
   62MOL   C15219794   7.662   5.789   7.740  0.0872  0.1163 -0.0308
   62MOL   C15319795   7.658   5.644   7.737 -0.1591 -0.1983 -0.3582
   62MOL   C15419796   7.785   5.359   7.774  0.4052 -0.7572 -0.2545
   62MOL   H15519797   7.664   5.376   7.944 -0.4130 -0.9708  0.3910
   62MOL   H15619798   7.699   5.833   8.074  1.0967 -1.2376 -0.3811
   62MOL   H15719799   7.693   5.962   7.873 -0.7375 -0.1541  2.4891
   62MOL   H15819800   7.647   5.844   7.648  0.4106  0.3545  0.0575
   62MOL   H15919801   7.647   5.588   7.646 -1.9188  1.7996 -1.4105
   62MOL   H16019802   7.879   5.405   7.805 -0.6101  0.6875  0.7237
   62MOL   H16119803   7.785   5.376   7.666 -1.1685  1.1556  0.0294
   62MOL   C16219804   7.809   5.206   7.797  0.1399  0.1078  0.2829
   62MOL   C16319805   7.854   5.177   7.945  0.1908 -1.1392  0.4967
   62MOL   C16419806   7.764   5.113   8.034 -0.4040 -0.5752  0.9016
   62MOL  Cl16519807   7.612   5.056   7.983  0.1345 -0.0867  0.1792
   62MOL   C16619808   7.805   5.089   8.160 -0.6083 -0.4527 -0.9412
   62MOL   C16719809   7.931   5.119   8.214 -0.2222  0.2640 -0.5662
   62MOL   C16819810   8.024   5.182   8.125 -0.8029 -0.2298 -0.2342
   62MOL   C16919811   7.983   5.213   7.994  0.3747 -0.2025  0.3540
   62MOL   C17019812   7.921   5.145   7.699  0.3485  0.2108  0.6347
   62MOL   H17119813   7.719   5.149   7.775 -0.2548  0.3076  1.3755
   62MOL   H17219814   7.734   5.049   8.231  0.6307  0.6281  0.9434
   62MOL   H17319815   7.968   5.084   8.309 -0.0936  1.5858 -0.1158
   62MOL   H17419816   8.128   5.207   8.143 -0.6641 -0.3382 -0.8741
   62MOL   H17519817   8.055   5.264   7.931  1.0787 -0.7816  0.6855
   62MOL   H17619818   7.943   5.041   7.721  0.0609 -0.3994 -1.8855
   62MOL   H17719819   8.019   5.189   7.720  0.5620  0.2335 -0.3801
   62MOL   C17819820   7.890   5.136   7.548 -0.0742 -0.1828 -0.6339
   62MOL   C17919821   7.744   5.124   7.514  0.1561  0.5101 -0.2645
   62MOL   C18019822   7.672   5.222   7.441  0.2537  0.2093  0.2991
   62MOL  Cl18119823   7.753   5.366   7.386  0.3192  0.4205 -0.1938
   62MOL   C18219824   7.531   5.213   7.423 -0.4660  0.0791  0.3817
   62MOL   C18319825   7.464   5.101   7.479 -0.0724  0.2455  0.1899
   62MOL   C18419826   7.534   5.007   7.562  0.6644 -0.5131 -0.2353
   62MOL   C18519827   7.675   5.018   7.571 -0.6644  0.1160  0.1342
   62MOL   C18619828   7.968   5.023   7.481  0.9433  0.2757  0.2489
   62MOL   H18719829   7.927   5.230   7.509  0.0218  0.4747  1.0191
   62MOL   H18819830   7.466   5.282   7.371  0.2752  1.0046  0.6743
   62MOL   H18919831   7.357   5.096   7.466 -0.2406 -0.5829  1.8210
   62MOL   H19019832   7.477   4.936   7.620 -0.4015 -1.3371 -2.2289
   62MOL   H19119833   7.721   4.946   7.636  1.1177 -0.8575 -2.1341
   62MOL   H19219834   7.930   5.018   7.379  3.7574  0.1198 -0.8334
   62MOL   H19319835   7.932   4.929   7.524  0.8758  0.9661  1.7217
   62MOL   C19419836   8.118   5.023   7.482 -0.2184 -0.1536 -0.5973
   62MOL   C19519837   8.155   5.155   7.415 -0.4776 -0.0739 -0.1793
   62MOL   C19619838   8.230   5.260   7.484 -0.0827  0.0934  0.1928
   62MOL  Cl19719839   8.265   5.240   7.650 -0.2752 -0.2983  0.1767
   62MOL   C19819840   8.262   5.379   7.423 -1.1598  1.6416 -0.1688
   62MOL   C19919841   8.229   5.397   7.288  0.0793  0.1955  0.3800
   62MOL   C20019842   8.170   5.296   7.217  0.0543 -0.3361  0.9350
   62MOL   C20119843   8.128   5.177   7.276  0.4916  0.0876  0.0223
   62MOL   C20219844   8.194   4.905   7.420  0.2035  0.4104 -0.6272
   62MOL   H20319845   8.149   5.029   7.587 -1.5666 -1.0416 -0.1367
   62MOL   H20419846   8.331   5.452   7.462  2.2667 -0.9299 -1.1521
   62MOL   H20519847   8.238   5.494   7.241  0.1218 -0.1744 -0.3803
   62MOL   H20619848   8.141   5.318   7.116 -2.3842  2.1290  2.1153
   62MOL   H20719849   8.082   5.106   7.209 -0.6723  2.3875 -1.6764
   62MOL   H20819850   8.300   4.926   7.436  0.0494  0.7203  0.0045
   62MOL   H20919851   8.169   4.920   7.315  1.2602  0.6121 -0.8660
   62MOL   C21019852   8.147   4.763   7.474  0.7814 -0.4346  0.1915
   62MOL   C21119853   8.164   4.757   7.624  0.3741 -0.4488  0.0304
   62MOL   C21219854   8.052   4.732   7.707 -0.3920  0.2935  0.1337
   62MOL  Cl21319855   7.892   4.689   7.641 -0.0750 -0.1266  0.7494
   62MOL   C21419856   8.064   4.734   7.845 -0.0745  0.3396 -0.1566
   62MOL   C21519857   8.194   4.765   7.901 -0.2505 -0.4103 -0.7707
   62MOL   C21619858   8.307   4.771   7.819 -0.2742 -0.1204 -0.0517
   62MOL   C21719859   8.296   4.764   7.678  0.8178  0.9828 -0.1193
   62MOL   C21819860   8.214   4.649   7.409  0.7702 -0.8454  0.0242
   62MOL   H21919861   8.042   4.748   7.452 -0.0592  1.5618  2.5966
   62MOL   H22019862   7.972   4.736   7.902 -1.7069 -0.0784 -2.6860
   62MOL   H22119863   8.204   4.795   8.004  1.6287  0.9168 -1.3138
   62MOL   H22219864   8.400   4.798   7.865  0.9542  0.5449 -2.7988
   62MOL   H22319865   8.389   4.767   7.623  0.7498  1.0510 -0.2343
   62MOL   H22419866   8.251   4.584   7.488  1.0733  0.6131  1.0820
   62MOL   H22519867   8.298   4.686   7.349  1.2976 -1.0493  0.6323
   62MOL   C22619868   8.127   4.576   7.307 -0.0132  0.5769  0.5188
   62MOL   C22719869   8.026   4.473   7.361 -0.4065 -0.4129 -0.1750
   62MOL   C22819870   7.897   4.458   7.297  0.3070  0.3582  0.0415
   62MOL  Cl22919871   7.877   4.495   7.128 -0.5985  0.3080 -0.0070
   62MOL   C23019872   7.800   4.377   7.362  0.1657  0.2343  0.4940
   62MOL   C23119873   7.822   4.322   7.483 -0.1727  0.3069 -0.4509
   62MOL   C23219874   7.945   4.333   7.546  0.1360  0.3725  0.1102
   62MOL   C23319875   8.052   4.404   7.483 -0.2824 -0.1408 -0.4048
   62MOL   C23419876   8.219   4.505   7.203  0.0599 -0.2765 -0.3739
   62MOL   H23519877   8.081   4.650   7.242 -0.1710  0.2434  0.2423
   62MOL   H23619878   7.703   4.360   7.316  0.7728 -1.2501 -0.2974
   62MOL   H23719879   7.743   4.263   7.528 -0.3529  1.1456  0.3597
   62MOL   H23819880   7.957   4.278   7.638 -1.3688  2.0806  1.3447
   62MOL   H23919881   8.150   4.388   7.525 -0.3814 -1.5184 -0.6806
   62MOL   H24019882   8.148   4.444   7.146 -1.7521 -0.0159  1.5318
   62MOL   H24119883   8.282   4.427   7.245  0.9043 -0.0817 -1.2485
   62MOL   C24219884   8.317   4.586   7.112  0.5921  0.2309  0.0529
   62MOL   C24319885   8.268   4.716   7.045  0.0519 -0.6945  0.1772
   62MOL   C24419886   8.348   4.838   7.064  0.5997 -0.2803  0.2391
   62MOL  Cl24519887   0.066   4.847   7.165 -0.0643 -0.6588  0.2220
   62MOL   C24619888   8.298   4.949   6.995 -0.1160  0.0612 -0.0087
   62MOL   C24719889   8.180   4.945   6.922  0.0982  0.3739  0.4690
   62MOL   C24819890   8.109   4.825   6.899  0.1403 -0.4327 -0.9399
   62MOL   C24919891   8.153   4.708   6.966  0.6293 -0.9275  1.1351
   62MOL   C25019892   8.371   4.494   6.993  0.3406 -0.4150  0.7079
   62MOL   H25119893   8.411   4.602   7.163  0.2851  3.4222 -0.2720
   62MOL   H25219894   8.364   5.035   6.988  0.4315 -0.3962 -0.4650
   62MOL   H25319895   8.139   5.022   6.858 -1.0772 -1.0703 -0.5687
   62MOL   H25419896   8.029   4.819   6.827 -0.6515  1.3931 -0.2398
   62MOL   H25519897   8.108   4.612   6.946 -0.7170 -0.1881  0.5585
   62MOL   H25619898   8.418   4.559   6.919  0.8393  1.3360  2.5184
   62MOL   H25719899   8.281   4.449   6.950  0.2117  0.0529  0.4930
   62MOL   C25819900   0.047   4.389   7.043  0.0338 -0.5814  0.6511
   62MOL   C25919901   0.177   4.459   7.080 -0.9725 -0.5770 -0.0794
   62MOL   C26019902   0.216   4.459   7.214 -0.5878 -0.2723 -0.1409
   62MOL  Cl26119903   0.122   4.395   7.348 -0.1133 -0.2970 -0.0564
   62MOL   C26219904   0.329   4.534   7.253  0.7725  0.3558 -0.4811
   62MOL   C26319905   0.411   4.601   7.160  0.7807 -0.0832  0.8179
   62MOL   C26419906   0.366   4.603   7.026 -0.4076  0.6344 -0.1295
   62MOL   C26519907   0.260   4.525   6.987  0.2667  0.2377 -0.5639
   62MOL   C26619908   0.064   4.281   6.937  0.0767 -0.6763 -0.3057
   62MOL   H26719909   0.002   4.338   7.128 -1.6671 -0.0669  0.0940
   62MOL   H26819910   0.362   4.544   7.355  1.5684  0.6855 -0.7655
   62MOL   H26919911   0.491   4.657   7.207  1.3185  0.5289 -0.7663
   62MOL   H27019912   0.424   4.646   6.945 -1.3586 -0.4829 -1.4172
   62MOL   H27119913   0.228   4.527   6.884 -0.9361 -0.3954 -0.2087
   62MOL   H27219914   0.149   4.217   6.963 -0.4104 -0.8069  1.0190
   62MOL   H27319915   0.096   4.327   6.844 -2.2706  0.2841 -0.6679
   62MOL   C27419916   8.360   4.187   6.916 -0.0158 -0.5261 -0.9239
   62MOL   C27519917   8.272   4.164   7.034 -0.1816 -0.0800 -0.1846
   62MOL   C27619918   8.135   4.208   7.049  0.6310 -0.2988  0.3688
   62MOL  Cl27719919   8.048   4.294   6.920 -0.1348 -0.0633 -0.7029
   62MOL   C27819920   8.058   4.162   7.157  0.1432 -0.5753  0.6545
   62MOL   C27919921   8.118   4.092   7.262  0.2660  0.6702  0.1877
   62MOL   C28019922   8.255   4.050   7.249 -0.0018 -0.0091 -0.3410
   62MOL   C28119923   8.328   4.089   7.139 -0.0963 -0.5258  0.4891
   62MOL   C28219924   8.403   4.054   6.843 -0.0227 -0.6638  0.0351
   62MOL   H28319925   8.290   4.239   6.851 -0.9543 -3.2127 -2.1156
   62MOL   H28419926   7.955   4.192   7.169 -0.2338 -1.9708  1.0354
   62MOL   H28519927   8.058   4.050   7.341  1.5362 -1.7390 -0.0897
   62MOL   H28619928   8.291   3.986   7.329 -0.1205 -0.4365 -0.6273
   62MOL   H28719929   0.010   4.059   7.122 -0.2038  0.4837 -2.1360
   62MOL   H28819930   0.060   4.004   6.901 -1.0358 -1.1344  0.9948
   62MOL   H28919931   0.042   4.094   6.761  1.3561  1.4158  1.9513
   62MOL   C29019932   8.292   3.957   6.793 -0.0150  0.8877  0.3394
   62MOL   C29119933   8.366   3.827   6.742  0.7380 -0.2438 -0.0497
   62MOL   C29219934   8.320   3.697   6.782  0.3579  0.3372 -0.7838
   62MOL  Cl29319935   8.174   3.680   6.871  0.3404 -0.3660 -0.1090
   62MOL   C29419936   8.392   3.585   6.727  0.3056  0.7437 -0.3268
   62MOL   C29519937   0.079   3.595   6.640  0.2360 -0.1004 -0.1202
   62MOL   C29619938   0.125   3.721   6.612  0.2488  0.0031  0.2732
   62MOL   C29719939   0.060   3.838   6.660  0.0285  0.2104 -0.2510
   62MOL   C29819940   8.215   4.013   6.671 -0.2300 -1.2778  0.2134
   62MOL   H29919941   8.223   3.929   6.873  0.3081 -0.8753  0.0213
   62MOL   H30019942   8.363   3.488   6.763  1.3086  0.2238 -0.9238
   62MOL   H30119943   0.148   3.522   6.600  0.5150  0.8852 -1.4680
   62MOL   H30219944   0.215   3.724   6.552 -0.0672  0.2972 -0.1912
   62MOL   H30319945   0.106   3.935   6.644 -0.0577  0.0481 -1.5243
   62MOL   H30419946   8.281   4.037   6.588 -1.3780 -0.9707 -0.6277
   62MOL   H30519947   8.184   4.110   6.711 -0.5650 -1.2862 -0.0273
   62MOL   C30619948   8.088   3.939   6.614 -0.2181 -0.2766 -0.0001
   62MOL   C30719949   8.128   3.823   6.521  0.5237  0.1646  0.1779
   62MOL   C30819950   8.056   3.700   6.540  0.1878  0.0044  0.0949
   62MOL  Cl30919951   7.927   3.676   6.645 -0.1744  0.2999 -0.1469
   62MOL   C31019952   8.086   3.589   6.455 -0.3623  0.0313 -0.8946
   62MOL   C31119953   8.190   3.594   6.364 -0.4436 -0.0884 -0.1622
   62MOL   C31219954   8.259   3.721   6.354  0.4666 -0.0930  0.7675
   62MOL   C31319955   8.225   3.841   6.421 -1.1278 -0.9621 -0.0231
   62MOL   C31419956   7.997   4.042   6.552 -0.2058  0.0534  0.0200
   62MOL   H31519957   8.023   3.899   6.692  0.1080  2.8133  1.9450
   62MOL   H31619958   8.023   3.502   6.459  0.6530 -0.7502 -1.4281
   62MOL   H31719959   8.195   3.511   6.296  2.2271  1.4580 -1.9402
   62MOL   H31819960   8.333   3.735   6.277 -1.0566  1.1436 -0.4988
   62MOL   H31919961   8.257   3.943   6.404 -0.1614 -1.4343 -1.0501
   62MOL   H32019962   8.040   4.070   6.455 -1.5725  0.6813 -0.4148
   62MOL   H32119963   7.986   4.138   6.603  1.3513 -1.2889  2.9876
   62MOL   H32219964   7.899   4.000   6.532  0.0505 -0.0044 -1.1462
   63MOL     C119965   1.335   6.766   7.403  0.0426 -0.3483 -1.1009
   63MOL     C219966   1.309   6.918   7.422 -0.4012 -0.0606 -0.4405
   63MOL     C319967   1.402   7.013   7.387 -0.4648 -0.0196  0.1025
   63MOL    Cl419968   1.555   6.969   7.314  0.1895  0.0900  0.2696
   63MOL     C519969   1.384   7.152   7.409 -0.4100 -0.2866 -0.3223
   63MOL     C619970   1.262   7.197   7.467 -0.6609 -0.2772 -0.0171
   63MOL     C719971   1.164   7.104   7.498 -0.8103 -0.7742  0.1514
   63MOL     C819972   1.189   6.961   7.484  0.3212  0.2961 -0.1941
   63MOL     C919973   1.457   6.708   7.485 -0.2164  0.2092  0.0155
   63MOL    H1019974   1.241   6.720   7.435  0.1531  0.1390 -0.0402
   63MOL    H1119975   1.462   7.220   7.377 -0.8692  1.8259  2.7716
   63MOL    H1219976   1.248   7.304   7.460 -1.9526 -0.5089 -1.1180
   63MOL    H1319977   1.067   7.138   7.531 -0.1816  1.4877 -0.2825
   63MOL    H1419978   1.103   6.899   7.506 -2.4017  3.5750 -1.0879
   63MOL    H1519979   1.431   6.732   7.588 -0.5672 -0.9860  0.2205
   63MOL    H1619980   1.551   6.761   7.475  0.1272 -0.5566 -0.8460
   63MOL    H1719981   1.348   6.738   7.299  1.5880 -0.2077 -0.9569
   63MOL    C1819982   1.492   6.560   7.471  0.2708 -1.4682 -0.2419
   63MOL    C1919983   1.371   6.474   7.473 -0.4087 -0.0252 -0.2984
   63MOL    C2019984   1.306   6.423   7.354 -0.0450 -0.6209  0.3428
   63MOL   Cl2119985   1.359   6.464   7.196  0.2706  0.2529 -0.3573
   63MOL    C2219986   1.195   6.337   7.367  0.3455  0.6631  0.0361
   63MOL    C2319987   1.152   6.296   7.494  0.1839 -0.9299 -0.6290
   63MOL    C2419988   1.213   6.346   7.612 -0.9722  0.4438  0.9364
   63MOL    C2519989   1.321   6.440   7.600 -0.0129 -0.3140  0.7179
   63MOL    C2619990   1.598   6.510   7.567 -0.5242  0.8202  0.1082
   63MOL    H2719991   1.535   6.547   7.372  0.1710 -1.7336 -0.2524
   63MOL    H2819992   1.146   6.309   7.275  2.3042  1.1004 -1.1977
   63MOL    H2919993   1.066   6.232   7.502  0.6476 -1.8736 -2.8478
   63MOL    H3019994   1.177   6.306   7.706 -1.1575 -0.2785  0.5588
   63MOL    H3119995   1.373   6.474   7.688 -1.4845  0.7772  1.1805
   63MOL    H3219996   1.573   6.409   7.599  0.2270  0.1598 -1.3473
   63MOL    H3319997   1.607   6.573   7.656  0.4365 -1.3172  1.5856
   63MOL    C3419998   1.732   6.506   7.485 -0.2206  0.2105  0.1021
   63MOL    C3519999   1.735   6.408   7.367 -0.6795  0.2519  0.4075
   63MOL    C3620000   1.788   6.446   7.241  0.1302 -0.9802  0.5121
   63MOL   Cl3720001   1.843   6.615   7.221  0.4084  0.2093  0.2063
   63MOL    C3820002   1.797   6.353   7.137  0.3818 -0.1423  0.5859
   63MOL    C3920003   1.747   6.231   7.153 -0.2134 -0.0824  0.3359
   63MOL    C4020004   1.682   6.195   7.269  0.6203 -0.4476 -0.5367
   63MOL    C4120005   1.679   6.283   7.379  0.2660  0.1586  0.8415
   63MOL    C4220006   1.865   6.502   7.568  0.0944  0.4994 -0.1706
   63MOL    H4320007   1.735   6.608   7.447 -2.2776 -0.1224 -1.0044
   63MOL    H4420008   1.831   6.386   7.040 -0.9788  1.4274  0.6074
   63MOL    H4520009   1.744   6.169   7.064  3.1333  0.0075  0.0755
   63MOL    H4620010   1.640   6.096   7.282 -0.4627  0.0388 -0.2881
   63MOL    H4720011   1.635   6.254   7.474  0.9643 -3.3954  0.1690
   63MOL    H4820012   1.879   6.596   7.622 -2.0544 -0.1343  1.5681
   63MOL    H4920013   1.937   6.490   7.488  1.3606 -2.1348  1.2817
   63MOL    C5020014   1.891   6.387   7.669  0.8237  0.2257 -0.4639
   63MOL    C5120015   1.807   6.403   7.797 -0.3049  0.2653  0.5750
   63MOL    C5220016   1.692   6.326   7.816  0.0122 -0.0422 -0.5212
   63MOL   Cl5320017   1.647   6.186   7.727 -0.0840 -0.1599 -0.1325
   63MOL    C5420018   1.601   6.379   7.914  0.3684 -0.2713  0.0520
   63MOL    C5520019   1.637   6.485   7.995 -0.4836 -0.2116  0.4107
   63MOL    C5620020   1.754   6.556   7.982 -0.2146  0.2940 -0.6485
   63MOL    C5720021   1.837   6.512   7.879  0.3827 -0.3574 -0.4639
   63MOL    C5820022   2.046   6.376   7.704 -0.3530  0.4232  0.2879
   63MOL    H5920023   1.866   6.297   7.613 -1.0701  0.0200  0.6659
   63MOL    H6020024   1.503   6.336   7.925  0.1813  0.0153 -0.4960
   63MOL    H6120025   1.558   6.513   8.063 -0.4246  0.4490  0.2106
   63MOL    H6220026   1.773   6.644   8.042 -0.0819 -0.1961  0.0381
   63MOL    H6320027   1.914   6.586   7.860  0.7440 -0.8742 -1.0232
   63MOL    H6420028   2.082   6.452   7.773 -2.2212  1.8567 -0.2787
   63MOL    H6520029   2.108   6.409   7.621  2.6002  0.8858  2.6041
   63MOL    C6620030   2.093   6.229   7.733  0.3754 -0.5537 -0.2658
   63MOL    C6720031   2.052   6.187   7.872 -0.6573  0.8019  0.0738
   63MOL    C6820032   2.016   6.050   7.903  0.2043  0.1792  0.1891
   63MOL   Cl6920033   2.035   5.921   7.794  0.5039 -0.4473 -0.0964
   63MOL    C7020034   1.990   6.006   8.035  0.0564 -1.1217 -0.5253
   63MOL    C7120035   2.009   6.099   8.136 -0.1473 -0.3681 -0.2724
   63MOL    C7220036   2.044   6.232   8.114  0.5650  0.3430  0.1233
   63MOL    C7320037   2.066   6.269   7.979 -0.3019  0.3321 -0.4322
   63MOL    C7420038   2.242   6.207   7.714 -0.0435  0.2987  0.2428
   63MOL    H7520039   2.037   6.168   7.662  1.9420 -2.6190  0.2408
   63MOL    H7620040   1.961   5.903   8.054 -1.6306 -0.9467 -2.0193
   63MOL    H7720041   2.003   6.070   8.240 -1.9244  2.4761  0.4706
   63MOL    H7820042   2.066   6.304   8.191 -0.5312 -0.6904  1.4327
   63MOL    H7920043   2.108   6.368   7.968  2.4130 -1.0064 -2.4202
   63MOL    H8020044   2.276   6.111   7.753 -1.6595 -0.0214  0.8942
   63MOL    H8120045   2.290   6.279   7.781 -0.3298  1.0095 -0.3031
   63MOL    C8220046   2.298   6.245   7.570  0.5821 -0.4225 -0.2703
   63MOL    C8320047   2.225   6.184   7.456  0.0723  0.0951  0.6995
   63MOL    C8420048   2.184   6.259   7.340  0.2826  0.4625  0.4432
   63MOL   Cl8520049   2.226   6.420   7.303  0.1783  0.0344  0.1888
   63MOL    C8620050   2.099   6.198   7.248  0.0311 -0.2357 -0.9251
   63MOL    C8720051   2.054   6.068   7.261 -0.7638  0.5325 -0.2344
   63MOL    C8820052   2.097   5.994   7.372 -0.3210  0.3892 -0.7091
   63MOL    C8920053   2.180   6.054   7.471  0.3277 -0.7619 -0.4843
   63MOL    C9020054   2.445   6.222   7.548  0.0721 -0.3454 -0.1905
   63MOL    H9120055   2.280   6.351   7.555  1.2443 -0.0650  1.3843
   63MOL    H9220056   2.046   6.262   7.178 -0.8550  0.5207  0.4112
   63MOL    H9320057   1.978   6.033   7.193 -0.3164 -0.8311 -0.0566
   63MOL    H9420058   2.064   5.892   7.389  0.3682  0.6438  2.6411
   63MOL    H9520059   2.212   6.000   7.559 -0.3491  0.0736  0.2886
   63MOL    H9620060   2.460   6.243   7.442  1.6570  0.7497  0.2234
   63MOL    H9720061   2.462   6.116   7.567 -0.0956 -0.4315 -0.5184
   63MOL    C9820062   2.547   6.301   7.626  0.3366  0.5306 -1.1287
   63MOL    C9920063   2.553   6.456   7.587  0.5378 -0.1102  0.2590
   63MOL   C10020064   2.579   6.550   7.686  0.6609 -0.0112 -0.2767
   63MOL  Cl10120065   2.625   6.510   7.846 -0.2507  0.0507  0.0148
   63MOL   C10220066   2.562   6.690   7.653  0.0710 -0.1559  0.2475
   63MOL   C10320067   2.534   6.728   7.522  1.0806  0.3048  0.6231
   63MOL   C10420068   2.512   6.632   7.420 -0.7254 -0.4262  0.3615
   63MOL   C10520069   2.526   6.500   7.453 -0.1295 -0.2534 -0.1207
   63MOL   C10620070   2.698   6.245   7.612  0.0221 -0.5669 -0.3766
   63MOL   H10720071   2.506   6.290   7.726  2.1380  2.2762 -0.1652
   63MOL   H10820072   2.565   6.760   7.735  0.5824 -0.0903  0.1719
   63MOL   H10920073   2.525   6.834   7.503 -1.5848  0.0769  0.4184
   63MOL   H11020074   2.495   6.672   7.321 -2.7075 -2.1505 -0.0155
   63MOL   H11120075   2.510   6.428   7.375  1.6367  0.1285 -0.8503
   63MOL   H11220076   2.767   6.315   7.659  0.9259  0.1390 -2.7241
   63MOL   H11320077   2.733   6.225   7.511  1.9226  2.6310 -0.4187
   63MOL   C11420078   2.719   6.111   7.684 -0.4320 -1.0079 -0.1161
   63MOL   C11520079   2.673   6.122   7.835  0.4175 -1.1994  0.9671
   63MOL   C11620080   2.561   6.042   7.885  0.2528 -0.0053 -0.0574
   63MOL  Cl11720081   2.488   5.925   7.785  0.2483  0.0823  0.2898
   63MOL   C11820082   2.514   6.048   8.019 -0.2145 -1.0986 -0.3948
   63MOL   C11920083   2.579   6.139   8.105 -0.5065 -0.4572  0.0794
   63MOL   C12020084   2.686   6.213   8.063  0.1995 -0.0634 -0.5905
   63MOL   C12120085   2.738   6.210   7.929 -0.4280  0.3810 -0.3039
   63MOL   C12220086   2.870   6.064   7.689  0.1548 -0.1188  0.9985
   63MOL   H12320087   2.648   6.043   7.636 -1.8158 -2.7505  4.1405
   63MOL   H12420088   2.434   5.982   8.049 -0.4423  0.2896  2.3006
   63MOL   H12520089   2.535   6.151   8.203 -0.3313  0.0753  0.0968
   63MOL   H12620090   2.731   6.283   8.132  1.0804  0.0788 -1.2932
   63MOL   H12720091   2.825   6.269   7.905 -0.2709  0.2636 -0.0168
   63MOL   H12820092   2.862   5.989   7.769 -1.0530 -1.0518  0.0228
   63MOL   H12920093   2.944   6.139   7.713  0.0842  0.2480  0.0588
   63MOL   C13020094   2.928   5.996   7.565 -0.5334 -0.2526 -0.4766
   63MOL   C13120095   2.833   5.888   7.527 -0.1405 -0.3314  0.9909
   63MOL   C13220096   2.764   5.887   7.400  0.1290 -0.1468 -0.3471
   63MOL  Cl13320097   2.784   6.005   7.281  0.4732 -0.0910 -0.3104
   63MOL   C13420098   2.684   5.778   7.367 -0.1146 -0.4813  1.0661
   63MOL   C13520099   2.666   5.670   7.453 -0.4651 -0.3020  0.3737
   63MOL   C13620100   2.734   5.670   7.579  0.1054 -0.2624 -0.4257
   63MOL   C13720101   2.813   5.781   7.617 -0.1114 -0.2392 -0.7331
   63MOL   C13820102   3.068   5.946   7.575  0.2159 -0.2398  0.1069
   63MOL   H13920103   2.930   6.074   7.489  0.1091  1.6058  1.4085
   63MOL   H14020104   2.630   5.776   7.273  1.0566  1.6752  0.3180
   63MOL   H14120105   2.611   5.587   7.410 -0.6596  0.1111 -0.1783
   63MOL   H14220106   2.724   5.594   7.655 -0.6529  0.7895  0.5510
   63MOL   H14320107   2.867   5.776   7.710 -2.8029 -0.1184  0.8727
   63MOL   H14420108   3.083   5.907   7.475  2.0301 -1.9734  1.0281
   63MOL   H14520109   3.073   5.865   7.647  1.9979 -0.7590 -0.5711
   63MOL   C14620110   3.187   6.041   7.612 -0.2904  0.1699 -0.3501
   63MOL   C14720111   3.200   6.165   7.526  0.7935 -0.4997 -0.6085
   63MOL   C14820112   3.206   6.301   7.575  0.3398  0.9521 -0.4712
   63MOL  Cl14920113   3.208   6.325   7.744  0.2591  0.3430  0.2148
   63MOL   C15020114   3.220   6.414   7.493 -0.1901  0.1260 -0.1305
   63MOL   C15120115   3.231   6.392   7.354  0.1231  0.8958 -0.2242
   63MOL   C15220116   3.240   6.261   7.300 -0.4933  0.3837 -0.1380
   63MOL   C15320117   3.224   6.151   7.387  0.4819  0.7793 -0.4293
   63MOL   C15420118   3.327   5.974   7.622  0.3310 -0.0037 -0.0307
   63MOL   H15520119   3.161   6.079   7.711 -3.9448 -4.5370  0.6804
   63MOL   H15620120   3.210   6.512   7.538 -0.0320  0.3322 -0.5472
   63MOL   H15720121   3.241   6.476   7.287  0.7502  0.6897 -0.3942
   63MOL   H15820122   3.266   6.249   7.196  0.8488 -2.6705  0.5094
   63MOL   H15920123   3.221   6.051   7.349 -2.1034  1.0067 -0.9053
   63MOL   H16020124   3.405   6.049   7.612 -0.2395  0.5529 -0.3353
   63MOL   H16120125   3.331   5.917   7.529 -2.0655  0.8323 -0.6935
   63MOL   C16220126   3.346   5.886   7.741  0.7346 -0.0275 -0.1826
   63MOL   C16320127   3.408   5.962   7.860  0.4087  0.0503  0.6270
   63MOL   C16420128   3.325   5.999   7.975 -0.1439  0.5575  0.3982
   63MOL  Cl16520129   3.159   5.945   7.987 -0.1847 -0.1481  0.2442
   63MOL   C16620130   3.385   6.079   8.070  0.3033 -0.1444  0.0154
   63MOL   C16720131   3.519   6.114   8.064  0.1859  0.6835  0.1619
   63MOL   C16820132   3.603   6.061   7.967 -0.0984 -0.1851 -0.2985
   63MOL   C16920133   3.548   5.984   7.859 -0.0235 -0.5905  0.3668
   63MOL   C17020134   3.426   5.759   7.704 -0.6537  0.2876  0.4292
   63MOL   H17120135   3.250   5.845   7.773  0.3858 -1.6193 -3.0712
   63MOL   H17220136   3.324   6.115   8.152 -0.1423  2.0267 -1.2251
   63MOL   H17320137   3.555   6.178   8.143 -1.3978  2.1193 -0.2592
   63MOL   H17420138   3.709   6.078   7.979  0.0702 -0.9678 -0.6304
   63MOL   H17520139   3.605   5.948   7.774  0.6581 -0.9533  0.9712
   63MOL   H17620140   3.467   5.716   7.795 -0.3721  0.2986  0.3106
   63MOL   H17720141   3.508   5.797   7.643 -0.7261  0.9764  0.7587
   63MOL   C17820142   3.350   5.641   7.643 -0.0235 -0.5656  0.3828
   63MOL   C17920143   3.235   5.572   7.716 -0.5611 -0.0343 -0.2161
   63MOL   C18020144   3.127   5.510   7.646  0.1681  0.3810  0.3641
   63MOL  Cl18120145   3.114   5.501   7.470 -0.4936 -0.1208 -0.1447
   63MOL   C18220146   3.014   5.470   7.721 -0.3957  0.0204  0.4859
   63MOL   C18320147   3.015   5.462   7.861  0.0011 -0.1061  0.4779
   63MOL   C18420148   3.127   5.517   7.936 -0.2906 -0.0861 -0.2131
   63MOL   C18520149   3.231   5.572   7.859 -0.1124  0.4988 -0.1154
   63MOL   C18620150   3.458   5.538   7.584  0.4243 -0.1793  0.1048
   63MOL   H18720151   3.301   5.690   7.558  1.7996  1.4323  0.4193
   63MOL   H18820152   2.928   5.427   7.674 -0.4761  0.0280  0.6258
   63MOL   H18920153   2.938   5.407   7.913 -1.3679  1.1864 -0.1452
   63MOL   H19020154   3.117   5.511   8.043 -0.1344 -3.1048 -0.3041
   63MOL   H19120155   3.311   5.611   7.921  1.1887 -2.7223  0.3204
   63MOL   H19220156   3.534   5.596   7.531  1.3324 -2.7100 -1.4768
   63MOL   H19320157   3.419   5.477   7.502 -1.6923  1.0653  0.1583
   63MOL   C19420158   3.534   5.440   7.664  0.0010  0.8198  0.1689
   63MOL   C19520159   3.685   5.445   7.635 -0.0726  0.1971  0.2258
   63MOL   C19620160   3.787   5.493   7.724 -0.2520 -0.6353  0.1539
   63MOL  Cl19720161   3.747   5.555   7.875 -0.0387  0.3034 -0.0259
   63MOL   C19820162   3.927   5.484   7.697  0.1105 -0.6825  0.3789
   63MOL   C19920163   3.970   5.417   7.586  0.4726  0.1804 -0.3618
   63MOL   C20020164   3.874   5.376   7.493  0.2048  0.5181 -0.3058
   63MOL   C20120165   3.739   5.389   7.518  0.3791 -0.1562 -0.6844
   63MOL   C20220166   3.463   5.300   7.657  0.0590 -0.1470 -0.1459
   63MOL   H20320167   3.524   5.471   7.768 -0.4865  1.5833 -0.1020
   63MOL   H20420168   4.000   5.529   7.764 -1.5710  1.1677  1.0345
   63MOL   H20520169   4.077   5.413   7.572  0.1828 -1.8267 -2.2525
   63MOL   H20620170   3.911   5.334   7.400 -1.4110  0.5259 -0.9758
   63MOL   H20720171   3.667   5.351   7.448 -2.8930  2.0108  1.3797
   63MOL   H20820172   3.448   5.272   7.552 -0.8274 -0.6373  0.1106
   63MOL   H20920173   3.361   5.318   7.689 -0.2731  0.2371 -1.3937
   63MOL   C21020174   3.519   5.177   7.730 -0.5574 -0.3761 -0.1544
   63MOL   C21120175   3.437   5.051   7.706 -0.1669  0.3559 -0.3103
   63MOL   C21220176   3.500   4.941   7.636 -0.0279  0.4725  0.3413
   63MOL  Cl21320177   3.662   4.950   7.566  0.1119  0.3946 -0.3479
   63MOL   C21420178   3.416   4.829   7.609  0.2363 -0.4781 -0.5095
   63MOL   C21520179   3.284   4.822   7.659 -0.2143 -0.2730  1.0012
   63MOL   C21620180   3.231   4.931   7.733 -0.2673  0.4995 -0.0742
   63MOL   C21720181   3.310   5.042   7.763 -0.6252 -0.0207  0.0705
   63MOL   C21820182   3.538   5.207   7.882  0.3573  0.8754  0.0410
   63MOL   H21920183   3.617   5.161   7.686 -0.4881 -2.1860  0.6167
   63MOL   H22020184   3.439   4.745   7.545  0.6789  0.2773 -1.3458
   63MOL   H22120185   3.217   4.741   7.633  0.4100 -0.2920 -0.5970
   63MOL   H22220186   3.138   4.921   7.787  0.9112 -0.4456  1.7925
   63MOL   H22320187   3.266   5.109   7.836 -0.1098  0.7408 -0.3174
   63MOL   H22420188   3.439   5.203   7.929  0.4234 -0.0016  0.1168
   63MOL   H22520189   3.570   5.311   7.894  0.2956  0.7489  1.4499
   63MOL   C22620190   3.645   5.120   7.958 -0.4244 -0.5152 -0.1864
   63MOL   C22720191   3.650   5.125   8.109 -0.0477  0.6639 -0.1314
   63MOL   C22820192   3.639   5.015   8.198 -0.5619 -0.2094  0.5380
   63MOL  Cl22920193   3.598   4.858   8.147  0.0632  0.3715 -0.3387
   63MOL   C23020194   3.642   5.030   8.334 -0.2450  1.3882  0.2363
   63MOL   C23120195   3.658   5.158   8.390  0.4184 -0.1171 -0.9002
   63MOL   C23220196   3.683   5.263   8.308  0.1941 -0.2017 -0.1645
   63MOL   C23320197   3.680   5.249   8.164  0.0553  0.4973  0.4659
   63MOL   C23420198   3.789   5.140   7.900  0.7071 -0.7565  0.6066
   63MOL   H23520199   3.630   5.018   7.921  0.4998 -0.3390 -1.0602
   63MOL   H23620200   3.623   4.955   8.410 -0.4339  1.4703  0.2691
   63MOL   H23720201   3.648   5.181   0.075  0.0727  0.6913 -1.1078
   63MOL   H23820202   3.704   5.362   8.348 -0.5153  0.1022 -0.5360
   63MOL   H23920203   3.700   5.335   8.101 -0.4380  0.6258  0.4839
   63MOL   H24020204   3.825   5.241   7.922  0.9177 -0.9725  1.2604
   63MOL   H24120205   3.786   5.133   7.791  1.0279  1.0189  0.4641
   63MOL   C24220206   3.901   5.051   7.953 -0.4354 -0.0581  0.3538
   63MOL   C24320207   4.037   5.108   7.914 -0.7250 -0.0065 -0.1430
   63MOL   C24420208   4.125   5.163   8.015  0.1189  0.7152  0.7364
   63MOL  Cl24520209   4.080   5.165   8.184 -0.2355 -0.0958 -0.0846
   63MOL   C24620210   4.257   5.209   7.981  0.3311 -0.2348 -0.1446
   63MOL   C24720211   4.295   5.206   7.851  0.1788 -0.0011 -0.0739
   63MOL   C24820212   4.208   5.160   7.748  0.2305  0.5758 -0.6235
   63MOL   C24920213   4.074   5.117   7.781 -0.2307  0.5900  0.3029
   63MOL   C25020214   3.906   4.907   7.910  0.1393 -0.1908  0.1023
   63MOL   H25120215   3.902   5.051   8.062  2.3224  0.3936  0.3838
   63MOL   H25220216   4.320   5.246   8.061 -1.4178  0.0876  1.1193
   63MOL   H25320217   4.391   5.245   7.821 -0.0075 -0.6941 -1.6401
   63MOL   H25420218   4.237   5.154   7.644  0.8343 -0.7360 -0.3919
   63MOL   H25520219   4.009   5.092   7.699 -2.1863  1.9915  1.3810
   63MOL   H25620220   3.904   4.896   7.801 -1.5968  0.4234  0.0574
   63MOL   H25720221   3.805   4.873   7.937 -0.7465 -1.3842 -4.2194
   63MOL   C25820222   4.006   4.810   7.977  0.2952  0.3073  0.7177
   63MOL   C25920223   4.020   4.679   7.895 -0.4993 -0.3171  0.1338
   63MOL   C26020224   4.110   4.674   7.786  0.2561 -0.0064  0.1657
   63MOL  Cl26120225   4.228   4.798   7.765 -0.0078  0.4418  0.3385
   63MOL   C26220226   4.109   4.561   7.699  0.7135  0.7345 -0.2337
   63MOL   C26320227   4.029   4.445   7.713  0.6738 -0.4148  0.3516
   63MOL   C26420228   3.950   4.444   7.833  0.2451 -0.4336  0.5148
   63MOL   C26520229   3.947   4.558   7.922 -0.7469  0.5025 -0.3727
   63MOL   C26620230   3.980   4.783   8.131 -0.5638  0.4194  0.0025
   63MOL   H26720231   4.101   4.864   7.981  0.7269 -0.1511 -2.2750
   63MOL   H26820232   4.189   4.558   7.627 -0.2501  1.7772 -1.3580
   63MOL   H26920233   4.037   4.358   7.650 -0.7447 -0.4354  0.1792
   63MOL   H27020234   3.894   4.357   7.866 -0.1754 -0.5157 -0.4081
   63MOL   H27120235   3.884   4.556   8.011  1.4638 -1.8298  1.2067
   63MOL   H27220236   3.908   4.707   8.161  0.5321 -0.8641 -0.5411
   63MOL   H27320237   3.937   4.867   8.186 -0.9809 -0.4351  1.0000
   63MOL   C27420238   4.106   4.754   8.217  0.5434  0.2667 -0.5924
   63MOL   C27520239   4.177   4.625   8.172 -0.0371 -0.4670  0.0645
   63MOL   C27620240   4.312   4.629   8.126 -0.1493 -0.9102  0.6101
   63MOL  Cl27720241   4.405   4.776   8.127 -0.1065 -0.1615 -0.1500
   63MOL   C27820242   4.379   4.511   8.094  0.1973 -0.6518  0.1207
   63MOL   C27920243   4.315   4.387   8.105 -0.0048 -0.0712 -0.0160
   63MOL   C28020244   4.183   4.379   8.150 -0.8367  0.2179  0.8594
   63MOL   C28120245   4.120   4.501   8.185  0.0970  0.2044 -0.1148
   63MOL   C28220246   4.080   4.754   8.370 -0.3178 -0.7947 -0.9090
   63MOL   H28320247   4.155   4.846   8.185 -2.2029  2.0814  0.2692
   63MOL   H28420248   4.483   4.509   8.063 -0.3252 -1.6959 -1.6372
   63MOL   H28520249   4.362   4.292   8.083 -1.6523 -0.9379  0.1285
   63MOL   H28620250   4.128   4.289   8.173  0.7514 -0.5274  1.8208
   63MOL   H28720251   4.023   4.494   8.232 -0.6102  1.0150 -1.4370
   63MOL   H28820252   4.064   4.653   8.407  3.0325 -0.6578  1.1639
   63MOL   H28920253   3.994   4.815   8.398  0.4448 -0.4666  0.7742
   63MOL   C29020254   4.195   4.808   0.035 -0.2483 -0.3527  0.3455
   63MOL   C29120255   4.210   4.748   0.178 -0.2400 -0.0555 -0.3385
   63MOL   C29220256   4.116   4.781   0.280 -0.1248  0.7066  0.2517
   63MOL  Cl29320257   3.980   4.879   0.253 -0.0848 -0.4446 -0.2042
   63MOL   C29420258   4.133   4.735   0.411 -0.5375  0.2296  0.8377
   63MOL   C29520259   4.243   4.654   0.439  0.0468 -0.7547  0.1192
   63MOL   C29620260   4.337   4.623   0.342  0.5112 -0.2460 -0.2242
   63MOL   C29720261   4.319   4.665   0.209 -0.8019  0.2295 -0.9122
   63MOL   C29820262   4.218   4.958   0.027 -0.0985  0.3819 -0.4079
   63MOL   H29920263   4.285   4.773   8.404 -0.3974 -1.2203  0.6725
   63MOL   H30020264   4.063   4.761   0.489  0.2926  0.4136  1.5313
   63MOL   H30120265   4.259   4.612   0.537  0.8466 -0.9441 -0.0893
   63MOL   H30220266   4.420   4.558   0.363 -0.0030 -1.6660 -2.4679
   63MOL   H30320267   4.389   4.631   0.133 -0.5750 -0.3287 -0.4583
   63MOL   H30420268   4.126   5.010   0.050 -0.4319 -0.0840 -0.6772
   63MOL   H30520269   4.230   4.976   8.341 -2.3526 -0.9047 -0.9109
   63MOL   C30620270   4.336   5.027   0.099  0.0779  0.2858  0.1545
   63MOL   C30720271   4.343   5.180   0.074  0.4495  1.0663 -0.8717
   63MOL   C30820272   4.319   5.271   0.181 -0.0145 -0.4817  0.0948
   63MOL  Cl30920273   4.264   5.233   0.338 -0.0809 -0.2368 -0.0122
   63MOL   C31020274   4.332   5.409   0.150  0.1514  0.3942 -0.0344
   63MOL   C31120275   4.350   5.456   0.023  0.3524  0.1083  0.0284
   63MOL   C31220276   4.370   5.370   8.335 -0.7271  0.7580 -0.2916
   63MOL   C31320277   4.371   5.227   8.363  0.0984  0.5360  0.4430
   63MOL   C31420278   4.466   4.963   0.048  0.0057 -0.0706 -0.3133
   63MOL   H31520279   4.328   5.001   0.205 -0.7082  2.6416  0.6983
   63MOL   H31620280   4.312   5.477   0.232 -0.7072 -0.3188  0.3548
   63MOL   H31720281   4.362   5.561   8.420  2.9812 -0.8033 -3.0959
   63MOL   H31820282   4.393   5.408   8.236  0.6838 -1.2513 -0.7594
   63MOL   H31920283   4.388   5.164   8.277 -0.2631  0.0600  0.7230
   63MOL   H32020284   4.553   4.979   0.113 -0.0197  2.4236 -0.8417
   63MOL   H32120285   4.498   4.988   8.367  1.6312  1.3607  0.5168
   63MOL   H32220286   4.464   4.854   0.048  1.8315 -0.1263 -0.3423
   64MOL     C120287   0.330   3.516   4.734  0.3943 -0.2207 -0.0333
   64MOL     C220288   0.226   3.580   4.834 -0.7668  0.1638 -0.5961
   64MOL     C320289   0.263   3.654   4.952 -0.1676 -0.6629 -0.1550
   64MOL    Cl420290   0.427   3.658   5.004 -0.2708 -0.0461 -0.5254
   64MOL     C520291   0.168   3.729   5.028 -0.2228  0.3685 -0.1898
   64MOL     C620292   0.039   3.718   4.995  0.2745 -0.0323 -0.4321
   64MOL     C720293   8.417   3.648   4.882 -0.3529 -0.1657 -0.0554
   64MOL     C820294   0.088   3.577   4.801 -1.2047 -0.3767  0.3274
   64MOL     C920295   0.359   3.370   4.775  0.2482 -0.1199  0.2096
   64MOL    H1020296   0.298   3.515   4.630 -0.6350  0.0712  0.2655
   64MOL    H1120297   0.200   3.787   5.113  0.1836  2.4722 -1.7425
   64MOL    H1220298   8.376   3.759   5.051 -1.1742 -1.4127 -1.5589
   64MOL    H1320299   8.313   3.640   4.853 -0.3363  1.2641 -0.5541
   64MOL    H1420300   0.049   3.517   4.720  1.0247 -1.7609  0.2632
   64MOL    H1520301   0.261   3.323   4.780 -0.8366  2.1344  0.9477
   64MOL    H1620302   0.393   3.373   4.878  2.1790  0.1604 -0.4026
   64MOL    H1720303   0.418   3.579   4.741 -0.0592  0.5208 -0.8767
   64MOL    C1820304   0.459   3.293   4.685 -0.5856 -0.1888  0.0663
   64MOL    C1920305   0.395   3.234   4.561  0.1857 -0.2766  1.0046
   64MOL    C2020306   0.413   3.299   4.436 -0.3277 -0.0523  0.5842
   64MOL   Cl2120307   0.520   3.433   4.412  0.0622  0.1457  0.2923
   64MOL    C2220308   0.335   3.260   4.328 -0.4816  0.0476 -0.0016
   64MOL    C2320309   0.258   3.144   4.331  0.8678 -0.5043  0.4173
   64MOL    C2420310   0.261   3.060   4.449  0.5768  0.4625  0.2584
   64MOL    C2520311   0.320   3.115   4.563 -0.6033  0.5767  0.3022
   64MOL    C2620312   0.520   3.182   4.773 -0.2167  0.2350  0.3123
   64MOL    H2720313   0.538   3.360   4.651 -0.1760 -0.4182  0.5636
   64MOL    H2820314   0.343   3.322   4.239 -0.8279  0.7134  0.4278
   64MOL    H2920315   0.194   3.113   4.249 -0.2177 -0.2974  1.1830
   64MOL    H3020316   0.213   2.963   4.442  0.3384  0.4866  1.5091
   64MOL    H3120317   0.300   3.066   4.658 -2.9718  1.8935  0.5276
   64MOL    H3220318   0.554   3.093   4.719  1.3495  1.9909 -1.6992
   64MOL    H3320319   0.448   3.152   4.849 -2.9465  2.4814 -1.3163
   64MOL    C3420320   0.662   3.221   4.832  0.2362  0.3237  0.2087
   64MOL    C3520321   0.767   3.240   4.721  0.2483 -0.2759 -0.0798
   64MOL    C3620322   0.820   3.364   4.677  0.0657  0.1775 -0.2669
   64MOL   Cl3720323   0.765   3.508   4.744  0.1359  0.1476  0.2999
   64MOL    C3820324   0.906   3.372   4.563 -0.5586 -0.7874 -0.0495
   64MOL    C3920325   0.947   3.253   4.506 -0.4447 -0.8756 -0.0652
   64MOL    C4020326   0.910   3.125   4.555  1.3566 -0.0513 -0.8319
   64MOL    C4120327   0.822   3.123   4.662 -0.3956  0.0654  0.7065
   64MOL    C4220328   0.717   3.124   4.941 -0.1354  1.0144 -0.5248
   64MOL    H4320329   0.655   3.313   4.890  0.3566 -1.3248  2.9437
   64MOL    H4420330   0.946   3.461   4.516  1.9361 -2.0483 -0.3590
   64MOL    H4520331   1.010   3.256   4.419  0.1464 -1.3375  0.3393
   64MOL    H4620332   0.932   3.040   4.491 -0.7655 -0.4616 -1.0676
   64MOL    H4720333   0.790   3.022   4.685  2.3743 -1.2190 -0.8503
   64MOL    H4820334   0.729   3.024   4.899 -0.0882  1.1373 -0.8055
   64MOL    H4920335   0.640   3.108   5.016 -1.0173  1.8714 -1.2431
   64MOL    C5020336   0.846   3.180   5.007 -0.7383  0.5148 -0.8949
   64MOL    C5120337   0.981   3.168   4.926  0.2826  0.2607  0.2076
   64MOL    C5220338   1.066   3.280   4.912 -0.1661 -0.5281 -0.9024
   64MOL   Cl5320339   1.038   3.439   4.970  0.0690 -0.0861 -0.1362
   64MOL    C5420340   1.196   3.257   4.863  0.0118 -0.3146 -0.3376
   64MOL    C5520341   1.235   3.132   4.815  0.9966 -0.2005  0.4845
   64MOL    C5620342   1.152   3.020   4.832  0.0187  0.0373 -0.1207
   64MOL    C5720343   1.023   3.039   4.888  0.6804 -0.4307 -0.0617
   64MOL    C5820344   0.880   3.128   5.152  0.0152  0.5916 -0.1119
   64MOL    H5920345   0.824   3.287   5.013  1.5028  1.0464 -1.7289
   64MOL    H6020346   1.264   3.338   4.840  1.4779 -2.0429 -2.2913
   64MOL    H6120347   1.330   3.113   4.767  0.6825 -2.3229  0.6752
   64MOL    H6220348   1.185   2.927   4.789  0.5700  0.5730 -0.8757
   64MOL    H6320349   0.957   2.954   4.896 -0.4283  0.0431 -3.1802
   64MOL    H6420350   0.976   3.168   5.183 -0.0617 -0.0849  1.0367
   64MOL    H6520351   0.891   3.020   5.144  0.2961  0.4419  1.9832
   64MOL    C6620352   0.767   3.156   5.256 -0.7717 -0.3358  0.0909
   64MOL    C6720353   0.719   3.301   5.256  0.0591  0.3472  0.1672
   64MOL    C6820354   0.580   3.331   5.242 -0.3742 -0.1452  0.7332
   64MOL   Cl6920355   0.460   3.201   5.222  0.1357 -0.1137 -0.2810
   64MOL    C7020356   0.532   3.463   5.249 -0.1644 -0.2420 -0.9056
   64MOL    C7120357   0.624   3.569   5.262 -0.2436  0.1025 -0.5718
   64MOL    C7220358   0.762   3.539   5.262  0.2485 -1.0769  0.0489
   64MOL    C7320359   0.810   3.408   5.256 -0.3738 -0.9559 -0.4198
   64MOL    C7420360   0.803   3.116   5.399  0.1987  1.0031  0.0028
   64MOL    H7520361   0.687   3.092   5.219  1.2382 -1.0463 -3.2983
   64MOL    H7620362   0.425   3.473   5.247 -0.3946 -2.3284 -0.2948
   64MOL    H7720363   0.587   3.670   5.264 -1.1966 -0.2468  1.5592
   64MOL    H7820364   0.833   3.620   5.251 -2.7684  1.2737 -3.0760
   64MOL    H7920365   0.915   3.385   5.262  0.1089  0.8175 -1.6879
   64MOL    H8020366   0.721   3.157   5.458 -0.1642  0.0624  0.1512
   64MOL    H8120367   0.903   3.153   5.425  1.5543 -1.7811 -1.0636
   64MOL    C8220368   0.807   2.964   5.419  0.3857  0.0110  0.2525
   64MOL    C8320369   0.660   2.911   5.392  0.4597 -0.5128 -0.1784
   64MOL    C8420370   0.635   2.827   5.280  0.0644  0.2285 -0.3984
   64MOL   Cl8520371   0.764   2.789   5.168 -0.3358 -0.1112 -0.3972
   64MOL    C8620372   0.508   2.771   5.267 -1.2369  0.1773 -0.2208
   64MOL    C8720373   0.408   2.807   5.361 -0.2919 -0.0214  0.3300
   64MOL    C8820374   0.431   2.896   5.464  0.2972 -0.4378 -0.6032
   64MOL    C8920375   0.559   2.941   5.487 -0.7830  0.7709  0.9304
   64MOL    C9020376   0.856   2.923   5.560  0.2629  0.3588  0.9313
   64MOL    H9120377   0.867   2.923   5.338  1.1579  2.8393 -0.6579
   64MOL    H9220378   0.483   2.700   5.190 -2.0429 -0.8073  0.9331
   64MOL    H9320379   0.310   2.765   5.345 -0.3195  0.1082  0.1514
   64MOL    H9420380   0.346   2.923   5.525  0.2649  0.5891 -1.1021
   64MOL    H9520381   0.572   2.997   5.578 -0.6355  1.4515  0.4985
   64MOL    H9620382   0.808   2.832   5.594 -0.9074  0.7211  0.2767
   64MOL    H9720383   0.816   2.989   5.637  0.2010 -0.1936  1.3765
   64MOL    C9820384   1.011   2.925   5.568  0.0711 -0.9199 -0.3418
   64MOL    C9920385   1.074   2.803   5.499 -0.2617  0.5829  0.0082
   64MOL   C10020386   1.143   2.822   5.375 -0.8684  0.0301 -0.1569
   64MOL  Cl10120387   1.154   2.974   5.283 -0.2733  0.3826 -0.5743
   64MOL   C10220388   1.206   2.712   5.312  0.2247  0.4411  0.1338
   64MOL   C10320389   1.209   2.588   5.376  0.5468 -0.2289 -0.5011
   64MOL   C10420390   1.133   2.571   5.492 -0.0688 -0.0930  0.1237
   64MOL   C10520391   1.073   2.679   5.557  0.1023  0.1196  0.1725
   64MOL   C10620392   1.054   2.935   5.716  0.2740 -0.2821 -0.4788
   64MOL   H10720393   1.043   3.013   5.514 -0.6524  0.0770  0.8236
   64MOL   H10820394   1.257   2.721   5.217  2.0866  2.1645  1.2557
   64MOL   H10920395   1.264   2.508   5.329 -0.5647  0.2476 -2.7032
   64MOL   H11020396   1.137   2.479   5.549  1.1035  0.3451  0.7887
   64MOL   H11120397   1.023   2.664   5.652 -0.1792 -0.1202 -0.0111
   64MOL   H11220398   1.050   2.838   5.766 -2.9273 -0.5008 -1.0462
   64MOL   H11320399   0.981   2.991   5.774  1.1422 -0.2727  0.6386
   64MOL   C11420400   1.197   3.007   5.733 -0.9196  0.1844 -0.2113
   64MOL   C11520401   1.313   2.920   5.685  0.1570 -0.1912  0.2911
   64MOL   C11620402   1.405   2.964   5.591  1.1606 -0.2839 -0.5234
   64MOL  Cl11720403   1.393   3.109   5.500 -0.2232 -0.3874 -0.1638
   64MOL   C11820404   1.521   2.890   5.567 -0.3271 -0.8633 -0.0675
   64MOL   C11920405   1.545   2.766   5.633  0.8118  0.3924  0.6655
   64MOL   C12020406   1.449   2.719   5.732  0.1224  0.4757  0.1187
   64MOL   C12120407   1.332   2.799   5.753 -0.3002  0.2132 -0.2529
   64MOL   C12220408   1.223   3.064   5.877 -1.0405 -0.1498  0.1400
   64MOL   H12320409   1.198   3.089   5.662  0.2089  0.1120 -0.2893
   64MOL   H12420410   1.595   2.930   5.498 -1.5018  2.7482  0.6792
   64MOL   H12520411   1.635   2.707   5.625  0.3567 -0.4802  1.7897
   64MOL   H12620412   1.462   2.627   5.787 -1.6507  0.4414  0.5236
   64MOL   H12720413   1.266   2.765   5.831  0.8885 -0.2394  0.5809
   64MOL   H12820414   1.297   2.999   5.923 -0.7372 -0.2120 -0.4272
   64MOL   H12920415   1.134   3.049   5.938  0.4549  0.5582  2.5476
   64MOL   C13020416   1.272   3.212   5.874 -0.2299 -0.0261  0.5851
   64MOL   C13120417   1.425   3.229   5.888  0.3008  1.2384  0.3489
   64MOL   C13220418   1.500   3.321   5.805  0.3216  0.3762  0.9206
   64MOL  Cl13320419   1.431   3.448   5.713  0.5720  0.0175 -0.1510
   64MOL   C13420420   1.636   3.322   5.804  0.4409 -0.6626 -0.3269
   64MOL   C13520421   1.706   3.239   5.881  0.1395 -0.4539 -0.4947
   64MOL   C13620422   1.639   3.148   5.963 -0.1833 -0.3834 -0.1309
   64MOL   C13720423   1.500   3.139   5.965 -0.1302  0.7228  0.5474
   64MOL   C13820424   1.202   3.287   5.988  0.2986 -0.2378 -0.3148
   64MOL   H13920425   1.249   3.255   5.777  2.2084  1.6003  0.6933
   64MOL   H14020426   1.684   3.393   5.739  2.8691 -0.0926  1.9913
   64MOL   H14120427   1.814   3.238   5.891  0.4325  1.8233 -2.9142
   64MOL   H14220428   1.702   3.081   6.020  0.1860  1.7887  2.1196
   64MOL   H14320429   1.460   3.062   6.029  0.3999 -0.3968 -0.4321
   64MOL   H14420430   1.253   3.380   6.012  1.0661 -1.1487  1.6318
   64MOL   H14520431   1.206   3.230   6.080  0.5837  0.9670  0.4194
   64MOL   C14620432   1.056   3.330   5.936  0.1153  0.2831  0.3002
   64MOL   C14720433   1.061   3.454   5.845 -0.6681  0.1656  0.8507
   64MOL   C14820434   1.033   3.447   5.704  0.2119 -0.7930  0.0209
   64MOL  Cl14920435   0.990   3.300   5.622 -0.1788  0.2078  0.1939
   64MOL   C15020436   1.047   3.564   5.632  0.7966 -0.3937 -0.0678
   64MOL   C15120437   1.079   3.691   5.692 -0.1841  0.3904 -0.6184
   64MOL   C15220438   1.092   3.702   5.832  0.2784  0.2376 -0.4562
   64MOL   C15320439   1.086   3.581   5.905 -0.2625  0.0329 -0.3923
   64MOL   C15420440   0.952   3.348   6.049  0.3775  0.5350 -0.5546
   64MOL   H15520441   1.010   3.254   5.872  0.0398 -0.8366  1.6605
   64MOL   H15620442   1.028   3.552   5.526  0.3787 -1.0149  0.0799
   64MOL   H15720443   1.091   3.781   5.632  1.2015 -0.2127 -1.2559
   64MOL   H15820444   1.111   3.798   5.877 -0.3050  0.5359 -0.8368
   64MOL   H15920445   1.115   3.575   6.009  0.5149 -1.4208 -0.6801
   64MOL   H16020446   0.865   3.409   6.023  0.4415  0.9637  0.2212
   64MOL   H16120447   0.999   3.415   6.121 -0.4524 -0.4822  0.9803
   64MOL   C16220448   0.896   3.220   6.127  0.1709 -0.9466  0.1125
   64MOL   C16320449   0.810   3.136   6.031 -0.5536 -0.9119  0.0535
   64MOL   C16420450   0.825   2.996   6.031  0.3918 -0.4381  0.1719
   64MOL  Cl16520451   0.957   2.922   6.124 -0.1928 -0.6082 -0.1714
   64MOL   C16620452   0.756   2.916   5.933 -0.6230 -0.5483  0.3979
   64MOL   C16720453   0.660   2.980   5.855 -0.4766 -0.3665 -1.0896
   64MOL   C16820454   0.644   3.117   5.859  0.3646  0.3519 -0.1407
   64MOL   C16920455   0.717   3.196   5.946  0.1378  0.6618 -0.4275
   64MOL   C17020456   0.818   3.279   6.250  0.3557 -0.1926  0.3269
   64MOL   H17120457   0.982   3.161   6.160  1.3052 -0.0494 -1.1993
   64MOL   H17220458   0.758   2.808   5.926 -1.9510 -0.5697  0.1841
   64MOL   H17320459   0.600   2.919   5.789 -0.2127 -2.0123  0.1536
   64MOL   H17420460   0.573   3.155   5.789  0.4907  0.8039 -0.0236
   64MOL   H17520461   0.690   3.301   5.953 -1.7009  0.1638  0.4353
   64MOL   H17620462   0.748   3.201   6.280  1.3190 -1.5623 -0.9208
   64MOL   H17720463   0.759   3.367   6.222  0.7052  0.2012  0.8157
   64MOL   C17820464   0.903   3.325   6.371  0.1959 -0.4146 -0.1611
   64MOL   C17920465   0.969   3.204   6.433 -0.2079  0.5291  0.1081
   64MOL   C18020466   1.110   3.191   6.443  0.1192 -0.3914 -0.8418
   64MOL  Cl18120467   1.219   3.314   6.381 -0.2944  0.2123  0.1691
   64MOL   C18220468   1.170   3.072   6.493 -0.3868 -0.1912  0.4844
   64MOL   C18320469   1.086   2.965   6.532 -0.3755 -0.2470 -0.4981
   64MOL   C18420470   0.946   2.977   6.524 -0.6634  0.3792 -0.1585
   64MOL   C18520471   0.892   3.097   6.474 -0.1713 -0.6141  0.7846
   64MOL   C18620472   0.816   3.404   6.474  0.3967 -0.1672  0.1308
   64MOL   H18720473   0.974   3.401   6.339 -0.2516 -0.6570 -1.7713
   64MOL   H18820474   1.277   3.063   6.505 -0.4961 -1.5105  0.5643
   64MOL   H18920475   1.137   2.874   6.559 -0.7221 -0.8663 -1.8856
   64MOL   H19020476   0.883   2.894   6.553 -0.1569 -0.7550 -2.2397
   64MOL   H19120477   0.784   3.098   6.470 -0.1745  0.8700  1.1016
   64MOL   H19220478   0.877   3.427   6.562  1.6876 -2.2079 -0.2020
   64MOL   H19320479   0.741   3.338   6.519  1.0087 -1.5105 -0.7864
   64MOL   C19420480   0.750   3.530   6.431 -0.2086 -0.4573  0.2816
   64MOL   C19520481   0.851   3.627   6.377  1.1048  0.2197 -0.3832
   64MOL   C19620482   0.826   3.698   6.259  0.1330 -0.7448  0.2452
   64MOL  Cl19720483   0.685   3.666   6.166  0.0829 -0.2937 -0.3571
   64MOL   C19820484   0.914   3.799   6.225  0.3687  0.1587  0.2776
   64MOL   C19920485   1.021   3.828   6.304 -0.2492 -1.2044  0.1736
   64MOL   C20020486   1.062   3.753   6.411 -0.0002  0.4930  0.1759
   64MOL   C20120487   0.974   3.657   6.448  0.3773  0.3973  0.1648
   64MOL   C20220488   0.661   3.592   6.537  0.3022  0.7049 -0.3962
   64MOL   H20320489   0.685   3.504   6.348  0.1248  1.2643 -0.5418
   64MOL   H20420490   0.915   3.842   6.126 -1.5816  1.1425  0.6525
   64MOL   H20520491   1.089   3.907   6.275 -0.2829  0.9364  5.4390
   64MOL   H20620492   1.160   3.777   6.449  0.9439 -1.6557 -0.8095
   64MOL   H20720493   0.988   3.609   6.544 -2.1833  0.2928  0.5298
   64MOL   H20820494   0.611   3.675   6.489 -0.1097  1.3560  1.1092
   64MOL   H20920495   0.704   3.637   6.627 -3.1556  1.0304  1.1446
   64MOL   C21020496   0.545   3.494   6.581 -0.1059  0.3732 -0.0510
   64MOL   C21120497   0.463   3.427   6.468  0.0879  0.1151 -0.8233
   64MOL   C21220498   0.446   3.289   6.457 -0.6375 -0.4310  0.5009
   64MOL  Cl21320499   0.522   3.168   6.563 -0.1106  0.0624 -0.3762
   64MOL   C21420500   0.369   3.240   6.349  0.4503 -0.1758 -0.2272
   64MOL   C21520501   0.295   3.324   6.265 -0.2807  0.4882 -0.2316
   64MOL   C21620502   0.309   3.462   6.281  0.2394  0.0534 -0.0254
   64MOL   C21720503   0.386   3.517   6.383 -0.5994 -0.0808 -0.5081
   64MOL   C21820504   0.442   3.564   6.672 -0.4448  0.3231  1.0187
   64MOL   H21920505   0.586   3.412   6.640  0.6615  1.6269  1.1886
   64MOL   H22020506   0.366   3.133   6.332  2.3544 -0.1951 -0.5174
   64MOL   H22120507   0.234   3.279   6.188 -0.5058 -2.4688  1.5905
   64MOL   H22220508   0.251   3.530   6.220 -1.8966 -0.7591  1.0174
   64MOL   H22320509   0.401   3.623   6.400  0.3717 -0.0687 -1.3497
   64MOL   H22420510   0.350   3.507   6.683  1.5556 -3.0949  0.6682
   64MOL   H22520511   0.416   3.658   6.623 -0.2925  0.5253  1.3165
   64MOL   C22620512   0.484   3.608   6.816  0.4205 -0.5439 -0.6041
   64MOL   C22720513   0.593   3.522   6.870 -0.0381 -0.1828  0.1717
   64MOL   C22820514   0.722   3.582   6.900  0.2778  0.5474  0.1432
   64MOL  Cl22920515   0.753   3.752   6.877  0.0952  0.0645  0.1639
   64MOL   C23020516   0.823   3.504   6.957  0.6243 -0.8604  0.2193
   64MOL   C23120517   0.799   3.360   6.976  0.1786 -0.9095 -0.1035
   64MOL   C23220518   0.672   3.304   6.947 -0.2625  0.0286  0.2346
   64MOL   C23320519   0.573   3.385   6.890 -0.2887 -0.3153  0.4610
   64MOL   C23420520   0.352   3.605   6.902  0.0996  0.7449  0.0508
   64MOL   H23520521   0.513   3.711   6.794 -0.0933 -0.4772 -0.9688
   64MOL   H23620522   0.916   3.554   6.980  0.7314  0.0694 -2.1230
   64MOL   H23720523   0.867   3.293   7.025  0.7748 -0.4412 -0.2764
   64MOL   H23820524   0.648   3.199   6.942 -0.7862  0.0805  1.5010
   64MOL   H23920525   0.477   3.341   6.869 -0.5715  1.2139 -1.5450
   64MOL   H24020526   0.305   3.507   6.895  0.9577  0.3131  0.2560
   64MOL   H24120527   0.279   3.671   6.855  1.0256  0.7441 -1.4199
   64MOL   C24220528   0.369   3.654   7.050 -0.3705  0.1564 -0.4724
   64MOL   C24320529   0.237   3.640   7.133  0.4145  0.0048  0.0733
   64MOL   C24420530   0.213   3.533   7.225  0.4173  0.2141 -0.1388
   64MOL  Cl24520531   0.314   3.394   7.246 -0.0119  0.1269 -0.2712
   64MOL   C24620532   0.104   3.545   7.316  0.0553  0.3757  0.1767
   64MOL   C24720533   0.013   3.652   7.301  0.2336  0.5950  0.1075
   64MOL   C24820534   0.015   3.729   7.186  0.3638  0.1305 -0.2853
   64MOL   C24920535   0.128   3.728   7.102  0.3277 -0.3927  0.2392
   64MOL   C25020536   0.431   3.795   7.058  0.3569 -0.2227  0.5732
   64MOL   H25120537   0.440   3.585   7.096  0.5923  1.0429 -0.6282
   64MOL   H25220538   0.094   3.471   7.394  0.1034 -0.2513 -0.4047
   64MOL   H25320539   8.354   3.663   7.373 -2.1362  0.5205 -2.4050
   64MOL   H25420540   8.358   3.802   7.165 -0.0803 -0.7461 -1.6905
   64MOL   H25520541   0.141   3.797   7.019  1.3518  0.5638  1.1690
   64MOL   H25620542   0.376   3.854   6.985  3.3607  0.2064 -1.4331
   64MOL   H25720543   0.535   3.785   7.027  0.1741 -0.1713 -0.0568
   64MOL   C25820544   0.426   3.870   7.198  0.2432 -0.4865  0.3631
   64MOL   C25920545   0.491   4.005   7.168  0.1014  1.1429 -0.0884
   64MOL   C26020546   0.425   4.132   7.176  0.3242  0.1480 -0.6168
   64MOL  Cl26120547   0.263   4.150   7.215  0.2786 -0.2004  0.3741
   64MOL   C26220548   0.494   4.254   7.134 -0.0758 -0.0949 -0.1109
   64MOL   C26320549   0.636   4.252   7.106 -0.5936  0.4207  0.3960
   64MOL   C26420550   0.698   4.122   7.105  0.2590  0.1199 -0.0840
   64MOL   C26520551   0.630   4.005   7.143  0.1497 -0.3916 -0.2211
   64MOL   C26620552   0.488   3.795   7.324 -0.0204  0.6198  0.2738
   64MOL   H26720553   0.323   3.890   7.229  1.3340  2.7788  2.1528
   64MOL   H26820554   0.439   4.346   7.119  2.4587  1.8373  1.8944
   64MOL   H26920555   0.686   4.344   7.082  1.9365 -1.0341 -0.0940
   64MOL   H27020556   0.802   4.109   7.080 -0.4425 -2.5096 -1.9137
   64MOL   H27120557   0.693   3.918   7.150  0.4142 -0.3672 -2.2121
   64MOL   H27220558   0.577   3.750   7.283 -1.3718 -1.5423 -0.3693
   64MOL   H27320559   0.416   3.714   7.342  1.7433 -1.1730 -0.5882
   64MOL   C27420560   0.518   3.874   7.455  0.3011 -0.6873  0.3812
   64MOL   C27520561   0.602   3.808   7.558  0.4707 -0.3205 -0.6962
   64MOL   C27620562   0.720   3.873   7.608 -0.3814 -0.5545 -0.0630
   64MOL  Cl27720563   0.807   4.010   7.541  0.1298 -0.0767 -0.2069
   64MOL   C27820564   0.780   3.828   7.727 -0.2686  0.2988 -0.0727
   64MOL   C27920565   0.730   3.713   7.787 -0.3325 -0.1003 -0.2315
   64MOL   C28020566   0.630   3.628   7.722 -0.1770 -0.0978 -0.3002
   64MOL   C28120567   0.560   3.686   7.613 -0.0194 -0.0605  0.4211
   64MOL   C28220568   0.396   3.931   7.520  0.2768  0.4708  0.2419
   64MOL   H28320569   0.569   3.959   7.410 -0.8872 -0.5581 -0.7458
   64MOL   H28420570   0.870   3.875   7.763  0.4424 -0.8109 -0.3772
   64MOL   H28520571   0.780   3.677   7.875  0.8887  1.2412 -0.3637
   64MOL   H28620572   0.611   3.535   7.774 -0.2046  0.9522  1.5851
   64MOL   H28720573   0.478   3.631   7.569  1.3450 -1.1187 -0.8494
   64MOL   H28820574   0.344   3.843   7.557  0.2195  0.2369 -0.3800
   64MOL   H28920575   0.330   3.972   7.443 -0.9750 -0.4382  0.8206
   64MOL   C29020576   0.405   4.019   7.633 -0.1884  0.3040 -1.1775
   64MOL   C29120577   0.273   4.034   7.705 -0.2658  0.6177 -0.3038
   64MOL   C29220578   0.246   3.983   7.837 -0.2835  0.2304  0.0194
   64MOL  Cl29320579   0.361   3.897   7.929 -0.0726  0.1046 -0.3972
   64MOL   C29420580   0.123   4.008   7.897 -0.0834 -0.5737 -0.3021
   64MOL   C29520581   0.023   4.083   7.834 -0.1570  0.1346  0.3385
   64MOL   C29620582   0.041   4.125   7.700 -0.4633 -0.7204  1.1556
   64MOL   C29720583   0.158   4.092   7.634 -0.4485  0.8505  0.3184
   64MOL   C29820584   0.474   4.147   7.606 -0.2232 -0.2776  0.0098
   64MOL   H29920585   0.474   3.974   7.705  0.3812 -2.2024 -3.2222
   64MOL   H30020586   0.102   3.973   7.997  0.2118  0.8629  0.2660
   64MOL   H30120587   8.354   4.108   7.889 -0.1797  0.7949  0.0075
   64MOL   H30220588   8.401   4.199   7.650  0.3315 -1.3411 -0.7751
   64MOL   H30320589   0.170   4.118   7.530 -0.6525  2.0654  0.5870
   64MOL   H30420590   0.420   4.204   7.529 -2.2582  0.3641  1.8599
   64MOL   H30520591   0.574   4.125   7.569  0.4015  0.0090  1.4798
   64MOL   C30620592   0.488   4.249   7.722 -0.0859  0.3719 -0.3613
   64MOL   C30720593   0.538   4.390   7.675 -0.0906  0.1622 -0.0278
   64MOL   C30820594   0.508   4.507   7.746  0.1225 -0.3384  0.1966
   64MOL  Cl30920595   0.400   4.511   7.876  0.1135  0.0133 -0.4295
   64MOL   C31020596   0.545   4.636   7.691 -0.2636  0.3543  0.2189
   64MOL   C31120597   0.622   4.647   7.573  1.0554 -0.8721 -0.1889
   64MOL   C31220598   0.662   4.531   7.506 -0.4489 -0.3700 -0.4195
   64MOL   C31320599   0.619   4.407   7.559  0.0879 -0.3202 -1.0467
   64MOL   C31420600   0.572   4.208   7.845  0.2865 -0.9173  1.0399
   64MOL   H31520601   0.388   4.273   7.758  0.0040 -0.1254  0.2321
   64MOL   H31620602   0.508   4.715   7.754 -0.4684 -0.0826  0.6466
   64MOL   H31720603   0.659   4.743   7.541  1.2903 -0.3351  1.6442
   64MOL   H31820604   0.726   4.523   7.419  0.5920  2.6374 -0.0001
   64MOL   H31920605   0.647   4.316   7.508 -0.4680 -0.2161 -1.5505
   64MOL   H32020606   0.676   4.210   7.812  0.7718  0.7567  2.5627
   64MOL   H32120607   0.544   4.113   7.889 -1.0391 -0.3722  1.4031
   64MOL   H32220608   0.569   4.282   7.926  0.6867 -1.5883  1.6736
   65MOL     C120609   5.095   0.726   7.896  0.2535  0.9300  0.3034
   65MOL     C220610   5.236   0.686   7.935  0.0354 -0.3156  0.1453
   65MOL     C320611   5.345   0.727   7.856  0.4171  0.4904  0.8059
   65MOL    Cl420612   5.322   0.829   7.719  0.1344  0.1895 -0.0885
   65MOL     C520613   5.473   0.675   7.877  0.1932 -0.0123  0.8318
   65MOL     C620614   5.498   0.585   7.980 -0.1958 -0.0855  0.5772
   65MOL     C720615   5.392   0.551   8.068  0.0891 -0.5619 -0.2303
   65MOL     C820616   5.261   0.600   8.043  0.2250  0.6434 -0.1219
   65MOL     C920617   5.039   0.641   7.777 -0.0937 -0.2627 -0.6158
   65MOL    H1020618   5.029   0.733   7.982 -0.9011 -1.8655 -0.2969
   65MOL    H1120619   5.552   0.697   7.807 -0.1554  0.7481  0.6621
   65MOL    H1220620   5.600   0.553   7.993  0.9645  2.0545 -2.6660
   65MOL    H1320621   5.412   0.468   8.133  0.9053 -0.8386 -0.8214
   65MOL    H1420622   5.179   0.568   8.107 -0.5815 -0.9893 -1.9381
   65MOL    H1520623   5.105   0.652   7.691 -1.4810 -0.0098 -1.6641
   65MOL    H1620624   4.941   0.678   7.745 -0.6332  1.8929  3.2768
   65MOL    H1720625   5.089   0.832   7.871  0.9881  0.5810 -1.4130
   65MOL    C1820626   5.036   0.488   7.803 -0.2252 -0.2933 -0.3684
   65MOL    C1920627   5.024   0.408   7.671 -0.5388  0.0211  0.4856
   65MOL    C2020628   5.124   0.314   7.629 -0.3242 -0.2067 -0.5805
   65MOL   Cl2120629   5.277   0.302   7.701 -0.4064  0.0789 -0.3926
   65MOL    C2220630   5.101   0.227   7.517  0.7701  0.4018  0.3072
   65MOL    C2320631   4.975   0.231   7.459  0.0642 -0.4181 -0.3539
   65MOL    C2420632   4.874   0.321   7.501  0.1332  0.1370  0.6448
   65MOL    C2520633   4.905   0.413   7.602 -0.5997 -0.3483  0.1627
   65MOL    C2620634   4.926   0.457   7.902 -0.0258 -0.3732  0.7662
   65MOL    H2720635   5.130   0.460   7.850  0.3548  2.1406 -0.0149
   65MOL    H2820636   5.184   0.165   7.489  0.4258 -0.9337  2.1007
   65MOL    H2920637   4.955   0.165   7.376  0.2459 -1.4575  0.4158
   65MOL    H3020638   4.790   0.339   7.436 -0.2574 -0.0080  1.1092
   65MOL    H3120639   4.830   0.487   7.625 -0.6976 -0.7433  1.1366
   65MOL    H3220640   4.825   0.470   7.862 -0.4643 -2.4104  1.1373
   65MOL    H3320641   4.927   0.533   7.980 -1.4011  0.5730 -0.1066
   65MOL    C3420642   4.931   0.320   7.974 -0.2807 -0.0043  0.3131
   65MOL    C3520643   4.941   0.195   7.891 -0.0136  0.6453 -0.3397
   65MOL    C3620644   5.055   0.112   7.887 -0.7540 -0.0360  0.0555
   65MOL   Cl3720645   5.198   0.149   7.977 -0.0605  0.1201 -0.3333
   65MOL    C3820646   5.058   8.411   7.819 -0.2532  0.3662 -0.2095
   65MOL    C3920647   4.942   8.373   7.742 -0.3041  0.2810 -0.5424
   65MOL    C4020648   4.828   0.036   7.734 -0.1610 -0.8372 -0.1649
   65MOL    C4120649   4.826   0.156   7.811  0.6751  0.1473 -0.1585
   65MOL    C4220650   4.809   0.313   8.071 -0.0998  0.4482 -0.2278
   65MOL    H4320651   5.024   0.324   8.031  0.8833 -0.3694 -1.4976
   65MOL    H4420652   5.145   8.347   7.826 -0.4586  0.2439  1.3449
   65MOL    H4520653   4.950   8.289   7.675 -0.7239  2.4959 -3.4585
   65MOL    H4620654   4.740   0.014   7.674  1.1543  1.6531 -3.1258
   65MOL    H4720655   4.735   0.213   7.803  0.4213 -0.1965  0.2587
   65MOL    H4820656   4.718   0.278   8.022 -0.0129 -3.4845  2.2073
   65MOL    H4920657   4.785   0.418   8.091  0.8716 -0.0547  3.9605
   65MOL    C5020658   4.828   0.251   8.211 -0.0958 -0.6660  0.0999
   65MOL    C5120659   4.876   0.103   8.210 -0.8656 -0.1301  0.7364
   65MOL    C5220660   4.797   0.002   8.148 -0.3457 -0.0593  0.3280
   65MOL   Cl5320661   4.642   0.032   8.068 -0.4520  0.4372 -0.1420
   65MOL    C5420662   4.832   8.283   8.152  0.5332 -0.0737  0.3252
   65MOL    C5520663   4.955   8.250   8.212  0.5270 -0.4363  0.2499
   65MOL    C5620664   5.033   8.343   8.279 -0.5507 -1.1527  0.0730
   65MOL    C5720665   4.997   0.060   8.271 -0.1795  0.3754 -0.0609
   65MOL    C5820666   4.717   0.276   8.312 -0.4080  0.1198  0.3708
   65MOL    H5920667   4.910   0.308   8.255  0.2953 -0.0209 -1.4161
   65MOL    H6020668   4.765   8.206   8.118 -1.0754  1.9126 -1.1597
   65MOL    H6120669   4.983   8.146   8.204  1.9182  0.1558 -5.1489
   65MOL    H6220670   5.130   8.317   8.320  0.5751 -0.5494 -2.1309
   65MOL    H6320671   5.072   0.127   8.312  0.4143  0.6384 -1.5139
   65MOL    H6420672   4.730   0.224   8.407 -1.5038  2.3388  1.7756
   65MOL    H6520673   4.628   0.227   8.274  1.4903 -1.1616 -2.5745
   65MOL    C6620674   4.682   0.422   8.360 -0.1304 -0.3405 -0.1130
   65MOL    C6720675   4.809   0.512   8.388  0.0207 -0.2377  0.5104
   65MOL    C6820676   4.834   0.638   8.324  0.4983  0.9050  0.2315
   65MOL   Cl6920677   4.712   0.705   8.218 -0.4049  0.0010 -0.2000
   65MOL    C7020678   4.953   0.707   8.353  0.2318  0.4827 -0.2420
   65MOL    C7120679   5.058   0.651   0.009  0.3267 -0.2561 -0.3203
   65MOL    C7220680   5.039   0.525   0.062 -0.7503  0.2625 -0.1661
   65MOL    C7320681   4.915   0.459   0.044 -0.3288  0.4694  0.2536
   65MOL    C7420682   4.568   0.447   0.042 -0.0220 -0.3390  0.6143
   65MOL    H7520683   4.632   0.469   8.275 -4.0083 -0.8264  1.7783
   65MOL    H7620684   4.968   0.805   8.309  1.3368 -0.0944 -1.1791
   65MOL    H7720685   5.146   0.708   0.034  1.9445 -2.5609 -0.6608
   65MOL    H7820686   5.110   0.479   0.128 -0.2729 -0.9631 -1.5210
   65MOL    H7920687   4.904   0.366   0.098 -1.0629 -0.4093 -1.3805
   65MOL    H8020688   4.564   0.556   0.055  0.7484 -0.3893  1.2312
   65MOL    H8120689   4.614   0.412   0.134 -0.5548  2.2185  1.9058
   65MOL    C8220690   4.424   0.382   0.020 -0.0135 -0.6978  0.4858
   65MOL    C8320691   4.340   0.442   8.332  0.1763 -0.2429  0.0659
   65MOL    C8420692   4.255   0.360   8.255  0.6913 -0.5532 -0.9590
   65MOL   Cl8520693   4.244   0.185   8.264 -0.0991 -0.2079 -0.0116
   65MOL    C8620694   4.181   0.417   8.153  0.5810  1.3303  0.5053
   65MOL    C8720695   4.178   0.557   8.132 -0.2955 -0.5776  0.1677
   65MOL    C8820696   4.267   0.633   8.213  0.2542  0.1481  0.5807
   65MOL    C8920697   4.348   0.581   8.309 -0.0526  0.0521 -0.8336
   65MOL    C9020698   4.356   0.403   0.155  0.1106  0.2880 -0.0811
   65MOL    H9120699   4.447   0.279   8.412 -3.2159 -0.3715 -3.6805
   65MOL    H9220700   4.127   0.351   8.087  1.7190 -1.2418  2.0738
   65MOL    H9320701   4.110   0.602   8.061 -0.4416  1.3112  1.4610
   65MOL    H9420702   4.274   0.740   8.202 -0.4156  0.1129 -0.2362
   65MOL    H9520703   4.411   0.651   8.361 -0.7587  1.3340 -1.6735
   65MOL    H9620704   4.251   0.424   0.136 -0.0134  0.4358  0.7680
   65MOL    H9720705   4.395   0.494   0.202  1.2595  0.4418 -1.2864
   65MOL    C9820706   4.372   0.289   0.258 -0.4435 -0.4675 -0.1755
   65MOL    C9920707   4.279   0.172   0.223 -0.6076 -0.0636  0.2077
   65MOL   C10020708   4.329   0.043   0.187 -0.4758 -0.3833  1.1348
   65MOL  Cl10120709   4.500   0.002   0.187  0.3280  0.0335 -0.3752
   65MOL   C10220710   4.237   8.363   0.155  0.3334 -0.2100 -0.2471
   65MOL   C10320711   4.100   8.391   0.150  0.4757  0.5605  0.7096
   65MOL   C10420712   4.049   0.094   0.184 -0.3706  0.2642  0.0857
   65MOL   C10520713   4.138   0.199   0.212 -0.5070  0.4946  0.2424
   65MOL   C10620714   4.341   0.339   0.397  0.3108  0.5243  0.0501
   65MOL   H10720715   4.475   0.254   0.250  0.0214  0.6645  0.5645
   65MOL   H10820716   4.278   8.267   0.128  2.2143  0.3167  0.7047
   65MOL   H10920717   4.027   8.317   0.121  1.0196  0.0807  0.5561
   65MOL   H11020718   3.942   0.104   0.173 -0.4587  0.3290  0.9649
   65MOL   H11120719   4.099   0.298   0.231  0.5139  0.8109  0.6981
   65MOL   H11220720   4.345   0.256   0.468  0.0019  0.7030  0.2798
   65MOL   H11320721   4.238   0.377   0.399  1.0769  2.7040 -0.1456
   65MOL   C11420722   4.422   0.448   0.463 -0.1917 -0.8305 -0.4442
   65MOL   C11520723   4.575   0.455   0.433  0.2994 -0.5375  0.3910
   65MOL   C11620724   4.641   0.559   0.360 -0.3910  0.0013  0.3262
   65MOL  Cl11720725   4.552   0.695   0.292 -0.0891  0.6568  0.0189
   65MOL   C11820726   4.779   0.551   0.336 -0.1839  0.6158  0.2182
   65MOL   C11920727   4.855   0.439   0.382 -0.1909 -0.1924 -0.1058
   65MOL   C12020728   4.793   0.340   0.460  0.2788  0.3567  0.4258
   65MOL   C12120729   4.648   0.343   0.480 -0.4607 -0.3005  0.4827
   65MOL   C12220730   4.381   0.460   0.610  0.7389  0.1351  0.6691
   65MOL   H12320731   4.396   0.542   0.414 -1.8964 -1.4614 -0.7691
   65MOL   H12420732   4.827   0.620   0.269  0.6831 -0.3033 -0.1163
   65MOL   H12520733   4.962   0.435   0.365 -0.4428  0.2788 -1.8939
   65MOL   H12620734   4.854   0.261   0.501 -1.0391 -1.8465 -1.8064
   65MOL   H12720735   4.596   0.268   0.537 -1.2970  0.0005  0.1185
   65MOL   H12820736   4.383   0.359   0.650 -1.0821 -0.1270  0.1525
   65MOL   H12920737   4.276   0.490   0.602  0.6493  0.4987  2.9547
   65MOL   C13020738   4.450   0.559   0.707 -0.2634  0.0397  0.2581
   65MOL   C13120739   4.582   0.503   0.771  0.5993  0.6114 -0.4815
   65MOL   C13220740   4.708   0.570   0.769 -0.2546 -0.2406 -0.1591
   65MOL  Cl13320741   4.736   0.716   0.689 -0.3614  0.1989  0.2349
   65MOL   C13420742   4.821   0.511   0.835 -0.3070  0.7702 -0.4659
   65MOL   C13520743   4.795   0.397   0.914  0.2221 -0.1469 -0.1845
   65MOL   C13620744   4.673   0.337   0.924  0.5272  0.2508  0.1014
   65MOL   C13720745   4.563   0.394   0.856 -0.2263  0.0722  0.3574
   65MOL   C13820746   4.362   0.608   0.820 -0.0847  0.0496 -0.3782
   65MOL   H13920747   4.477   0.642   0.642 -0.0295  1.1419  1.7477
   65MOL   H14020748   4.917   0.552   0.810  0.3176 -0.2392  0.1906
   65MOL   H14120749   4.878   0.351   0.966 -1.0156  0.5303  2.4561
   65MOL   H14220750   4.661   0.246   0.980 -0.3242  0.2873 -0.0197
   65MOL   H14320751   4.465   0.350   0.865  0.3209 -1.1849  0.2262
   65MOL   H14420752   4.419   0.624   0.912  1.4786  0.9420 -1.4849
   65MOL   H14520753   4.284   0.537   0.848 -1.2692  1.3607 -0.3332
   65MOL   C14620754   4.286   0.740   0.784 -0.0052 -0.1295 -0.2572
   65MOL   C14720755   4.385   0.861   0.750  0.7568 -0.2730  0.4774
   65MOL   C14820756   4.391   0.914   0.615  0.4229  0.0136 -0.4372
   65MOL  Cl14920757   4.298   0.835   0.484  0.2302 -0.1532  0.1336
   65MOL   C15020758   4.478   1.024   0.583  1.1973 -0.5437 -0.9476
   65MOL   C15120759   4.552   1.085   0.691 -0.4917  0.5095  0.0205
   65MOL   C15220760   4.544   1.036   0.822  0.3271 -0.1312  0.2093
   65MOL   C15320761   4.461   0.924   0.852 -0.1004 -0.3158  0.5801
   65MOL   C15420762   4.189   0.774   0.904  0.0191 -0.1784 -0.2180
   65MOL   H15520763   4.227   0.718   0.695  0.9447 -2.0196 -0.4343
   65MOL   H15620764   4.475   1.060   0.481  1.5583 -1.9495 -1.4691
   65MOL   H15720765   4.625   1.158   0.660  1.9579 -1.5841  0.7017
   65MOL   H15820766   4.599   1.079   0.904 -0.9109 -2.0528  2.0897
   65MOL   H15920767   4.451   0.880   0.950  0.5774  1.7404  1.6058
   65MOL   H16020768   4.259   0.793   0.985  0.5610  1.3157 -1.0205
   65MOL   H16120769   4.136   0.682   0.927  1.8350 -1.6252 -1.6140
   65MOL   C16220770   4.091   0.888   0.897  0.4836  0.0475  0.3776
   65MOL   C16320771   4.144   1.027   0.919 -0.4239  0.1662 -0.7083
   65MOL   C16420772   4.151   1.123   0.819  0.4189 -0.0086 -0.5259
   65MOL  Cl16520773   4.125   1.082   0.655 -0.7288  0.0744 -0.3873
   65MOL   C16620774   4.192   1.255   0.848  0.6455 -0.1117 -0.0178
   65MOL   C16720775   4.206   1.293   0.985  0.0391 -0.5443  0.3226
   65MOL   C16820776   4.212   1.197   1.087 -0.2077 -0.1085 -0.4910
   65MOL   C16920777   4.181   1.064   1.052  0.3984 -0.5767 -0.1098
   65MOL   C17020778   3.967   0.859   0.979 -0.3025 -0.1863  0.1767
   65MOL   H17120779   4.050   0.888   0.796 -2.9544 -0.0187  1.6993
   65MOL   H17220780   4.209   1.325   0.768  1.5290  0.4635  0.6655
   65MOL   H17320781   4.248   1.389   1.014  1.6141 -1.6261  1.7476
   65MOL   H17420782   4.241   1.225   1.188 -0.2810  1.6748 -0.9469
   65MOL   H17520783   4.168   0.992   1.132 -3.4048  1.5304  1.3000
   65MOL   H17620784   3.918   0.956   0.992 -0.0162  0.4448 -3.0656
   65MOL   H17720785   4.002   0.822   1.075  0.3033 -0.4888 -0.1614
   65MOL   C17820786   3.855   0.777   0.904 -0.1889 -0.5823 -0.1052
   65MOL   C17920787   3.815   0.843   0.769 -0.1838 -0.0822  0.0040
   65MOL   C18020788   3.841   0.782   0.642 -0.0646 -0.5104 -0.0178
   65MOL  Cl18120789   3.906   0.622   0.635 -0.4943  0.0947  0.0458
   65MOL   C18220790   3.806   0.850   0.526  0.2100  0.4117  0.2690
   65MOL   C18320791   3.748   0.977   0.526 -0.2613  0.6269  0.1022
   65MOL   C18420792   3.726   1.039   0.649  0.3528  0.1596 -0.1793
   65MOL   C18520793   3.759   0.974   0.766  0.2505  0.3241  0.3246
   65MOL   C18620794   3.734   0.753   0.988  0.0033 -0.0526  0.0450
   65MOL   H18720795   3.911   0.686   0.882  1.2413 -0.5080  2.9080
   65MOL   H18820796   3.821   0.801   0.431 -3.6093 -0.0624 -0.1798
   65MOL   H18920797   3.725   1.030   0.435 -1.1165 -2.4292 -1.5135
   65MOL   H19020798   3.676   1.135   0.646  0.0018 -0.0410 -0.8160
   65MOL   H19120799   3.731   1.030   0.853 -0.3571 -0.1158  0.4126
   65MOL   H19220800   3.646   0.741   0.925 -0.2180 -1.4862  0.6003
   65MOL   H19320801   3.726   0.837   1.057 -0.0679 -0.8161  0.9753
   65MOL   C19420802   3.751   0.628   1.071 -0.2276  0.1297  0.5828
   65MOL   C19520803   3.766   0.510   0.979  0.2945 -0.5569  0.7921
   65MOL   C19620804   3.882   0.429   0.973  0.3121 -0.1739 -0.4158
   65MOL  Cl19720805   4.013   0.458   1.072 -0.3484  0.0435 -0.3655
   65MOL   C19820806   3.883   0.325   0.877  0.3738  0.3631  0.2354
   65MOL   C19920807   3.779   0.296   0.784 -0.0142  0.4101 -0.2439
   65MOL   C20020808   3.664   0.369   0.796 -0.1325  0.0010 -0.4622
   65MOL   C20120809   3.657   0.475   0.888  0.4627 -0.8153 -0.5087
   65MOL   C20220810   3.641   0.610   1.177 -0.1656  0.4970 -0.2644
   65MOL   H20320811   3.845   0.643   1.122 -1.1524  1.5706  1.9029
   65MOL   H20420812   3.971   0.263   0.875  0.5661  0.6318  0.3152
   65MOL   H20520813   3.781   0.216   0.711 -1.6373 -0.1238  0.2814
   65MOL   H20620814   3.574   0.347   0.740  0.0377 -0.6406 -0.4893
   65MOL   H20720815   3.569   0.537   0.884 -0.0816 -1.5688 -0.2110
   65MOL   H20820816   3.642   0.507   1.210 -0.3878  0.6931  0.3670
   65MOL   H20920817   3.541   0.623   1.135 -0.2514 -0.9388 -0.5188
   65MOL   C21020818   3.647   0.706   1.296 -0.3977 -0.2721  0.2321
   65MOL   C21120819   3.778   0.707   1.384  0.9343 -0.1160  0.3168
   65MOL   C21220820   3.872   0.813   1.391  0.2214 -0.5779  0.4510
   65MOL  Cl21320821   3.866   0.949   1.286  0.1425  0.3611  0.2400
   65MOL   C21420822   3.971   0.807   1.493  0.3385 -0.4515  0.1237
   65MOL   C21520823   3.986   0.701   1.587  0.6075 -0.2637 -0.0358
   65MOL   C21620824   3.895   0.595   1.572 -0.3825 -0.2401 -0.3189
   65MOL   C21720825   3.791   0.598   1.479  0.5751  0.1456  0.9260
   65MOL   C21820826   3.515   0.677   1.388  0.6097  0.2239  0.4202
   65MOL   H21920827   3.645   0.809   1.260  0.4836 -0.2174  0.3178
   65MOL   H22020828   4.036   0.891   1.510  0.0980 -0.3849  0.7603
   65MOL   H22120829   4.051   0.696   1.674  2.2136  0.6899 -1.1646
   65MOL   H22220830   3.893   0.525   1.654 -0.5240 -0.4716 -0.5206
   65MOL   H22320831   3.723   0.513   1.475  0.0526  0.5967 -0.0704
   65MOL   H22420832   3.539   0.688   1.493  0.4050 -0.0451  0.4946
   65MOL   H22520833   3.500   0.570   1.371 -0.6872  0.0133  2.7092
   65MOL   C22620834   3.393   0.762   1.342  0.2605 -0.0411 -0.0859
   65MOL   C22720835   3.395   0.905   1.404  0.2879 -0.6427  0.8321
   65MOL   C22820836   3.456   1.016   1.336  0.1589  0.1167 -0.4415
   65MOL  Cl22920837   3.514   0.999   1.170  0.4095 -0.0060 -0.3803
   65MOL   C23020838   3.469   1.142   1.393 -0.1471  0.2948  0.2522
   65MOL   C23120839   3.434   1.162   1.525 -0.4143  0.1046  0.6584
   65MOL   C23220840   3.387   1.054   1.599  0.3338 -0.1066  0.8961
   65MOL   C23320841   3.372   0.927   1.542 -0.0602  0.1850 -0.1917
   65MOL   C23420842   3.257   0.690   1.379 -0.5203 -0.2345 -0.2108
   65MOL   H23520843   3.393   0.778   1.235 -1.8752  1.7649  0.1383
   65MOL   H23620844   3.497   1.233   1.342 -2.7263 -0.8476 -3.4166
   65MOL   H23720845   3.432   1.265   1.557  1.1093  0.8466 -1.5031
   65MOL   H23820846   3.368   1.071   1.704  0.4266 -0.8946  1.0476
   65MOL   H23920847   3.337   0.847   1.605 -0.7576  0.5513 -0.1061
   65MOL   H24020848   3.176   0.758   1.405  3.8201  5.2775 -0.0843
   65MOL   H24120849   3.286   0.646   1.475  0.1209 -1.5775 -1.0189
   65MOL   C24220850   3.218   0.567   1.293 -0.2721  0.7232  0.4504
   65MOL   C24320851   3.203   0.605   1.147  0.2889  0.4376  0.3847
   65MOL   C24420852   3.281   0.547   1.044  0.3251 -0.4648  1.1068
   65MOL  Cl24520853   3.382   0.411   1.070  0.0273 -0.0945  0.1937
   65MOL   C24620854   3.272   0.591   0.908 -0.5854  0.0750  0.3332
   65MOL   C24720855   3.172   0.690   0.874 -0.1622  0.3484  0.5959
   65MOL   C24820856   3.100   0.755   0.981  0.0600 -0.4872 -1.0100
   65MOL   C24920857   3.112   0.717   1.117 -0.0265  0.5639  0.0861
   65MOL   C25020858   3.088   0.504   1.352 -0.1510 -0.0012 -0.2611
   65MOL   H25120859   3.301   0.496   1.297 -0.1113  0.8033 -1.0660
   65MOL   H25220860   3.333   0.551   0.829 -0.7096  1.0387 -0.2529
   65MOL   H25320861   3.163   0.708   0.768  0.4439 -1.5211  0.2059
   65MOL   H25420862   3.042   0.844   0.962  0.7142  0.5578  1.6458
   65MOL   H25520863   3.062   0.770   1.196  1.1651  1.5801  0.1796
   65MOL   H25620864   3.062   0.421   1.287  0.1452  0.4479 -0.9560
   65MOL   H25720865   3.003   0.572   1.346 -0.9098 -0.8631  0.5749
   65MOL   C25820866   3.099   0.441   1.493  0.0872 -0.2343 -0.1709
   65MOL   C25920867   3.228   0.368   1.517  0.4718 -0.2518 -0.4484
   65MOL   C26020868   3.336   0.404   1.597 -0.9700 -0.2870  0.0933
   65MOL  Cl26120869   3.317   0.537   1.711 -0.1034 -0.3079 -0.5210
   65MOL   C26220870   3.458   0.336   1.597 -0.8309  0.2617  0.1167
   65MOL   C26320871   3.465   0.214   1.524 -0.1036  0.2637  0.1640
   65MOL   C26420872   3.354   0.173   1.441  0.4606 -0.0853 -0.4154
   65MOL   C26520873   3.238   0.255   1.447  0.3259 -0.1080  0.3645
   65MOL   C26620874   2.974   0.366   1.543  0.0433 -0.1630  1.0225
   65MOL   H26720875   3.110   0.533   1.551  0.1422 -0.5697  0.3529
   65MOL   H26820876   3.547   0.370   1.648  1.5206 -2.0851 -2.2450
   65MOL   H26920877   3.558   0.160   1.516 -1.0013 -1.1335 -1.1440
   65MOL   H27020878   3.356   0.081   1.384  0.7083 -0.6766  0.5226
   65MOL   H27120879   3.156   0.218   1.387  1.1687 -0.5616 -0.5210
   65MOL   H27220880   2.991   0.322   1.642 -1.1230 -0.4761  1.0927
   65MOL   H27320881   2.960   0.278   1.480 -0.7425  1.3946 -1.0464
   65MOL   C27420882   2.843   0.447   1.551  0.4571 -0.4306  0.4193
   65MOL   C27520883   2.853   0.572   1.651 -0.7259 -0.1450 -0.4897
   65MOL   C27620884   2.816   0.700   1.608  0.2123  0.3480  0.5754
   65MOL  Cl27720885   2.736   0.723   1.456 -0.4489  0.5246 -0.1451
   65MOL   C27820886   2.825   0.813   1.687 -0.4133  0.2609  0.4024
   65MOL   C27920887   2.864   0.797   1.818  0.0065  0.4174 -0.5205
   65MOL   C28020888   2.903   0.673   1.876 -0.9153  0.5103  1.1456
   65MOL   C28120889   2.902   0.560   1.786 -0.6534 -0.0182  0.6998
   65MOL   C28220890   2.730   0.356   1.591 -0.1679 -0.9025 -0.5627
   65MOL   H28320891   2.817   0.490   1.454 -1.7981 -2.0429  0.2646
   65MOL   H28420892   2.814   0.910   1.641 -3.0128 -0.3595 -0.4169
   65MOL   H28520893   2.893   0.888   1.868 -1.9213  1.1425 -0.6743
   65MOL   H28620894   2.951   0.669   1.973  1.8320  1.5975 -0.1305
   65MOL   H28720895   2.941   0.464   1.819  0.1466 -0.3719 -1.2278
   65MOL   H28820896   2.661   0.412   1.654  0.5143  1.1709 -1.5971
   65MOL   H28920897   2.762   0.280   1.662  0.1895 -0.1817  0.0564
   65MOL   C29020898   2.655   0.292   1.477  0.7257  0.0198 -0.0405
   65MOL   C29120899   2.574   0.399   1.403  0.4166 -0.0543 -0.3748
   65MOL   C29220900   2.604   0.438   1.272  0.8402 -0.1087  0.3597
   65MOL  Cl29320901   2.734   0.357   1.192 -0.2566  0.5193  0.0596
   65MOL   C29420902   2.520   0.529   1.209  0.1143  0.4214  0.3119
   65MOL   C29520903   2.409   0.588   1.279  0.1395 -0.3040  0.0789
   65MOL   C29620904   2.393   0.566   1.419  0.5610  0.5167  0.5449
   65MOL   C29720905   2.464   0.455   1.473 -0.8063  0.6368 -0.7852
   65MOL   C29820906   2.580   0.163   1.518 -0.1009  1.1958 -0.0695
   65MOL   H29920907   2.736   0.253   1.414  0.2607 -0.3848 -0.3913
   65MOL   H30020908   2.556   0.569   1.115  0.0717 -1.3708 -0.4950
   65MOL   H30120909   2.363   0.667   1.222  1.9198  0.9353  0.3430
   65MOL   H30220910   2.309   0.608   1.474 -0.5177  1.0541 -1.4431
   65MOL   H30320911   2.435   0.423   1.572 -1.5869  3.9424  0.1208
   65MOL   H30420912   2.524   0.133   1.430  0.2939  0.6093 -0.1233
   65MOL   H30520913   2.507   0.183   1.596  0.2017 -0.1780  0.5878
   65MOL   C30620914   2.664   0.042   1.568 -0.4029  0.0281 -0.2353
   65MOL   C30720915   2.788   0.006   1.480 -0.0094 -1.0645  0.2011
   65MOL   C30820916   2.924   0.010   1.520  0.4607 -1.6708  0.0341
   65MOL  Cl30920917   2.961   0.039   1.687  0.0493 -0.2367 -0.1906
   65MOL   C31020918   3.031   8.414   1.436 -0.9700 -0.1235  0.8735
   65MOL   C31120919   3.005   8.389   1.301 -0.4144  0.4052  0.6125
   65MOL   C31220920   2.873   8.381   1.258  0.0007 -0.4434  0.3275
   65MOL   C31320921   2.769   8.397   1.343  0.0737 -0.3508  0.6473
   65MOL   C31420922   2.576   8.344   1.591  0.0318  0.2624 -0.0844
   65MOL   H31520923   2.709   0.067   1.664  1.6227  0.2383 -1.2191
   65MOL   H31620924   3.131   8.421   1.476 -1.1058 -0.8923  1.3573
   65MOL   H31720925   3.088   8.374   1.233 -0.1878 -2.0331  1.3853
   65MOL   H31820926   2.841   8.363   1.157  1.2172 -1.2537  0.0878
   65MOL   H31920927   2.670   8.401   1.300  0.7777 -1.4279 -1.0811
   65MOL   H32020928   2.493   8.372   1.656  0.9709 -1.6121  2.0007
   65MOL   H32120929   2.634   8.265   1.638  0.6915  1.1748  0.6629
   65MOL   H32220930   2.540   8.308   1.495 -1.5765 -0.1687  0.6749
   66MOL     C120931   6.802   5.081   7.159 -0.1373 -0.8519  0.5265
   66MOL     C220932   6.889   5.204   7.135  0.1452 -0.1317 -0.2535
   66MOL     C320933   7.025   5.216   7.183  0.3603  0.0529 -0.1851
   66MOL    Cl420934   7.105   5.091   7.257 -0.2578 -0.3826  0.4480
   66MOL     C520935   7.103   5.338   7.164 -0.1291  0.1491  0.2087
   66MOL     C620936   7.045   5.449   7.094 -0.1120  0.7119  0.4909
   66MOL     C720937   6.916   5.434   7.040  0.3146  0.0107  0.5327
   66MOL     C820938   6.837   5.321   7.066 -0.3102  0.4801  0.4531
   66MOL     C920939   6.670   5.122   7.226  0.0628 -0.2414  0.1586
   66MOL    H1020940   6.779   5.027   7.067  0.0126 -1.4344  0.8340
   66MOL    H1120941   7.202   5.352   7.205  0.6881 -2.5290 -0.7051
   66MOL    H1220942   7.108   5.535   7.073 -2.4308  2.5833  0.9288
   66MOL    H1320943   6.874   5.512   6.977  3.8598 -0.4921 -2.6409
   66MOL    H1420944   6.734   5.314   7.035 -0.4516  1.4595  0.6830
   66MOL    H1520945   6.626   5.191   7.153 -1.5456 -0.5897  0.7717
   66MOL    H1620946   6.689   5.188   7.311 -1.3009 -0.1307  0.3956
   66MOL    H1720947   6.847   5.016   7.234 -0.1677  0.7223  1.9358
   66MOL    C1820948   6.584   5.015   7.281  0.2660  1.1691 -0.2075
   66MOL    C1920949   6.527   4.912   7.182 -0.3198  0.3690 -0.0220
   66MOL    C2020950   6.491   4.779   7.226  0.4936 -0.2061  0.3671
   66MOL   Cl2120951   6.514   4.735   7.388  0.0574 -0.3481 -0.4357
   66MOL    C2220952   6.433   4.691   7.133  0.4653 -0.2013 -0.2975
   66MOL    C2320953   6.405   4.730   7.001  0.0248 -0.0218  0.3188
   66MOL    C2420954   6.429   4.861   6.961 -0.4355 -0.2877  0.4187
   66MOL    C2520955   6.498   4.944   7.050  0.3861 -1.0423 -0.0089
   66MOL    C2620956   6.473   5.066   7.377 -0.2486  0.5306  0.1101
   66MOL    H2720957   6.650   4.961   7.349  0.3261 -0.1779 -1.2971
   66MOL    H2820958   6.401   4.595   7.170 -1.0222 -0.3851 -1.9927
   66MOL    H2920959   6.365   4.653   6.937  2.0237 -0.8093  0.0018
   66MOL    H3020960   6.399   4.880   6.859 -0.5181  0.6015  0.6056
   66MOL    H3120961   6.526   5.041   7.010  1.2278 -1.5536 -0.6872
   66MOL    H3220962   6.529   5.131   7.444  0.9647  0.5373 -0.8989
   66MOL    H3320963   6.432   4.982   7.433 -0.5976 -0.0417 -0.9782
   66MOL    C3420964   6.351   5.151   7.311 -0.4117 -0.4658 -0.7010
   66MOL    C3520965   6.393   5.296   7.276  0.2459 -0.1240 -0.1685
   66MOL    C3620966   6.394   5.333   7.139 -0.4889 -0.5853 -0.0186
   66MOL   Cl3720967   6.327   5.228   7.020  0.3048  0.3284 -0.0587
   66MOL    C3820968   6.434   5.457   7.098 -0.0400  0.6808  0.2788
   66MOL    C3920969   6.482   5.547   7.192 -0.4858  0.0567  0.5181
   66MOL    C4020970   6.488   5.511   7.331 -0.0834 -0.1683  0.1630
   66MOL    C4120971   6.450   5.383   7.371  0.3831  0.6397 -0.0952
   66MOL    C4220972   6.233   5.163   7.420 -0.5403 -0.1967  0.5695
   66MOL    H4320973   6.314   5.099   7.223 -0.0906 -2.7995  0.4936
   66MOL    H4420974   6.423   5.476   6.992  0.6144 -1.7018 -0.2574
   66MOL    H4520975   6.525   5.640   7.159 -0.8596 -0.0382 -0.2615
   66MOL    H4620976   6.515   5.580   7.409 -1.4290  1.1489 -0.5162
   66MOL    H4720977   6.457   5.362   7.476  2.1029  1.2604 -0.0609
   66MOL    H4820978   6.258   5.237   7.496 -0.6884 -2.8343  3.2833
   66MOL    H4920979   6.225   5.065   7.467 -1.0519  0.4917  1.9331
   66MOL    C5020980   6.089   5.188   7.367 -0.9492  0.3017  0.7542
   66MOL    C5120981   6.067   5.329   7.306 -0.4961  1.0343  0.2298
   66MOL    C5220982   6.008   5.353   7.179 -0.5722  0.2002  0.0838
   66MOL   Cl5320983   5.978   5.233   7.065  0.0573  0.2284  0.3429
   66MOL    C5420984   5.982   5.485   7.143  0.0621  0.5173  0.1745
   66MOL    C5520985   6.014   5.595   7.222  0.5284 -0.1662  0.2002
   66MOL    C5620986   6.073   5.573   7.348  0.7397  0.2354  0.6557
   66MOL    C5720987   6.091   5.438   7.387  0.1162 -0.2636  0.7419
   66MOL    C5820988   5.985   5.156   7.480  0.2287 -0.1941 -0.2482
   66MOL    H5920989   6.069   5.107   7.297  1.4407 -0.5928  1.0689
   66MOL    H6020990   5.936   5.498   7.046 -0.3596  1.3786  0.4881
   66MOL    H6120991   6.003   5.696   7.185 -1.6613 -0.9647 -1.4754
   66MOL    H6220992   6.100   5.649   7.420 -1.5320  0.7844  0.9703
   66MOL    H6320993   6.130   5.426   7.487  1.2486  1.6761  0.5470
   66MOL    H6420994   5.991   5.236   7.554 -2.9724 -0.0318 -0.1036
   66MOL    H6520995   6.015   5.074   7.546 -1.7021 -1.3970 -0.8261
   66MOL    C6620996   5.840   5.128   7.431 -0.0123 -0.7372 -0.2718
   66MOL    C6720997   5.743   5.246   7.438 -0.2693 -0.0133  0.2808
   66MOL    C6820998   5.648   5.274   7.340  0.4164  0.1161  0.1079
   66MOL   Cl6920999   5.635   5.174   7.197  0.0066  0.0561 -0.3346
   66MOL    C7021000   5.566   5.381   7.343  0.7443 -0.6263 -0.7778
   66MOL    C7121001   5.567   5.465   7.452 -0.1390  0.0051 -0.2262
   66MOL    C7221002   5.659   5.445   7.555 -0.3007  0.0190  0.5154
   66MOL    C7321003   5.740   5.331   7.550  0.2627  0.5135 -0.0918
   66MOL    C7421004   5.780   5.002   7.503 -0.5844  0.4382  0.3590
   66MOL    H7521005   5.847   5.106   7.324  2.1090  2.9043 -0.9698
   66MOL    H7621006   5.502   5.410   7.260 -0.9443  0.0614  0.7480
   66MOL    H7721007   5.520   5.562   7.459 -1.0937 -0.5342  1.0577
   66MOL    H7821008   5.674   5.510   7.639 -3.8967  1.6453  0.0217
   66MOL    H7921009   5.807   5.315   7.633 -2.2734  0.1322  1.9475
   66MOL    H8021010   5.675   4.993   7.476 -0.2026 -1.0169 -0.7002
   66MOL    H8121011   5.775   5.022   7.610 -1.1948  1.4066  0.1557
   66MOL    C8221012   5.850   4.868   7.484 -0.4533  0.6278  0.7699
   66MOL    C8321013   5.915   4.859   7.344 -0.4240 -0.4076  0.4669
   66MOL    C8421014   6.054   4.843   7.330  0.2339  0.8405 -0.4329
   66MOL   Cl8521015   6.164   4.808   7.468  0.4931 -0.1988  0.0174
   66MOL    C8621016   6.105   4.859   7.197  0.8043 -0.7092  0.7688
   66MOL    C8721017   6.020   4.885   7.087  0.8877 -0.0446  0.1359
   66MOL    C8821018   5.884   4.889   7.102 -0.6815  0.6513 -0.3055
   66MOL    C8921019   5.834   4.871   7.231 -0.5313 -0.0667  0.1629
   66MOL    C9021020   5.751   4.745   7.505  0.8681  1.2163  0.0789
   66MOL    H9121021   5.919   4.860   7.568  1.3819  0.6233 -0.7103
   66MOL    H9221022   6.213   4.856   7.188  0.9149 -0.6164  2.0089
   66MOL    H9321023   6.054   4.903   6.986 -2.0176  0.5563 -0.7994
   66MOL    H9421024   5.819   4.897   7.016 -0.5512 -1.1915 -0.5877
   66MOL    H9521025   5.727   4.881   7.241 -1.1083 -0.8181 -4.1810
   66MOL    H9621026   5.800   4.649   7.490 -1.0771 -0.1955  2.3225
   66MOL    H9721027   5.680   4.748   7.422  0.7322  0.1840  0.1559
   66MOL    C9821028   5.681   4.725   7.640 -0.2266  0.6800 -0.4922
   66MOL    C9921029   5.772   4.706   7.756 -0.0760 -0.6249 -0.6854
   66MOL   C10021030   5.723   4.736   7.884 -0.1884 -0.2727 -0.4431
   66MOL  Cl10121031   5.566   4.815   7.917  0.1607  0.0796  0.0102
   66MOL   C10221032   5.804   4.709   7.996 -0.3252  0.2158 -0.2689
   66MOL   C10321033   5.931   4.648   7.989 -1.0371 -0.3979  0.0573
   66MOL   C10421034   5.975   4.613   7.862 -0.1852 -0.5515 -0.2756
   66MOL   C10521035   5.899   4.646   7.747  0.2862 -0.4786 -0.2204
   66MOL   C10621036   5.595   4.603   7.626  0.0281  0.5231 -0.0222
   66MOL   H10721037   5.627   4.819   7.656 -0.2142  0.5806  0.1470
   66MOL   H10821038   5.765   4.740   8.092 -1.7291 -1.3015 -0.3359
   66MOL   H10921039   5.979   4.627   8.083  1.0972  0.4114 -0.8365
   66MOL   H11021040   6.074   4.572   7.852  0.1169 -0.3975  1.8749
   66MOL   H11121041   5.939   4.627   7.648  0.0390  0.1228 -0.4375
   66MOL   H11221042   5.551   4.590   7.725 -0.0709 -0.6658 -0.2135
   66MOL   H11321043   5.646   4.509   7.606 -1.4719 -0.2818 -0.1606
   66MOL   C11421044   5.462   4.615   7.541 -0.1670  0.1226 -0.5324
   66MOL   C11521045   5.403   4.757   7.541  0.1458  0.7722  0.4137
   66MOL   C11621046   5.387   4.832   7.419  0.3629 -0.6440 -0.4587
   66MOL  Cl11721047   5.453   4.782   7.270  0.0849 -0.4593 -0.1341
   66MOL   C11821048   5.325   4.963   7.426  0.4478  0.9043  0.1756
   66MOL   C11921049   5.288   5.013   7.552  0.1387  0.3574  0.1143
   66MOL   C12021050   5.306   4.932   7.667 -0.5906  0.3318  0.3020
   66MOL   C12121051   5.359   4.803   7.663 -0.8494  0.2034  0.3882
   66MOL   C12221052   5.355   4.509   7.565  0.2502 -0.1467 -0.1217
   66MOL   H12321053   5.498   4.593   7.440 -0.6485  0.0728 -0.6923
   66MOL   H12421054   5.308   5.024   7.338 -1.9564  0.1732  0.0992
   66MOL   H12521055   5.235   5.106   7.571 -1.2718 -0.4008  0.0174
   66MOL   H12621056   5.269   4.971   7.761  1.1597 -1.6772  1.8942
   66MOL   H12721057   5.385   4.745   7.751  1.2656  0.3151 -0.1408
   66MOL   H12821058   5.256   4.550   7.544 -0.1032  0.0081  1.7633
   66MOL   H12921059   5.349   4.497   7.673 -0.7479 -0.4138 -0.1995
   66MOL   C13021060   5.376   4.371   7.501 -0.2448  0.8056  0.4269
   66MOL   C13121061   5.370   4.388   7.342  0.0457 -0.5421  0.1683
   66MOL   C13221062   5.488   4.369   7.267 -0.4165  0.2777  0.3507
   66MOL  Cl13321063   5.641   4.368   7.345  0.0603 -0.1819  0.2258
   66MOL   C13421064   5.479   4.366   7.125  0.0415 -0.5976  0.3748
   66MOL   C13521065   5.355   4.379   7.060 -0.2245  0.5769 -0.4397
   66MOL   C13621066   5.238   4.416   7.137 -0.6543 -0.2893 -0.1905
   66MOL   C13721067   5.245   4.412   7.273 -0.1548 -0.8672 -0.8576
   66MOL   C13821068   5.279   4.264   7.551 -0.1338 -0.2772 -0.6471
   66MOL   H13921069   5.472   4.333   7.537 -0.0997  0.9927  0.2415
   66MOL   H14021070   5.563   4.334   7.067 -2.1759 -2.1483 -2.0928
   66MOL   H14121071   5.333   4.363   6.955 -0.5785 -1.7778 -0.0293
   66MOL   H14221072   5.148   4.457   7.094 -1.3686 -0.2209  1.3288
   66MOL   H14321073   5.154   4.439   7.325 -0.1081  0.7619 -1.5802
   66MOL   H14421074   5.279   4.176   7.486 -1.0107 -0.7812  0.0342
   66MOL   H14521075   5.179   4.304   7.536  0.2856  1.4312  1.0020
   66MOL   C14621076   5.287   4.215   7.698 -0.2397 -0.0180 -0.7365
   66MOL   C14721077   5.403   4.115   7.727 -0.6166  0.0622  0.3494
   66MOL   C14821078   5.459   4.113   7.859  0.3432 -0.1123 -0.2329
   66MOL  Cl14921079   5.407   4.201   7.993 -0.1296 -0.3382  0.0566
   66MOL   C15021080   5.554   4.022   7.894 -0.3544  0.0652 -0.0572
   66MOL   C15121081   5.619   3.949   7.795 -0.4353  0.0610  0.8055
   66MOL   C15221082   5.571   3.949   7.665 -0.3396  0.0479 -0.1183
   66MOL   C15321083   5.456   4.023   7.634 -0.2522 -0.9346  0.3945
   66MOL   C15421084   5.158   4.166   7.746  0.4712 -0.2329 -0.3104
   66MOL   H15521085   5.308   4.306   7.756 -1.0532 -0.3523  0.0961
   66MOL   H15621086   5.601   4.023   7.992 -1.5337 -0.1364  0.5201
   66MOL   H15721087   5.697   3.882   7.830 -0.4329 -1.0559 -1.2793
   66MOL   H15821088   5.610   3.890   7.584  1.0511  2.5810 -1.3837
   66MOL   H15921089   5.418   4.013   7.533  2.0066 -0.7713 -0.4993
   66MOL   H16021090   5.172   4.140   7.851  0.7591  0.7753 -0.0918
   66MOL   H16121091   5.128   4.078   7.690  0.2824 -0.7541  0.5875
   66MOL   C16221092   5.039   4.270   7.750 -0.4280  0.3898 -0.1578
   66MOL   C16321093   5.079   4.403   7.815 -0.2329  0.4112 -0.0175
   66MOL   C16421094   5.042   4.525   7.753 -0.2521  0.0598 -0.1780
   66MOL  Cl16521095   4.943   4.535   7.611 -0.1297 -0.2314 -0.2858
   66MOL   C16621096   5.071   4.649   7.812 -0.2550  0.0323 -0.5442
   66MOL   C16721097   5.143   4.649   7.937 -0.3566  0.0250 -0.1150
   66MOL   C16821098   5.175   4.529   8.003  0.2675 -0.7915 -0.7486
   66MOL   C16921099   5.135   4.410   7.944  0.0266 -0.2895 -0.1612
   66MOL   C17021100   4.922   4.197   7.808 -0.0873 -0.1024 -0.2022
   66MOL   H17121101   5.012   4.282   7.645  0.6684  0.4478 -0.4430
   66MOL   H17221102   5.061   4.747   7.767  0.3884  0.1104 -0.5132
   66MOL   H17321103   5.186   4.738   7.981 -0.2743 -0.0261 -0.0931
   66MOL   H17421104   5.229   4.526   8.097  0.9618  0.1552 -1.1052
   66MOL   H17521105   5.137   4.314   7.994  0.9488 -0.3653 -0.3405
   66MOL   H17621106   4.953   4.154   7.903 -1.1016  0.5774  0.4453
   66MOL   H17721107   4.901   4.110   7.745 -2.3852  0.0760  0.2742
   66MOL   C17821108   4.798   4.287   7.839  0.2629  0.0340 -0.4801
   66MOL   C17921109   4.777   4.306   7.986  0.1393 -0.4995 -0.8632
   66MOL   C18021110   4.764   4.435   8.041  0.1481 -0.8536 -0.6394
   66MOL  Cl18121111   4.749   4.573   7.933 -0.0839 -0.0564  0.0434
   66MOL   C18221112   4.747   4.463   8.181  1.1016 -0.4028 -0.1075
   66MOL   C18321113   4.733   4.353   8.269  0.2724 -0.0288  0.7998
   66MOL   C18421114   4.744   4.225   8.218 -0.3373 -0.3587 -0.4102
   66MOL   C18521115   4.761   4.201   8.079 -0.5034 -0.2091 -0.3090
   66MOL   C18621116   4.665   4.222   7.780  0.2882 -0.0704  0.3609
   66MOL   H18721117   4.813   4.385   7.794  1.0253 -0.2118 -0.7620
   66MOL   H18821118   4.738   4.567   8.208  0.0653 -0.7780  1.0174
   66MOL   H18921119   4.728   4.381   8.373 -0.1823  1.3548  0.4093
   66MOL   H19021120   4.744   4.135   8.277  1.3392 -2.3446 -3.2777
   66MOL   H19121121   4.780   4.102   8.039 -1.3564  0.8115 -3.3949
   66MOL   H19221122   4.579   4.250   7.841  0.5342  2.3299 -0.3497
   66MOL   H19321123   4.676   4.114   7.783 -1.6156 -0.3190 -0.3753
   66MOL   C19421124   4.615   4.252   7.637 -0.5260 -0.1764 -0.3053
   66MOL   C19521125   4.596   4.401   7.600 -0.0536 -0.2221 -0.0266
   66MOL   C19621126   4.644   4.457   7.477 -0.5221  0.7327  0.1726
   66MOL  Cl19721127   4.744   4.360   7.370 -0.1815 -0.1074  0.2235
   66MOL   C19821128   4.620   4.591   7.445 -0.3797 -0.6023  0.3673
   66MOL   C19921129   4.554   4.675   7.533 -0.0779 -0.8561  0.3421
   66MOL   C20021130   4.521   4.628   7.658  0.1509  0.8222 -0.8059
   66MOL   C20121131   4.530   4.490   7.687  0.8108 -0.6883 -0.0042
   66MOL   C20221132   4.488   4.180   7.602  0.2700 -0.1217 -0.2587
   66MOL   H20321133   4.695   4.225   7.567 -2.0589 -2.4252 -1.2404
   66MOL   H20421134   4.659   4.623   7.350  0.5736  1.1170  1.3137
   66MOL   H20521135   4.541   4.780   7.513  0.5099 -0.4757  1.8754
   66MOL   H20621136   4.470   4.697   7.724  0.7373  0.6780 -0.1965
   66MOL   H20721137   4.494   4.451   7.781 -0.0667 -0.7599 -0.3670
   66MOL   H20821138   4.448   4.230   7.514 -0.5611 -1.8505 -0.8883
   66MOL   H20921139   4.412   4.195   7.679 -1.2787 -0.8520 -1.6061
   66MOL   C21021140   4.499   4.036   7.567 -0.7642 -0.4863 -0.1698
   66MOL   C21121141   4.584   4.021   7.436 -0.0561 -0.0892 -0.5523
   66MOL   C21221142   4.711   3.965   7.447  0.0422 -0.9254 -0.2413
   66MOL  Cl21321143   4.781   3.905   7.595  0.3492 -0.3934  0.6663
   66MOL   C21421144   4.801   3.971   7.336  0.1896  0.1152  0.0577
   66MOL   C21521145   4.754   4.003   7.206 -0.0573 -0.1679  0.8500
   66MOL   C21621146   4.618   4.045   7.195  0.0814 -0.6806  0.0590
   66MOL   C21721147   4.536   4.065   7.308 -0.4506  0.7981  0.2297
   66MOL   C21821148   4.359   3.959   7.548 -0.2598 -0.0192  0.1400
   66MOL   H21921149   4.552   3.995   7.653 -0.2875  0.6444  0.0924
   66MOL   H22021150   4.906   3.947   7.350  0.1611 -0.2541 -0.3691
   66MOL   H22121151   4.813   4.000   7.116 -0.1062 -0.9959  0.8395
   66MOL   H22221152   4.586   4.095   7.105 -0.5753 -0.0860  0.6131
   66MOL   H22321153   4.435   4.100   7.294 -1.6410 -1.6699  2.1712
   66MOL   H22421154   4.380   3.876   7.481 -2.6551 -0.1704 -0.4653
   66MOL   H22521155   4.290   4.019   7.489 -0.5123 -0.2518  0.1953
   66MOL   C22621156   4.287   3.894   7.676 -0.2302  0.4814  0.9195
   66MOL   C22721157   4.386   3.783   7.740 -0.2107 -0.7705  0.6212
   66MOL   C22821158   4.464   3.815   7.857 -0.3224 -0.8346 -0.0522
   66MOL  Cl22921159   4.448   3.970   7.935  0.0038  0.0195 -0.1520
   66MOL   C23021160   4.566   3.727   7.904 -0.4200  0.0969  0.2145
   66MOL   C23121161   4.583   3.604   7.839 -0.2802 -0.0416  0.5633
   66MOL   C23221162   4.506   3.572   7.725 -0.0273 -0.4851  0.4637
   66MOL   C23321163   4.413   3.665   7.676 -0.3666  0.3189  0.7895
   66MOL   C23421164   4.144   3.849   7.650  0.2293  0.2153 -0.2252
   66MOL   H23521165   4.269   3.979   7.742 -0.4115  1.4211 -0.3208
   66MOL   H23621166   4.620   3.746   7.996 -1.0735 -0.2084  0.6618
   66MOL   H23721167   4.659   3.539   7.881 -0.4451 -2.1658 -2.2552
   66MOL   H23821168   4.518   3.475   7.679  0.3849 -0.5970  0.8032
   66MOL   H23921169   4.359   3.658   7.583  0.3477 -0.1304  0.4135
   66MOL   H24021170   4.156   3.756   7.593 -0.2448 -0.5229  0.8691
   66MOL   H24121171   4.093   3.909   7.574  1.1400 -1.1378 -1.9546
   66MOL   C24221172   4.043   3.846   7.768 -0.6296 -0.3289  0.7234
   66MOL   C24321173   4.099   3.794   7.897 -0.0897 -0.4516  0.3482
   66MOL   C24421174   4.092   3.872   8.017 -0.6070  1.2047  0.8585
   66MOL  Cl24521175   4.046   4.041   8.021 -0.0050 -0.4197  0.1453
   66MOL   C24621176   4.150   3.820   8.134 -0.0807  0.5626 -0.5358
   66MOL   C24721177   4.212   3.693   8.137 -0.1726  0.3495  0.1320
   66MOL   C24821178   4.212   3.613   8.021  0.5097  0.1813  0.1760
   66MOL   C24921179   4.149   3.660   7.905  0.0606 -0.2389 -0.1472
   66MOL   C25021180   3.907   3.788   7.716  0.2684 -0.6721  0.3625
   66MOL   H25121181   4.019   3.952   7.782  0.7754  0.1047 -0.0743
   66MOL   H25221182   4.169   3.887   8.216 -1.3961  0.1487  0.1114
   66MOL   H25321183   4.249   3.659   8.233  1.6633  0.2579 -0.5936
   66MOL   H25421184   4.266   3.520   8.016 -1.1661 -0.7886  0.1087
   66MOL   H25521185   4.172   3.600   7.818  0.5339 -0.8884  0.4245
   66MOL   H25621186   3.850   3.794   7.809 -0.0235  1.2608  0.0913
   66MOL   H25721187   3.916   3.681   7.696 -2.6039 -0.8244 -0.2445
   66MOL   C25821188   3.825   3.871   7.608  0.8314  0.9754 -0.3841
   66MOL   C25921189   3.673   3.881   7.651 -0.3308  0.3786  0.3123
   66MOL   C26021190   3.596   3.996   7.644  0.2599  0.5196  0.2837
   66MOL  Cl26121191   3.677   4.147   7.600  0.4038 -0.4078 -0.3272
   66MOL   C26221192   3.455   3.987   7.657 -0.0111 -0.1256 -0.1626
   66MOL   C26321193   3.392   3.865   7.697  0.0418 -0.2037 -0.3789
   66MOL   C26421194   3.478   3.752   7.704  0.0324 -0.1136 -0.5467
   66MOL   C26521195   3.615   3.757   7.680 -0.2701  0.6015  0.4358
   66MOL   C26621196   3.852   3.825   7.460 -0.1984  0.0412 -0.4998
   66MOL   H26721197   3.860   3.973   7.621 -0.6732  1.6619 -1.6422
   66MOL   H26821198   3.398   4.075   7.631  2.7998  2.1010  0.9659
   66MOL   H26921199   3.285   3.850   7.691  0.0174 -0.2742  0.1597
   66MOL   H27021200   3.436   3.653   7.713 -0.0810 -0.0396 -0.2736
   66MOL   H27121201   3.674   3.668   7.669 -0.0235  0.5610  2.0120
   66MOL   H27221202   3.797   3.731   7.453 -0.0261  0.0868 -2.5479
   66MOL   H27321203   3.956   3.793   7.448 -0.0948  0.6016 -1.0920
   66MOL   C27421204   3.834   3.926   7.345 -0.5604  0.4055 -0.1925
   66MOL   C27521205   3.805   3.840   7.213 -0.4333 -0.8427  0.2934
   66MOL   C27621206   3.677   3.831   7.156  0.3311 -0.4023  0.4149
   66MOL  Cl27721207   3.553   3.910   7.239 -0.3171 -0.2446 -0.0353
   66MOL   C27821208   3.657   3.745   7.044 -0.4962  0.6801  0.1490
   66MOL   C27921209   3.760   3.667   6.990  0.3132  0.2638  0.4129
   66MOL   C28021210   3.882   3.676   7.052 -0.4165  0.1379 -0.5779
   66MOL   C28121211   3.911   3.759   7.163  0.1678 -0.3504  0.2301
   66MOL   C28221212   3.957   4.027   7.333  1.2068 -0.1722 -0.7099
   66MOL   H28321213   3.746   3.984   7.373 -1.0514 -0.8366  0.8630
   66MOL   H28421214   3.558   3.727   7.005 -0.8164  1.6018  0.5295
   66MOL   H28521215   3.742   3.600   6.908  1.1131  3.5125 -2.5378
   66MOL   H28621216   3.963   3.612   7.019  2.1159  2.3774  1.0998
   66MOL   H28721217   4.014   3.752   7.195  0.4683 -2.1079 -1.0934
   66MOL   H28821218   4.045   3.965   7.316  0.9310 -0.5152 -0.9102
   66MOL   H28921219   3.970   4.069   7.432 -1.2728  0.1712 -0.5022
   66MOL   C29021220   3.961   4.136   7.226  0.6781  0.1264  0.2422
   66MOL   C29121221   4.101   4.205   7.218 -0.1048 -0.1352 -0.2682
   66MOL   C29221222   4.191   4.177   7.114 -0.0288 -0.5304  0.1089
   66MOL  Cl29321223   4.144   4.082   6.975 -0.2255  0.3489 -0.0425
   66MOL   C29421224   4.317   4.240   7.114  0.1441 -0.2375 -1.0693
   66MOL   C29521225   4.350   4.325   7.217 -0.5734  0.2132 -0.2034
   66MOL   C29621226   4.259   4.360   7.316  0.3108 -0.4443  0.6845
   66MOL   C29721227   4.131   4.295   7.321  0.3665 -0.0023 -0.2633
   66MOL   C29821228   3.850   4.237   7.234  1.0536 -0.0018  0.9320
   66MOL   H29921229   3.945   4.089   7.129 -4.0945 -0.0715  0.9813
   66MOL   H30021230   4.390   4.213   7.039  0.2038 -1.2217 -0.6722
   66MOL   H30121231   4.444   4.378   7.219  0.4854 -1.6119 -0.3306
   66MOL   H30221232   4.289   4.435   7.386  2.4213 -0.4378 -0.2001
   66MOL   H30321233   4.058   4.332   7.392 -0.3631  0.3571 -1.1979
   66MOL   H30421234   3.862   4.293   7.327  0.8322 -0.7674  1.4257
   66MOL   H30521235   3.763   4.174   7.218  0.2896  1.6847 -2.1389
   66MOL   C30621236   3.845   4.352   7.120  1.0392  0.5590  0.5187
   66MOL   C30721237   3.713   4.435   7.140 -1.1026  0.2425  0.5951
   66MOL   C30821238   3.718   4.555   7.221 -0.8072 -0.7314  0.0870
   66MOL  Cl30921239   3.868   4.607   7.299  0.0102 -0.0412  0.5222
   66MOL   C31021240   3.595   4.623   7.243 -0.1254  0.6219  0.0413
   66MOL   C31121241   3.472   4.577   7.189  0.1980  0.0447  0.2870
   66MOL   C31221242   3.470   4.463   7.108 -0.6098  0.5354 -0.2814
   66MOL   C31321243   3.588   4.390   7.088  0.5515  0.5248 -0.1237
   66MOL   C31421244   3.850   4.302   6.975  0.1787 -0.6413  0.0622
   66MOL   H31521245   3.933   4.412   7.140  1.2136  0.9937 -1.4325
   66MOL   H31621246   3.598   4.713   7.302 -1.2442  0.5163  0.2856
   66MOL   H31721247   3.382   4.628   7.218  0.8708  0.8835  0.9401
   66MOL   H31821248   3.381   4.432   7.055  0.6806 -1.5505 -1.2889
   66MOL   H31921249   3.579   4.301   7.028  2.5056  0.3099 -0.1210
   66MOL   H32021250   3.769   4.239   6.939 -1.0133  1.3607 -0.8404
   66MOL   H32121251   3.936   4.239   6.954  1.1351  1.0663 -1.2399
   66MOL   H32221252   3.855   4.385   6.905  0.6547 -0.5146  0.2442
   67MOL     C121253   8.244   7.395   1.237 -0.1251  0.4533 -0.1229
   67MOL     C221254   8.105   7.343   1.202 -0.3885  0.1620 -0.1359
   67MOL     C321255   8.096   7.206   1.150 -0.5178 -0.0441  0.4378
   67MOL    Cl421256   8.237   7.104   1.144 -0.0873  0.0193  0.0994
   67MOL     C521257   7.972   7.155   1.110  0.4314  0.5974 -0.9853
   67MOL     C621258   7.852   7.230   1.134 -0.1657 -0.8721 -0.8134
   67MOL     C721259   7.862   7.362   1.188 -0.5394 -0.1618  0.4118
   67MOL     C821260   7.989   7.418   1.220  1.0426 -0.2051 -0.4972
   67MOL     C921261   8.323   7.453   1.124 -0.5051  0.0503 -0.3817
   67MOL    H1021262   8.232   7.464   1.321  0.0618  0.9133 -0.4778
   67MOL    H1121263   7.964   7.056   1.066  1.2375 -0.3337  0.8987
   67MOL    H1221264   7.755   7.187   1.112  0.1285 -1.4936 -0.9104
   67MOL    H1321265   7.772   7.414   1.216  0.3097  0.4213  2.1032
   67MOL    H1421266   8.001   7.518   1.260  0.1303 -0.4454  0.3983
   67MOL    H1521267   8.267   7.536   1.083  0.4494  0.4898 -0.8121
   67MOL    H1621268   8.334   7.373   1.051  0.7789  2.0053 -2.3919
   67MOL    H1721269   8.305   7.315   1.279  1.0856  1.3247 -0.2143
   67MOL    C1821270   0.036   7.507   1.169  0.9698  0.6063 -0.6095
   67MOL    C1921271   0.092   7.589   1.051  0.3450  0.3199 -0.0705
   67MOL    C2021272   0.102   7.732   1.053 -0.4924 -0.0771 -0.0110
   67MOL   Cl2121273   0.075   7.815   1.201  0.5800 -0.2913 -0.1000
   67MOL    C2221274   0.145   7.806   0.940  0.6742  0.1999  0.2017
   67MOL    C2321275   0.185   7.741   0.829 -0.1249 -0.0081  0.7066
   67MOL    C2421276   0.176   7.599   0.826 -0.3259 -0.3249 -0.3138
   67MOL    C2521277   0.128   7.519   0.934 -0.8737  0.6467 -0.6411
   67MOL    C2621278   0.135   7.391   1.204 -0.7935 -0.2108 -0.5278
   67MOL    H2721279   0.026   7.579   1.251 -0.9991  0.9934 -1.1625
   67MOL    H2821280   0.151   7.914   0.943  2.4447  0.1408 -0.8069
   67MOL    H2921281   0.219   7.787   0.737 -0.3226 -0.0327  0.6215
   67MOL    H3021282   0.201   7.548   0.734  1.6205 -3.0864  1.6710
   67MOL    H3121283   0.115   7.412   0.932  2.6076  0.1414  0.1754
   67MOL    H3221284   0.148   7.325   1.119 -0.5103 -2.5107  1.2378
   67MOL    H3321285   0.097   7.314   1.271  1.4947  0.0691  1.1375
   67MOL    C3421286   0.271   7.441   1.275  0.1098 -0.2347 -0.0437
   67MOL    C3521287   0.379   7.498   1.187 -0.1242  0.5257 -0.2366
   67MOL    C3621288   0.438   7.426   1.080  0.5441 -0.5917  0.0112
   67MOL   Cl3721289   0.387   7.265   1.042  0.0064  0.0468 -0.1706
   67MOL    C3821290   0.541   7.479   1.000  0.4896 -0.5087 -0.1773
   67MOL    C3921291   0.575   7.616   1.017 -0.1201  0.7942 -0.3536
   67MOL    C4021292   0.519   7.687   1.118  0.4769 -0.3223  1.0350
   67MOL    C4121293   0.422   7.627   1.208 -0.2213 -0.2336 -0.3949
   67MOL    C4221294   0.327   7.323   1.368  0.0353 -0.4713  0.1256
   67MOL    H4321295   0.245   7.520   1.345  1.2228  0.2977 -0.2312
   67MOL    H4421296   0.586   7.413   0.928  0.7358  0.8260 -1.2739
   67MOL    H4521297   0.639   7.661   0.943 -1.3127 -0.8149 -2.3994
   67MOL    H4621298   0.545   7.791   1.129 -0.2934 -0.1355  1.0941
   67MOL    H4721299   0.394   7.690   1.291  1.6460  1.6555 -1.1138
   67MOL    H4821300   0.435   7.334   1.382 -0.3133  0.1586  2.5007
   67MOL    H4921301   0.322   7.230   1.311  0.8491 -0.2714 -0.2907
   67MOL    C5021302   0.273   7.314   1.515  0.3855  0.0546 -0.0626
   67MOL    C5121303   0.300   7.450   1.577 -0.5911 -0.9856  0.0823
   67MOL    C5221304   0.199   7.546   1.602  0.6833  0.0849  0.4130
   67MOL   Cl5321305   0.035   7.511   1.550 -0.5914  0.0168 -0.0349
   67MOL    C5421306   0.223   7.672   1.663  0.6459 -0.0031 -0.1148
   67MOL    C5521307   0.357   7.701   1.691 -0.4444  0.0279  0.1252
   67MOL    C5621308   0.460   7.614   1.654  0.0415  0.2394 -0.2184
   67MOL    C5721309   0.433   7.489   1.596  1.1966 -0.3596 -0.5205
   67MOL    C5821310   0.334   7.202   1.602  0.6293 -0.3717 -0.9433
   67MOL    H5921311   0.167   7.302   1.494  0.2849  1.6622 -0.5505
   67MOL    H6021312   0.144   7.743   1.684  1.7629  0.5101  2.5151
   67MOL    H6121313   0.382   7.795   1.737 -2.0595  0.9117 -0.7680
   67MOL    H6221314   0.564   7.643   1.660  0.5322 -1.5736  0.3460
   67MOL    H6321315   0.517   7.434   1.556  0.1960 -0.7052 -2.1925
   67MOL    H6421316   0.363   7.255   1.693 -0.5238  1.2369 -1.4847
   67MOL    H6521317   0.428   7.167   1.558 -0.1861 -3.0024 -0.6427
   67MOL    C6621318   0.239   7.087   1.642 -0.1736 -0.2401  0.6277
   67MOL    C6721319   0.220   6.997   1.520  0.3713 -0.4799  0.7192
   67MOL    C6821320   0.314   6.900   1.490  0.1211  0.4619  0.9213
   67MOL   Cl6921321   0.458   6.886   1.591  0.6213 -0.1329 -0.3029
   67MOL    C7021322   0.291   6.817   1.378 -0.3313 -0.1340  0.3561
   67MOL    C7121323   0.175   6.823   1.304  1.2963  0.6984 -0.4743
   67MOL    C7221324   0.080   6.926   1.338 -0.1705 -0.1050 -0.0131
   67MOL    C7321325   0.099   7.012   1.442 -0.1581 -0.9008  0.0888
   67MOL    C7421326   0.106   7.142   1.708  0.5664  0.1375  0.4485
   67MOL    H7521327   0.288   7.026   1.717  1.4358 -0.2450 -0.3976
   67MOL    H7621328   0.361   6.736   1.360 -0.9273 -0.3394 -1.0413
   67MOL    H7721329   0.173   6.758   1.217  0.4587  1.4394 -1.0218
   67MOL    H7821330   8.417   6.937   1.271  0.8020 -1.1232 -1.4335
   67MOL    H7921331   0.035   7.097   1.459 -0.9358 -1.6053  0.7044
   67MOL    H8021332   0.035   7.061   1.727  1.3253 -0.4941  0.6072
   67MOL    H8121333   0.048   7.212   1.648 -0.1347 -1.4181 -0.7170
   67MOL    C8221334   0.133   7.221   1.833  0.2589 -0.8466 -0.3340
   67MOL    C8321335   0.211   7.143   1.935  0.0664  0.7350  0.0974
   67MOL    C8421336   0.327   7.196   1.999 -0.7788  0.4155 -0.3667
   67MOL   Cl8521337   0.391   7.356   1.955  0.0842 -0.5360 -0.4273
   67MOL    C8621338   0.410   7.114   2.078 -0.2958 -0.1691 -0.3428
   67MOL    C8721339   0.372   6.978   2.099 -0.3831 -0.1016 -0.6054
   67MOL    C8821340   0.259   6.931   2.033  0.1753  0.5900  0.1679
   67MOL    C8921341   0.171   7.013   1.962 -0.2338  0.2994  0.3052
   67MOL    C9021342   8.409   7.270   1.886 -0.3717 -0.5196  0.7196
   67MOL    H9121343   0.182   7.315   1.807  0.0753 -1.2602 -2.2271
   67MOL    H9221344   0.496   7.149   2.133 -1.1692 -0.9556  1.5484
   67MOL    H9321345   0.449   6.916   2.143  0.7352  0.7416 -1.3088
   67MOL    H9421346   0.236   6.828   2.059 -1.8192  0.2573 -2.6795
   67MOL    H9521347   0.074   6.980   1.927 -0.7527 -0.7157  2.5754
   67MOL    H9621348   8.348   7.186   1.919 -1.6916  0.3575  0.5501
   67MOL    H9721349   8.367   7.319   1.798  0.8458 -0.7482 -0.0103
   67MOL    C9821350   8.406   7.370   2.010 -0.0237 -0.8057  0.0844
   67MOL    C9921351   8.274   7.362   2.088 -0.9160  0.0843 -0.1825
   67MOL   C10021352   8.259   7.280   2.206 -0.0905 -0.0995 -0.0601
   67MOL  Cl10121353   8.383   7.162   2.247  0.0153 -0.2827  0.1220
   67MOL   C10221354   8.143   7.294   2.283 -0.0718 -0.3140 -0.0554
   67MOL   C10321355   8.038   7.382   2.247 -0.3209 -0.8343  0.7912
   67MOL   C10421356   8.045   7.451   2.128  0.3669  0.7670 -0.2111
   67MOL   C10521357   8.163   7.442   2.049  0.5865 -0.0050 -0.1444
   67MOL   C10621358   0.029   7.517   1.979 -0.8635 -0.4375 -0.0811
   67MOL   H10721359   0.065   7.336   2.076 -0.0658 -1.0226  0.0231
   67MOL   H10821360   8.135   7.240   2.376  1.7195  2.7073  1.9207
   67MOL   H10921361   7.960   7.377   2.321 -1.7350  0.7018 -0.5546
   67MOL   H11021362   7.963   7.513   2.095 -2.4255 -0.4644  4.1426
   67MOL   H11121363   8.172   7.496   1.956 -2.0595 -0.5135 -0.7420
   67MOL   H11221364   8.396   7.549   1.890  0.9218 -0.0622 -1.0416
   67MOL   H11321365   0.134   7.517   1.948 -0.4852  0.7820  1.1348
   67MOL   C11421366   0.003   7.627   2.088  0.0028  0.2798 -0.0451
   67MOL   C11521367   8.416   7.764   2.013 -0.2019 -0.3942  0.3355
   67MOL   C11621368   8.298   7.842   2.001  0.8345 -0.2967 -0.0166
   67MOL  Cl11721369   8.151   7.786   2.073 -0.4451  0.2798  0.1720
   67MOL   C11821370   8.298   7.967   1.934  1.1448 -0.3390 -0.5781
   67MOL   C11921371   0.001   8.020   1.892 -0.1319  0.0204 -0.0088
   67MOL   C12021372   0.120   7.939   1.887  0.7426 -0.2064  0.1882
   67MOL   C12121373   0.115   7.814   1.950  0.1749  0.3009  0.3108
   67MOL   C12221374   0.115   7.624   2.196  0.0008  0.6863  0.5081
   67MOL   H12321375   8.328   7.616   2.139  1.5311  0.7663  3.0504
   67MOL   H12421376   8.208   8.027   1.941  0.1593 -2.0344  2.7208
   67MOL   H12521377   0.015   8.124   1.865 -1.4194  0.2961  0.3783
   67MOL   H12621378   0.212   7.987   1.857 -0.6456  1.8410 -0.9459
   67MOL   H12721379   0.201   7.750   1.961  0.3823  0.1947 -1.6273
   67MOL   H12821380   0.202   7.676   2.156 -0.0644 -0.8017 -1.6133
   67MOL   H12921381   0.148   7.525   2.229  0.5295  1.0043  0.9591
   67MOL   C13021382   0.069   7.700   2.324  0.8034  0.9681 -0.6266
   67MOL   C13121383   0.179   7.800   2.374  0.4986 -0.1642 -0.4501
   67MOL   C13221384   0.178   7.942   2.344 -0.2940  0.2542  0.2176
   67MOL  Cl13321385   0.045   8.005   2.248  0.3131 -0.0889 -0.4238
   67MOL   C13421386   0.278   8.034   2.395  0.4120  0.3052 -0.3740
   67MOL   C13521387   0.383   7.981   2.471 -0.5788  0.8423  0.3958
   67MOL   C13621388   0.398   7.840   2.491  0.3671 -0.1907  0.3495
   67MOL   C13721389   0.294   7.755   2.439  0.7949 -0.4564  0.3912
   67MOL   C13821390   0.030   7.592   2.441  0.1366  0.6214 -0.1277
   67MOL   H13921391   8.400   7.760   2.310 -1.7933 -2.6213 -0.1684
   67MOL   H14021392   0.275   8.140   2.378 -2.8460 -0.1734 -3.5119
   67MOL   H14121393   0.463   8.042   2.511  1.2856 -0.3867 -1.3722
   67MOL   H14221394   0.493   7.811   2.533  0.8488  1.9704  0.8147
   67MOL   H14321395   0.299   7.648   2.445  1.8797 -0.3910  0.7260
   67MOL   H14421396   0.115   7.537   2.481 -1.2820  0.7884  3.2823
   67MOL   H14521397   8.395   7.514   2.390  1.8608 -0.6870 -0.0306
   67MOL   C14621398   8.365   7.635   2.563  0.2445  0.0098  0.5437
   67MOL   C14721399   8.355   7.515   2.655 -0.0198  0.7020 -0.0330
   67MOL   C14821400   0.022   7.490   2.764 -0.3193  0.5529  0.0595
   67MOL  Cl14921401   0.154   7.605   2.790  0.1539  0.1507  0.1115
   67MOL   C15021402   0.022   7.379   2.846 -0.3262  0.2511  0.3809
   67MOL   C15121403   8.334   7.295   2.839 -0.0646  0.4237 -0.0495
   67MOL   C15221404   8.233   7.311   2.736 -0.7923 -0.6246 -0.3803
   67MOL   C15321405   8.246   7.423   2.642 -0.0109  0.3569  0.4720
   67MOL   C15421406   8.224   7.686   2.526 -0.5474 -0.4993 -0.4616
   67MOL   H15521407   8.418   7.718   2.609  0.7306 -0.4842  0.8714
   67MOL   H15621408   0.097   7.359   2.921  1.2362 -1.6745 -1.6258
   67MOL   H15721409   8.329   7.219   2.915 -1.5905  1.3163  0.7755
   67MOL   H15821410   8.142   7.253   2.745 -1.1416 -0.1396 -0.7459
   67MOL   H15921411   8.175   7.421   2.560  0.5848 -0.4156 -0.0340
   67MOL   H16021412   8.134   7.641   2.569 -0.8772 -0.7595 -1.4182
   67MOL   H16121413   8.207   7.677   2.419  0.0822 -1.0526 -0.5214
   67MOL   C16221414   8.213   7.836   2.551 -0.6643  0.5591  0.5699
   67MOL   C16321415   8.217   7.879   2.700 -0.5039  0.0295 -0.0866
   67MOL   C16421416   8.276   8.000   2.740  0.1362 -0.0874  0.0140
   67MOL  Cl16521417   8.323   8.128   2.633 -0.6845  0.0679 -0.0322
   67MOL   C16621418   8.308   8.025   2.877 -0.3244 -0.5792 -0.2668
   67MOL   C16721419   8.279   7.936   2.979  0.4346  0.4783  0.1111
   67MOL   C16821420   8.215   7.815   2.934  0.0435 -0.8166  0.6625
   67MOL   C16921421   8.184   7.787   2.800  0.8582  0.1665 -0.2075
   67MOL   C17021422   8.096   7.896   2.476 -0.2383 -0.1694  0.4390
   67MOL   H17121423   8.296   7.887   2.503 -0.4635  0.2904  0.6321
   67MOL   H17221424   8.358   8.114   2.911 -0.6527 -0.1238 -0.9603
   67MOL   H17321425   8.296   7.951   3.084 -1.3736  2.3008  0.1702
   67MOL   H17421426   8.204   7.740   3.012  1.7814 -0.0566  1.6692
   67MOL   H17521427   8.146   7.691   2.767  0.5699  0.5482 -1.0251
   67MOL   H17621428   8.094   7.868   2.370  0.8976  1.6052 -0.0760
   67MOL   H17721429   8.104   8.005   2.472 -0.7121 -0.1106  1.1304
   67MOL   C17821430   7.954   7.857   2.540  0.6341 -0.4534  0.1191
   67MOL   C17921431   7.865   7.785   2.435  0.5646  0.4214  0.1908
   67MOL   C18021432   7.788   7.670   2.470  0.3457  0.3034 -0.1558
   67MOL  Cl18121433   7.815   7.596   2.626  0.1764 -0.5105 -0.2450
   67MOL   C18221434   7.686   7.624   2.387 -0.0759 -0.4997  0.0155
   67MOL   C18321435   7.660   7.688   2.261 -0.3705 -0.1352  0.1433
   67MOL   C18421436   7.734   7.800   2.224 -0.0786  0.0212 -0.0960
   67MOL   C18521437   7.837   7.849   2.313 -0.2051  0.0518  0.4905
   67MOL   C18621438   7.887   7.987   2.585  0.5647  0.1886 -0.1098
   67MOL   H18721439   7.976   7.794   2.627  2.4005  1.7758  1.3558
   67MOL   H18821440   7.616   7.547   2.418  0.1621 -0.9138 -0.4689
   67MOL   H18921441   7.581   7.653   2.196 -1.2534 -1.4527  1.8476
   67MOL   H19021442   7.706   7.854   2.135 -0.7543 -0.8762 -0.4403
   67MOL   H19121443   7.889   7.934   2.270 -1.8020  0.3883 -0.8305
   67MOL   H19221444   7.862   8.053   2.502  1.2613 -0.3997 -0.7958
   67MOL   H19321445   7.964   8.040   2.641 -0.8437  2.4443 -0.2302
   67MOL   C19421446   7.754   7.972   2.675 -0.5904 -0.6263  1.0275
   67MOL   C19521447   7.691   8.109   2.703  0.3986  0.1942 -0.3915
   67MOL   C19621448   7.567   8.151   2.642 -0.7907  0.0667 -0.2937
   67MOL  Cl19721449   7.481   8.052   2.530  0.3123 -0.0746  0.0723
   67MOL   C19821450   7.519   8.278   2.668 -0.8401  0.0709 -0.1603
   67MOL   C19921451   7.576   8.365   2.756  0.1537  0.1426  0.3754
   67MOL   C20021452   7.691   8.320   2.823 -0.3609 -0.2990 -0.4085
   67MOL   C20121453   7.760   8.200   2.791 -0.1302 -0.3051  0.1879
   67MOL   C20221454   7.788   7.902   2.810 -0.0022  0.1369  0.2724
   67MOL   H20321455   7.687   7.920   2.606  2.4977 -1.6566 -1.3113
   67MOL   H20421456   7.425   8.301   2.619 -1.7653  0.1172  1.5671
   67MOL   H20521457   7.525   0.039   2.767 -0.8643 -0.2605 -0.8995
   67MOL   H20621458   7.747   8.389   2.886  0.3646 -1.7876  0.5897
   67MOL   H20721459   7.848   8.167   2.844  0.8935  0.2865 -1.0981
   67MOL   H20821460   7.879   7.948   2.849  0.9910 -0.1139 -1.7071
   67MOL   H20921461   7.811   7.797   2.790  0.7461  0.2285  0.6361
   67MOL   C21021462   7.668   7.893   2.916  0.6862  0.7005 -0.2376
   67MOL   C21121463   7.707   7.818   3.041  0.1488 -0.1469 -0.0962
   67MOL   C21221464   7.685   7.870   3.174  0.0567  0.3426  0.0763
   67MOL  Cl21321465   7.606   8.018   3.208  0.2899  0.0367  0.3037
   67MOL   C21421466   7.708   7.781   3.284  0.4071  0.0742  0.1413
   67MOL   C21521467   7.768   7.656   3.273  0.1265 -0.3281  0.3927
   67MOL   C21621468   7.780   7.605   3.145  0.4268  1.0122  0.4165
   67MOL   C21721469   7.754   7.683   3.030  0.5981  0.3777 -0.2550
   67MOL   C21821470   7.535   7.841   2.857 -0.3571  0.4155  0.4679
   67MOL   H21921471   7.645   7.996   2.946 -0.6488  0.1407  0.7113
   67MOL   H22021472   7.696   7.815   3.385 -0.8274  1.7442 -0.5453
   67MOL   H22121473   7.797   7.593   3.356  0.3023 -1.5665 -0.5901
   67MOL   H22221474   7.816   7.506   3.121 -1.8237  0.7172 -2.0303
   67MOL   H22321475   7.763   7.633   2.935 -1.8081 -0.6153  0.0145
   67MOL   H22421476   7.551   7.739   2.822  1.6061  0.6210  0.6841
   67MOL   H22521477   7.510   7.893   2.765 -3.4678  0.9780  1.5740
   67MOL   C22621478   7.407   7.831   2.937 -0.7039 -0.7228 -0.2691
   67MOL   C22721479   7.323   7.709   2.891  0.5597 -0.2994 -0.0244
   67MOL   C22821480   7.286   7.611   2.982 -0.1834  0.3222  0.2084
   67MOL  Cl22921481   7.323   7.614   3.154 -0.3268  0.3226  0.0091
   67MOL   C23021482   7.204   7.513   2.933 -0.0526 -0.5782  0.6178
   67MOL   C23121483   7.168   7.508   2.795  0.8797 -0.3350  0.4671
   67MOL   C23221484   7.214   7.605   2.703 -0.2216  0.4421 -1.6484
   67MOL   C23321485   7.287   7.711   2.752 -0.2075  0.0842  0.3013
   67MOL   C23421486   7.324   7.964   2.924 -0.1543 -0.5374  0.7214
   67MOL   H23521487   7.431   7.821   3.042 -1.8571  3.4333  0.4972
   67MOL   H23621488   7.170   7.427   2.990 -0.5714 -1.9496 -1.6873
   67MOL   H23721489   7.120   7.421   2.752  2.7186 -0.1711 -2.0049
   67MOL   H23821490   7.190   7.590   2.598 -1.4204  3.5176 -1.8572
   67MOL   H23921491   7.315   7.793   2.688 -0.7777 -1.2696 -1.7019
   67MOL   H24021492   7.275   7.970   2.827  0.7245  0.9453  0.3488
   67MOL   H24121493   7.401   8.041   2.929 -2.3960  1.7440  0.9494
   67MOL   C24221494   7.214   7.993   3.037 -0.4478 -0.1432  0.6368
   67MOL   C24321495   7.096   7.897   3.035  0.3699  0.0639 -0.1067
   67MOL   C24421496   7.062   7.824   3.155 -0.5699  1.3191 -0.0602
   67MOL  Cl24521497   7.142   7.840   3.303 -0.2214 -0.0968  0.2864
   67MOL   C24621498   6.954   7.735   3.140  0.2753 -0.8015 -0.2975
   67MOL   C24721499   6.892   7.705   3.021  0.2550 -0.1816  0.1528
   67MOL   C24821500   6.926   7.774   2.907 -0.1415 -0.6248 -0.0927
   67MOL   C24921501   7.027   7.873   2.915 -0.0196 -0.5509 -0.6191
   67MOL   C25021502   7.174   8.146   3.030 -0.2050  0.4211 -0.2719
   67MOL   H25121503   7.268   7.981   3.131  1.3088  0.3714 -0.2819
   67MOL   H25221504   6.938   7.681   3.232  0.5138  0.2272  0.3585
   67MOL   H25321505   6.805   7.641   3.027 -0.4606  0.2703 -3.7452
   67MOL   H25421506   6.878   7.753   2.813 -1.2857  0.8619  0.1467
   67MOL   H25521507   7.066   7.927   2.830 -0.1770 -0.5650 -0.7011
   67MOL   H25621508   7.134   8.165   2.930 -1.0231  0.0030 -0.0328
   67MOL   H25721509   7.261   8.210   3.040  0.3394 -0.5882  1.5305
   67MOL   C25821510   7.069   8.206   3.130  0.7637 -0.0945  0.5662
   67MOL   C25921511   7.029   8.347   3.081 -0.3441  0.1846 -1.1163
   67MOL   C26021512   6.894   8.364   3.037 -0.9046 -0.4318  0.4091
   67MOL  Cl26121513   6.775   8.245   3.057 -0.4019  0.1875  0.0203
   67MOL   C26221514   6.850   0.065   2.981  0.5179 -0.3320 -0.9385
   67MOL   C26321515   6.948   0.165   2.963 -0.5788  0.1473 -0.0732
   67MOL   C26421516   7.082   0.158   3.012 -0.3657  0.2378  0.4844
   67MOL   C26521517   7.125   0.034   3.071 -0.1458  0.6778 -0.1829
   67MOL   C26621518   7.139   8.207   3.264  0.1177  0.2654 -0.0649
   67MOL   H26721519   6.984   8.138   3.123 -1.6091  2.4938  3.0746
   67MOL   H26821520   6.750   0.088   2.949  0.0257  0.1164  0.8836
   67MOL   H26921521   6.910   0.257   2.921 -1.6958  0.1697  0.9534
   67MOL   H27021522   7.150   0.241   3.005 -1.6250  1.1826 -0.7421
   67MOL   H27121523   7.223   0.021   3.114 -0.6181 -1.4120  0.3095
   67MOL   H27221524   7.222   8.279   3.266  2.0052 -1.8951  1.7368
   67MOL   H27321525   7.192   8.112   3.273  0.7601  0.5943 -0.3338
   67MOL   C27421526   7.051   8.239   3.390  0.1423  0.0984  0.1957
   67MOL   C27521527   7.136   8.269   3.512 -0.2952 -0.8640 -0.0357
   67MOL   C27621528   7.152   8.399   3.563 -0.0844  0.3612 -0.1714
   67MOL  Cl27721529   7.063   0.106   3.484  0.0484 -0.0617  0.0269
   67MOL   C27821530   7.223   0.002   3.682 -1.1954  0.0822  0.2683
   67MOL   C27921531   7.282   8.312   3.751  0.0633 -0.6046  0.8408
   67MOL   C28021532   7.272   8.186   3.693 -0.0537  1.1774  0.1172
   67MOL   C28121533   7.210   8.165   3.572  0.3516  0.1125 -0.4452
   67MOL   C28221534   6.947   8.128   3.422 -0.1044  0.7213 -0.4906
   67MOL   H28321535   6.988   8.323   3.363 -0.8759 -0.6668  0.1671
   67MOL   H28421536   7.231   0.103   3.721  2.2430 -0.9590  2.4292
   67MOL   H28521537   7.344   8.333   3.837 -2.7005 -1.7574  3.1656
   67MOL   H28621538   7.330   8.102   3.729 -1.5323 -1.5394 -3.5072
   67MOL   H28721539   7.219   8.066   3.531 -1.7429 -0.0533 -0.5712
   67MOL   H28821540   6.995   8.031   3.426 -2.0582 -0.4239 -3.1914
   67MOL   H28921541   6.876   8.125   3.339  0.9594  1.9170 -1.4667
   67MOL   C29021542   6.856   8.151   3.547  0.3915  0.4192  0.2676
   67MOL   C29121543   6.905   8.093   3.680  0.0767  0.0909  0.3112
   67MOL   C29221544   6.928   8.178   3.790  0.0749 -0.6452  0.7559
   67MOL  Cl29321545   6.885   8.347   3.780  0.1436  0.1198  0.3566
   67MOL   C29421546   6.989   8.120   3.906  0.3100  0.2816  0.2004
   67MOL   C29521547   7.026   7.987   3.910 -0.2271  0.1267 -0.9666
   67MOL   C29621548   6.992   7.898   3.803  0.1471  0.1810 -0.4782
   67MOL   C29721549   6.937   7.955   3.689  0.3767  0.2155  0.0134
   67MOL   C29821550   6.706   8.121   3.523 -0.7468 -0.4631  0.2403
   67MOL   H29921551   6.862   8.260   3.554 -1.3466  0.4716  1.1945
   67MOL   H30021552   7.020   8.184   3.988 -1.3713  0.2835  0.8534
   67MOL   H30121553   7.072   7.944   3.998 -2.6719 -1.6845 -0.5019
   67MOL   H30221554   7.013   7.793   3.816  1.4196  0.2615 -1.8315
   67MOL   H30321555   6.911   7.884   3.612  1.1148  1.5064 -1.4545
   67MOL   H30421556   6.692   8.018   3.488 -0.1853 -0.9910  1.5351
   67MOL   H30521557   6.682   8.181   3.435  1.5399 -1.6933 -1.2923
   67MOL   C30621558   6.614   8.166   3.639  0.0177 -0.7030 -0.9206
   67MOL   C30721559   6.623   8.087   3.767 -0.2274  0.5065 -0.3038
   67MOL   C30821560   6.618   7.944   3.774  0.2550  0.1337 -0.3459
   67MOL  Cl30921561   6.569   7.843   3.648 -0.8308  0.0678 -0.2490
   67MOL   C31021562   6.638   7.885   3.897  0.1164  0.0908  0.6881
   67MOL   C31121563   6.658   7.963   4.017  0.0590 -0.5984  0.7570
   67MOL   C31221564   6.655   8.102   4.010  0.5406  0.2705  0.1330
   67MOL   C31321565   6.634   8.161   3.887 -0.7512  0.4866  0.3791
   67MOL   C31421566   6.470   8.179   3.590  0.6436  0.7837 -0.2125
   67MOL   H31521567   6.647   8.269   3.650  1.3290 -1.3173  1.1299
   67MOL   H31621568   6.641   7.780   3.920 -4.9390 -0.5439 -1.0043
   67MOL   H31721569   6.673   7.909   4.109 -0.1987 -1.2618  0.4183
   67MOL   H31821570   6.661   8.158   4.102  1.5429  1.4210 -0.6217
   67MOL   H31921571   6.630   8.269   3.881  3.0551  0.6017 -1.9800
   67MOL   H32021572   6.462   8.250   3.508  2.8855  0.2604 -0.9222
   67MOL   H32121573   6.400   8.215   3.666  1.5401 -0.9182  1.4670
   67MOL   H32221574   6.445   8.078   3.555  2.1981  0.4564 -0.4267
   68MOL     C121575   2.952   8.130   1.831 -0.9624  0.3920  0.5274
   68MOL     C221576   3.045   8.102   1.716 -0.2764 -0.5398 -0.0138
   68MOL     C321577   3.182   8.132   1.723  0.3903 -1.5546 -0.4781
   68MOL    Cl421578   3.256   8.168   1.872  0.1307 -0.0121  0.0009
   68MOL     C521579   3.263   8.114   1.606 -0.0757  0.3736 -0.4364
   68MOL     C621580   3.207   8.072   1.486 -0.5000  0.7082  0.5679
   68MOL     C721581   3.067   8.044   1.475  0.5528 -0.2520 -0.4217
   68MOL     C821582   2.991   8.045   1.596  0.5094  0.2638 -0.3519
   68MOL     C921583   2.887   7.995   1.893  0.1606  0.5790  0.7491
   68MOL    H1021584   2.995   8.204   1.899  0.7491 -2.0623  2.1759
   68MOL    H1121585   3.370   8.130   1.612 -0.4909  2.8604  0.6921
   68MOL    H1221586   3.270   8.059   1.399 -0.7315  0.2343  0.4694
   68MOL    H1321587   3.033   8.000   1.382 -0.9462  0.2688 -0.1331
   68MOL    H1421588   2.888   8.012   1.592  0.9941 -1.5170  1.4974
   68MOL    H1521589   2.967   7.931   1.931  0.3935 -0.3167 -1.1872
   68MOL    H1621590   2.849   7.929   1.816  0.0773  2.1887 -0.6157
   68MOL    H1721591   2.873   8.185   1.779 -1.0414 -0.5122 -0.3262
   68MOL    C1821592   2.771   8.012   2.001 -0.3647  0.3135  0.4843
   68MOL    C1921593   2.828   8.089   2.119  0.3710  0.2858 -0.7643
   68MOL    C2021594   2.747   8.194   2.173 -0.1577  0.0857  0.1164
   68MOL   Cl2121595   2.595   8.241   2.098 -0.3473  0.0894  0.1183
   68MOL    C2221596   2.797   8.272   2.280 -0.2525  0.1040  0.4480
   68MOL    C2321597   2.915   8.238   2.348 -0.4829 -0.2467 -0.7195
   68MOL    C2421598   2.993   8.132   2.299  0.0393 -0.5081  0.6350
   68MOL    C2521599   2.955   8.058   2.186 -0.3326  0.2930 -0.3767
   68MOL    C2621600   2.704   7.881   2.049  0.8740 -0.1285  0.5380
   68MOL    H2721601   2.700   8.074   1.946  1.9140  1.9421 -0.7094
   68MOL    H2821602   2.739   8.352   2.321 -0.3415 -0.1911  0.9000
   68MOL    H2921603   2.946   8.301   2.430 -0.2707 -1.7730  0.3789
   68MOL    H3021604   3.093   8.121   2.338  1.6945 -0.0332 -3.2410
   68MOL    H3121605   3.016   7.981   2.142  1.4925  2.2192 -1.3187
   68MOL    H3221606   2.627   7.918   2.117  0.5729 -1.2557  0.8161
   68MOL    H3321607   2.776   7.829   2.112  0.6197 -0.0711  0.8764
   68MOL    C3421608   2.639   7.789   1.946  0.3141 -0.2857  0.8287
   68MOL    C3521609   2.569   7.864   1.832  0.4414  0.5033 -0.4067
   68MOL    C3621610   2.607   7.841   1.695 -0.2275 -0.1934 -0.4546
   68MOL   Cl3721611   2.710   7.718   1.654  0.4030 -0.0767  0.4664
   68MOL    C3821612   2.561   7.927   1.595 -0.1267 -1.1558 -0.9001
   68MOL    C3921613   2.458   8.025   1.627 -0.0197  0.3687 -0.4838
   68MOL    C4021614   2.413   8.041   1.756 -0.6445 -0.1121 -0.6688
   68MOL    C4121615   2.479   7.967   1.859  0.3998 -0.4299 -0.7029
   68MOL    C4221616   2.542   7.684   2.013  0.5987 -0.6022  0.0030
   68MOL    H4321617   2.718   7.736   1.894  1.7388  2.0504  0.5280
   68MOL    H4421618   2.585   7.896   1.494 -0.5614  0.5115 -1.5209
   68MOL    H4521619   2.416   8.083   1.547  1.0398 -0.9412 -2.0073
   68MOL    H4621620   2.339   8.114   1.787  0.2142  0.7253 -0.5396
   68MOL    H4721621   2.446   7.978   1.961  0.4008 -1.0233 -0.6426
   68MOL    H4821622   2.437   7.712   2.005 -0.3835 -3.7567  0.9496
   68MOL    H4921623   2.577   7.670   2.115  0.5258 -2.8723 -0.2557
   68MOL    C5021624   2.548   7.540   1.968 -0.4512  0.2692  0.3242
   68MOL    C5121625   2.520   7.518   1.824 -1.4210 -0.1655  0.5757
   68MOL    C5221626   2.609   7.440   1.744 -0.6113  0.0408 -0.1723
   68MOL   Cl5321627   2.754   7.363   1.801 -0.1487 -0.1846  0.1869
   68MOL    C5421628   2.579   7.423   1.609  0.2213  0.4199  0.6169
   68MOL    C5521629   2.463   7.473   1.552  0.1387  0.0530 -0.0781
   68MOL    C5621630   2.372   7.542   1.628  0.3608 -0.1952  0.8441
   68MOL    C5721631   2.400   7.566   1.767  0.2204  0.6889  0.6850
   68MOL    C5821632   2.443   7.455   2.045 -0.5700  0.5579 -0.5545
   68MOL    H5921633   2.644   7.494   1.989 -0.7371 -0.7144 -0.4699
   68MOL    H6021634   2.640   7.369   1.538 -1.7644  0.9778 -1.5851
   68MOL    H6121635   2.434   7.458   1.449 -0.5404 -0.6329  0.2027
   68MOL    H6221636   2.279   7.579   1.590  0.4354 -0.8874 -0.0100
   68MOL    H6321637   2.310   7.601   1.817  0.1355  0.1432  0.9119
   68MOL    H6421638   2.449   7.358   1.995 -1.4225  0.8429 -1.2119
   68MOL    H6521639   2.340   7.486   2.029 -0.5746  1.4962  1.2335
   68MOL    C6621640   2.468   7.407   2.194 -0.1776 -0.4419  0.5246
   68MOL    C6721641   2.601   7.327   2.203 -0.2738  0.0079  0.2466
   68MOL    C6821642   2.717   7.364   2.275 -0.2196 -0.5838  0.1361
   68MOL   Cl6921643   2.726   7.513   2.364  0.2308  0.2667 -0.3124
   68MOL    C7021644   2.829   7.282   2.280 -0.6922  0.0395 -0.2340
   68MOL    C7121645   2.828   7.155   2.211 -0.3843 -0.1429  0.0115
   68MOL    C7221646   2.716   7.120   2.143  0.5217 -0.3443  0.6595
   68MOL    C7321647   2.602   7.201   2.132  0.0508 -0.2735  0.5118
   68MOL    C7421648   2.344   7.323   2.240 -0.7827  0.2357 -0.3705
   68MOL    H7521649   2.482   7.503   2.243  1.1548 -0.3247 -0.0628
   68MOL    H7621650   2.921   7.312   2.327  0.1159 -1.4086 -0.8767
   68MOL    H7721651   2.916   7.092   2.208  2.1098  3.2483 -0.9784
   68MOL    H7821652   2.712   7.025   2.093  1.2995  1.1533 -2.3987
   68MOL    H7921653   2.514   7.170   2.078  0.1945  0.2079 -0.0040
   68MOL    H8021654   2.322   7.228   2.191  2.0529 -1.7128  2.0234
   68MOL    H8121655   2.256   7.380   2.210 -2.3757 -1.3515  1.2197
   68MOL    C8221656   2.324   7.300   2.391  0.4326 -0.0137 -0.6306
   68MOL    C8321657   2.365   7.416   2.489 -0.9518 -0.1368 -0.1239
   68MOL    C8421658   2.282   7.528   2.507 -0.2875 -0.1851  0.6487
   68MOL   Cl8521659   2.132   7.529   2.415 -0.0444 -0.2417  0.0354
   68MOL    C8621660   2.318   7.637   2.591  0.5094  0.5886  0.4235
   68MOL    C8721661   2.432   7.633   2.665  0.8847  0.5490  0.1530
   68MOL    C8821662   2.511   7.515   2.663  0.2183  0.1625  0.8029
   68MOL    C8921663   2.480   7.415   2.574  1.1054  0.8641 -0.6021
   68MOL    C9021664   2.376   7.157   2.437  0.7584 -0.0839 -0.6867
   68MOL    H9121665   2.216   7.294   2.402  0.6567  0.3842  2.2547
   68MOL    H9221666   2.262   7.729   2.600 -0.6848  0.0777 -1.4607
   68MOL    H9321667   2.448   7.707   2.742 -3.7482  0.4150  1.4353
   68MOL    H9421668   2.599   7.521   2.725  0.1699  2.7710  0.7043
   68MOL    H9521669   2.540   7.325   2.578  1.2987  1.0359  0.6967
   68MOL    H9621670   2.339   7.151   2.540  1.9927  1.3881 -0.1377
   68MOL    H9721671   2.481   7.149   2.463 -0.1186 -1.3119  2.8110
   68MOL    C9821672   2.326   7.019   2.371  0.2952 -1.5472 -0.1369
   68MOL    C9921673   2.178   7.017   2.338  0.8057 -0.4798  0.0697
   68MOL   C10021674   2.140   6.992   2.199  0.1751 -0.1018 -0.7433
   68MOL  Cl10121675   2.257   6.991   2.071  0.7890  0.1041  0.3746
   68MOL   C10221676   2.004   6.972   2.171 -0.1422  0.5826  0.0522
   68MOL   C10321677   1.907   6.982   2.270  0.1511 -0.2004  0.3553
   68MOL   C10421678   1.944   7.014   2.401  0.4620  0.3657  0.3938
   68MOL   C10521679   2.083   7.033   2.437 -0.6309 -0.5796 -0.1868
   68MOL   C10621680   2.357   6.907   2.468  0.3545  0.1656  0.4045
   68MOL   H10721681   2.388   7.002   2.283  2.5478 -0.4153  1.1920
   68MOL   H10821682   1.979   6.948   2.069  0.3018 -0.5025  0.1882
   68MOL   H10921683   1.804   6.968   2.239 -0.4325 -0.3291  2.3128
   68MOL   H11021684   1.862   7.017   2.472  0.3192  1.0230  0.2031
   68MOL   H11121685   2.119   7.049   2.538  3.5156 -3.9575 -0.9936
   68MOL   H11221686   2.299   6.824   2.429  1.0380  0.7122 -1.8221
   68MOL   H11321687   2.326   6.935   2.569  0.5297 -0.0632  0.5216
   68MOL   C11421688   2.499   6.848   2.478 -0.4564  0.5255  0.7917
   68MOL   C11521689   2.556   6.820   2.338  0.0646  0.2857 -0.2707
   68MOL   C11621690   2.699   6.810   2.319  0.4404  1.1169  0.6325
   68MOL  Cl11721691   2.804   6.851   2.447 -0.0256 -0.4934  0.0864
   68MOL   C11821692   2.754   6.762   2.199  0.0392  0.1405  0.0357
   68MOL   C11921693   2.667   6.717   2.102 -0.9187  0.3436  0.2891
   68MOL   C12021694   2.530   6.700   2.124  0.1008 -0.0070 -1.0748
   68MOL   C12121695   2.476   6.763   2.243 -0.0941 -0.4632  0.0729
   68MOL   C12221696   2.506   6.723   2.568  0.1465  0.1924 -0.3712
   68MOL   H12321697   2.561   6.923   2.527  0.0384 -0.4910  1.7406
   68MOL   H12421698   2.861   6.754   2.192 -0.0073 -0.8662  0.4287
   68MOL   H12521699   2.699   6.683   2.004 -0.0214  0.2918  0.5971
   68MOL   H12621700   2.460   6.654   2.056 -0.7187 -1.8838  0.9754
   68MOL   H12721701   2.369   6.757   2.248 -0.4340  3.7258 -0.4884
   68MOL   H12821702   2.610   6.692   2.579 -0.0139 -0.5631 -0.9311
   68MOL   H12921703   2.471   6.644   2.502  1.0534  1.3653 -2.2795
   68MOL   C13021704   2.431   6.724   2.707 -0.1065  0.5751 -0.5929
   68MOL   C13121705   2.472   6.849   2.788 -0.7095 -0.3746  0.0862
   68MOL   C13221706   2.373   6.927   2.857 -0.8678  0.0332  0.6911
   68MOL  Cl13321707   2.206   6.907   2.832 -0.0425 -0.2126 -0.0451
   68MOL   C13421708   2.426   7.036   2.932  0.0909 -0.8342  0.1096
   68MOL   C13521709   2.566   7.061   2.938 -1.3795 -0.0960 -0.2618
   68MOL   C13621710   2.659   6.980   2.880 -0.1795 -0.2828  0.2527
   68MOL   C13721711   2.615   6.874   2.804  0.9269  0.5949  0.2748
   68MOL   C13821712   2.473   6.600   2.789  0.4895  0.3181 -0.2443
   68MOL   H13921713   2.325   6.727   2.682 -0.4686  1.5143  0.9506
   68MOL   H14021714   2.363   7.101   2.991 -1.9674 -1.5057 -1.3315
   68MOL   H14121715   2.604   7.147   2.991  0.0689  0.7165 -2.5325
   68MOL   H14221716   2.766   6.990   2.894  0.1087 -1.9991 -0.5891
   68MOL   H14321717   2.695   6.821   2.754 -0.1413 -0.4580 -0.3401
   68MOL   H14421718   2.428   6.607   2.888  0.5406 -2.2077  0.0119
   68MOL   H14521719   2.581   6.594   2.801  0.3942 -2.4984 -0.4144
   68MOL   C14621720   2.411   6.475   2.720  0.3294  0.9794  0.1538
   68MOL   C14721721   2.265   6.497   2.681 -0.0003  0.1980  0.2613
   68MOL   C14821722   2.208   6.493   2.551 -0.6478 -0.5060 -0.1192
   68MOL  Cl14921723   2.310   6.478   2.414 -0.0707  0.1648 -0.5261
   68MOL   C15021724   2.073   6.517   2.531 -0.0452  1.0670 -0.5928
   68MOL   C15121725   1.985   6.542   2.634  0.0071  0.4107 -0.6103
   68MOL   C15221726   2.038   6.554   2.763  0.6334  0.4687 -0.4435
   68MOL   C15321727   2.173   6.526   2.789  0.3945 -0.0973  0.0094
   68MOL   C15421728   2.427   6.347   2.812  0.1643 -0.1423 -0.5506
   68MOL   H15521729   2.468   6.458   2.629  1.1183 -1.3616  1.0507
   68MOL   H15621730   2.043   6.509   2.427 -0.1012 -1.2895 -0.4276
   68MOL   H15721731   1.878   6.548   2.621  0.1878  0.7017 -2.0411
   68MOL   H15821732   1.970   6.578   2.843  0.2667  1.1085 -0.9386
   68MOL   H15921733   2.202   6.524   2.893 -2.9291 -0.0882  0.9764
   68MOL   H16021734   2.381   6.371   2.908  0.7480 -0.8091 -0.0961
   68MOL   H16121735   2.532   6.353   2.842 -0.1216 -0.1128  0.4586
   68MOL   C16221736   2.382   6.212   2.751 -0.0805 -0.3130 -0.5300
   68MOL   C16321737   2.376   6.094   2.854  0.2930  0.4019 -0.1458
   68MOL   C16421738   2.274   5.997   2.845  0.2294 -0.4719  0.2760
   68MOL  Cl16521739   2.148   5.995   2.719 -0.4544 -0.0210 -0.4884
   68MOL   C16621740   2.275   5.888   2.934  0.0966  0.1165 -1.1856
   68MOL   C16721741   2.377   5.874   3.028 -0.0743  0.0098 -0.4784
   68MOL   C16821742   2.481   5.967   3.027  0.6971  0.9140 -0.3323
   68MOL   C16921743   2.482   6.067   2.939 -0.4788 -0.3192 -0.4860
   68MOL   C17021744   2.445   6.175   2.616 -0.2581 -0.4395  0.5289
   68MOL   H17121745   2.279   6.243   2.733 -0.3808  0.2476  1.9550
   68MOL   H17221746   2.197   5.813   2.927 -0.8587  1.1779 -2.0720
   68MOL   H17321747   2.382   5.791   3.098  1.2600  1.6073  1.3810
   68MOL   H17421748   2.565   5.951   3.092  1.0669 -0.4025 -1.1174
   68MOL   H17521749   2.567   6.134   2.935 -1.3333  0.7177 -1.5257
   68MOL   H17621750   2.423   6.231   2.526 -0.6641  1.8965  2.0364
   68MOL   H17721751   2.380   6.091   2.591 -0.6757 -0.0737  0.3816
   68MOL   C17821752   2.599   6.134   2.604  0.5757 -0.1944 -0.2790
   68MOL   C17921753   2.694   6.249   2.568 -0.7242  0.7470 -0.0329
   68MOL   C18021754   2.820   6.265   2.634 -0.4355  0.7922  0.2382
   68MOL  Cl18121755   2.862   6.158   2.761  0.1526  0.3872  0.1167
   68MOL   C18221756   2.911   6.370   2.608 -0.3830  0.2195  0.4732
   68MOL   C18321757   2.884   6.457   2.496 -0.7970 -0.1494  0.0093
   68MOL   C18421758   2.757   6.446   2.434 -0.5017 -0.3901 -0.4020
   68MOL   C18521759   2.668   6.344   2.466  0.0840  0.3213 -0.4022
   68MOL   C18621760   2.628   6.009   2.507 -0.0890 -0.4268 -0.8853
   68MOL   H18721761   2.618   6.093   2.703 -1.7120  2.1399  1.2145
   68MOL   H18821762   3.002   6.384   2.665 -1.6822  2.3571  2.1054
   68MOL   H18921763   2.956   6.535   2.473  0.0862 -0.9022  0.1607
   68MOL   H19021764   2.731   6.510   2.350  1.3554 -0.8598 -1.3852
   68MOL   H19121765   2.579   6.322   2.408 -0.7056 -0.8871  1.2207
   68MOL   H19221766   2.558   5.931   2.537  0.0889  0.0332  0.8049
   68MOL   H19321767   2.723   5.968   2.542  0.2237  1.0003 -0.0349
   68MOL   C19421768   2.625   6.015   2.354 -0.0469  0.5245 -0.3115
   68MOL   C19521769   2.490   6.074   2.308  0.0389  0.4454  0.2126
   68MOL   C19621770   2.485   6.182   2.217 -0.8485 -0.3329 -0.5359
   68MOL  Cl19721771   2.633   6.266   2.160  0.0797  0.0846 -0.6823
   68MOL   C19821772   2.358   6.231   2.174  0.4030 -0.2546 -0.3912
   68MOL   C19921773   2.242   6.182   2.231 -0.8025 -0.2744 -0.0249
   68MOL   C20021774   2.246   6.079   2.321  0.5347  0.4986  0.4472
   68MOL   C20121775   2.369   6.012   2.350 -0.1236  0.5445 -0.4439
   68MOL   C20221776   2.636   5.876   2.283 -0.8239 -0.6706  0.6409
   68MOL   H20321777   2.707   6.081   2.326 -1.5634  1.9421 -1.4562
   68MOL   H20421778   2.354   6.314   2.105 -1.2270  0.2218  0.2591
   68MOL   H20521779   2.144   6.216   2.202 -0.8650 -1.1016 -0.8368
   68MOL   H20621780   2.152   6.045   2.362 -0.5602 -1.3241 -3.2978
   68MOL   H20721781   2.360   5.923   2.409  1.0227  0.9946  0.4114
   68MOL   H20821782   2.567   5.869   2.199 -0.2651  1.7794 -0.0555
   68MOL   H20921783   2.618   5.788   2.345 -2.2451 -0.1017  1.0597
   68MOL   C21021784   2.775   5.857   2.219 -0.2533 -0.0856 -0.1701
   68MOL   C21121785   2.777   5.745   2.114  0.1531 -0.1668  1.1385
   68MOL   C21221786   2.784   5.766   1.971 -0.6541 -0.2311 -0.0699
   68MOL  Cl21321787   2.791   5.928   1.909  0.0096  0.1084  0.0220
   68MOL   C21421788   2.776   5.659   1.885  0.1869  0.3413 -0.9399
   68MOL   C21521789   2.757   5.530   1.932 -0.7594  0.7588  0.1400
   68MOL   C21621790   2.747   5.504   2.069  1.0980 -0.5459 -0.3524
   68MOL   C21721791   2.758   5.614   2.158 -0.6972 -0.3963 -0.4147
   68MOL   C21821792   2.889   5.840   2.325 -0.0868 -0.8226  0.9566
   68MOL   H21921793   2.796   5.946   2.160  1.1994 -0.7015 -0.5984
   68MOL   H22021794   2.776   5.658   1.777 -2.4795 -1.9853 -0.9910
   68MOL   H22121795   2.758   5.450   1.860 -0.6859  0.1165  0.8456
   68MOL   H22221796   2.725   5.406   2.109 -1.3755  0.6401  1.3411
   68MOL   H22321797   2.747   5.593   2.264  1.5651 -1.0604 -0.2969
   68MOL   H22421798   2.902   5.737   2.358 -1.1588 -1.7197 -1.3324
   68MOL   H22521799   2.862   5.898   2.414 -0.5489 -0.3618  0.5205
   68MOL   C22621800   3.039   5.884   2.290  0.3082 -0.5384  0.6522
   68MOL   C22721801   3.054   6.035   2.281  0.3041  0.0293 -0.4821
   68MOL   C22821802   3.106   6.104   2.396  0.2651 -0.0649 -0.1838
   68MOL  Cl22921803   3.141   6.032   2.551  0.0106  0.5229  0.1173
   68MOL   C23021804   3.130   6.244   2.385  0.5924 -0.0463 -0.0727
   68MOL   C23121805   3.101   6.305   2.268 -0.1538  0.7578  0.6685
   68MOL   C23221806   3.050   6.251   2.148  0.0170  0.2843  0.1975
   68MOL   C23321807   3.034   6.109   2.163 -0.4505  0.1782 -0.3379
   68MOL   C23421808   3.101   5.798   2.170 -0.3144 -0.1430 -0.0172
   68MOL   H23521809   3.092   5.846   2.377  1.2493 -0.6949  0.0082
   68MOL   H23621810   3.165   6.305   2.467  2.0368  0.4118 -1.0130
   68MOL   H23721811   3.127   6.410   2.262 -0.2054  0.6094 -2.6433
   68MOL   H23821812   3.030   6.304   2.056 -0.2199  1.0059  0.6594
   68MOL   H23921813   3.007   6.065   2.069 -1.2134  3.0157 -1.4941
   68MOL   H24021814   3.057   5.827   2.075 -1.2342  2.9946  1.2831
   68MOL   H24121815   3.048   5.703   2.172  0.3840 -0.5019  2.4212
   68MOL   C24221816   3.257   5.790   2.185 -0.6031  0.0653 -0.0331
   68MOL   C24321817   3.336   5.930   2.153 -0.0230  0.5683 -0.0664
   68MOL   C24421818   3.414   5.998   2.243 -0.4076  0.7757  0.0082
   68MOL  Cl24521819   3.454   5.923   2.395 -0.3970  0.2012 -0.1460
   68MOL   C24621820   3.472   6.115   2.213  0.1562 -0.2578 -0.3035
   68MOL   C24721821   3.452   6.180   2.086 -0.4745 -0.7205  0.0242
   68MOL   C24821822   3.370   6.110   1.994  0.0488 -0.8153 -0.0804
   68MOL   C24921823   3.314   5.985   2.025  0.0375  0.2381  0.6243
   68MOL   C25021824   3.327   5.682   2.109  0.4181 -0.9442  0.2898
   68MOL   H25121825   3.283   5.770   2.289  1.2467  1.5217 -0.2098
   68MOL   H25221826   3.535   6.170   2.282 -1.9524  1.4468  0.3223
   68MOL   H25321827   3.472   6.286   2.080 -1.4437 -0.5671 -0.4777
   68MOL   H25421828   3.331   6.154   1.904  2.4432 -1.1655 -1.3094
   68MOL   H25521829   3.248   5.934   1.955 -1.8435  2.1906  0.9149
   68MOL   H25621830   3.434   5.683   2.127 -0.0047 -0.5036  3.0280
   68MOL   H25721831   3.308   5.702   2.003  2.2662  1.9748  0.4693
   68MOL   C25821832   3.286   5.539   2.142 -0.1134  1.4171  0.2690
   68MOL   C25921833   3.296   5.511   2.290  0.1976  0.5519 -0.9030
   68MOL   C26021834   3.186   5.476   2.369 -0.0635  0.6362  0.4582
   68MOL  Cl26121835   3.026   5.459   2.305  0.5229  0.0877 -0.0597
   68MOL   C26221836   3.188   5.472   2.509  0.8069  0.3208 -0.1756
   68MOL   C26321837   3.309   5.502   2.578 -0.5910 -0.0086 -0.3457
   68MOL   C26421838   3.424   5.528   2.499  0.1003 -0.3493 -0.8930
   68MOL   C26521839   3.415   5.530   2.359  0.8988  0.3052  0.2786
   68MOL   C26621840   3.372   5.428   2.070 -0.6999 -1.0258  0.1842
   68MOL   H26721841   3.185   5.510   2.116  0.0115 -0.4081  1.6934
   68MOL   H26821842   3.096   5.445   2.560  1.3156 -0.1957  0.4799
   68MOL   H26921843   3.316   5.503   2.685 -0.1165  1.3870 -0.3794
   68MOL   H27021844   3.523   5.540   2.542 -0.4069 -1.6014  0.6581
   68MOL   H27121845   3.499   5.569   2.303 -0.5930  0.4664 -1.8931
   68MOL   H27221846   3.322   5.336   2.101 -0.2464 -0.9975  1.0356
   68MOL   H27321847   3.473   5.427   2.111 -0.3262 -0.9508 -0.7341
   68MOL   C27421848   3.392   5.443   1.919 -0.0946  0.1590 -0.7883
   68MOL   C27521849   3.260   5.444   1.844 -0.0390 -0.8247  0.4918
   68MOL   C27621850   3.228   5.554   1.756 -0.2563  0.3259 -0.3763
   68MOL  Cl27721851   3.317   5.701   1.726 -0.1069 -0.0007 -0.3579
   68MOL   C27821852   3.105   5.562   1.691 -0.7997  0.2490 -0.8508
   68MOL   C27921853   3.007   5.456   1.706  0.5291 -0.1673  0.6812
   68MOL   C28021854   3.038   5.352   1.794 -0.4717 -0.1965 -0.3632
   68MOL   C28121855   3.161   5.343   1.864 -0.0091  0.3414  0.2194
   68MOL   C28221856   3.478   5.327   1.863  0.3714  0.0603 -0.4178
   68MOL   H28321857   3.443   5.533   1.885  0.1085  0.4937  0.3944
   68MOL   H28421858   3.083   5.652   1.637  0.8117  1.2929  0.1685
   68MOL   H28521859   2.910   5.468   1.659  1.4027  0.9990 -0.8339
   68MOL   H28621860   2.964   5.279   1.822 -0.0172 -0.7531 -0.5973
   68MOL   H28721861   3.186   5.255   1.921 -3.4585 -1.5646 -1.0737
   68MOL   H28821862   3.443   5.233   1.904  0.2073 -0.7255 -2.3152
   68MOL   H28921863   3.577   5.337   1.909  1.0293  0.2184 -1.8348
   68MOL   C29021864   3.491   5.308   1.705 -0.7895  0.1977  0.1548
   68MOL   C29121865   3.526   5.163   1.678  0.5803  0.2126  0.1647
   68MOL   C29221866   3.443   5.066   1.613 -0.2835 -0.0911  0.1744
   68MOL  Cl29321867   3.280   5.093   1.577 -0.2108  0.0624  0.0242
   68MOL   C29421868   3.491   4.941   1.585 -0.4285 -0.2099 -0.7469
   68MOL   C29521869   3.624   4.901   1.613  0.3743  0.0439  0.3208
   68MOL   C29621870   3.700   4.990   1.684 -0.1407  0.0309  0.9516
   68MOL   C29721871   3.655   5.117   1.719  0.1997 -0.1339  0.4439
   68MOL   C29821872   3.592   5.412   1.652 -0.2282  0.5082 -0.4292
   68MOL   H29921873   3.400   5.333   1.650 -1.8239 -1.0009  1.2698
   68MOL   H30021874   3.431   4.879   1.520 -0.4268  0.8099 -1.7229
   68MOL   H30121875   3.662   4.806   1.581 -2.6397 -0.5303 -1.8060
   68MOL   H30221876   3.800   4.956   1.707  0.2603  0.1747 -0.5335
   68MOL   H30321877   3.718   5.185   1.775  0.8385 -1.2585  1.1253
   68MOL   H30421878   3.682   5.399   1.712  0.4083  0.8572 -1.2791
   68MOL   H30521879   3.573   5.519   1.665  1.9537  0.9897 -0.8723
   68MOL   C30621880   3.632   5.390   1.505  0.4900  0.2933  0.1284
   68MOL   C30721881   3.751   5.473   1.472  0.3367  0.0975  0.7807
   68MOL   C30821882   3.877   5.405   1.450  0.0668  0.5079  0.0407
   68MOL  Cl30921883   3.887   5.231   1.479  0.0498 -0.1738  0.5212
   68MOL   C31021884   3.990   5.477   1.407  0.0210 -0.5009 -0.1612
   68MOL   C31121885   3.974   5.620   1.400  0.1540 -0.2986 -0.3750
   68MOL   C31221886   3.849   5.685   1.406  0.5242  0.4068 -0.6744
   68MOL   C31321887   3.734   5.611   1.443 -0.4892  0.2623  0.4452
   68MOL   C31421888   3.522   5.413   1.399  0.0824 -0.0007  0.8770
   68MOL   H31521889   3.653   5.283   1.497 -1.5154 -0.1398  0.3819
   68MOL   H31621890   4.081   5.426   1.380  0.6146 -0.5878  1.9019
   68MOL   H31721891   4.058   5.684   1.377 -1.0724  1.7463  0.6960
   68MOL   H31821892   3.846   5.790   1.378  3.7850  0.7323 -0.0213
   68MOL   H31921893   3.641   5.663   1.463  1.0976  3.1054  0.6608
   68MOL   H32021894   3.551   5.381   1.299  1.5566  1.2092  0.9057
   68MOL   H32121895   3.478   5.513   1.402  0.3880  0.1461  0.4808
   68MOL   H32221896   3.437   5.351   1.431  0.8597 -0.8065  1.4018
   69MOL     C121897   0.800   6.579   3.879  0.2516  0.0761 -0.1061
   69MOL     C221898   0.912   6.547   3.776  0.0945 -0.5080 -0.9335
   69MOL     C321899   0.897   6.560   3.636  0.4962 -0.0699 -0.3211
   69MOL    Cl421900   0.747   6.618   3.571  0.1102 -0.0491 -0.1717
   69MOL     C521901   1.002   6.538   3.544 -0.0592  0.0555 -0.5747
   69MOL     C621902   1.125   6.497   3.589  0.1320 -0.3966  0.3082
   69MOL     C721903   1.147   6.476   3.725  0.8036  0.4333 -0.1641
   69MOL     C821904   1.041   6.505   3.814 -0.4858 -0.1670 -0.8248
   69MOL     C921905   0.823   6.724   3.925 -0.0482 -0.0126  0.0570
   69MOL    H1021906   0.698   6.558   3.845  0.2727 -1.1078  0.5080
   69MOL    H1121907   0.991   6.559   3.438 -1.1804  0.3690 -0.4038
   69MOL    H1221908   1.208   6.474   3.525 -0.0073 -2.2665  0.7766
   69MOL    H1321909   1.245   6.440   3.750  0.2526 -0.7580  0.3001
   69MOL    H1421910   1.064   6.492   3.918  1.7974  0.9181 -1.1706
   69MOL    H1521911   0.814   6.780   3.832  4.4216  0.9623  0.1188
   69MOL    H1621912   0.926   6.738   3.958  0.1434  2.2394 -1.3657
   69MOL    H1721913   0.821   6.514   3.965  0.4462 -0.6941 -0.7308
   69MOL    C1821914   0.714   6.786   4.020 -0.0294 -0.2357  0.4278
   69MOL    C1921915   0.573   6.782   3.954  0.1930 -0.0532 -0.1218
   69MOL    C2021916   0.472   6.691   4.005  0.0472  0.0713  0.4815
   69MOL   Cl2121917   0.506   6.582   4.140 -0.2875  0.0607  0.0534
   69MOL    C2221918   0.341   6.698   3.950 -0.1313 -0.6654  0.2512
   69MOL    C2321919   0.311   6.785   3.841 -0.4133  0.3449  0.1908
   69MOL    C2421920   0.417   6.855   3.785 -0.3201 -0.0913  0.8262
   69MOL    C2521921   0.553   6.859   3.842 -0.1670  0.5420 -0.2593
   69MOL    C2621922   0.738   6.940   4.043 -0.1464 -0.2152  0.0935
   69MOL    H2721923   0.719   6.721   4.107  2.1988  0.7950  1.1224
   69MOL    H2821924   0.267   6.624   3.979  0.1460 -0.0637  2.6112
   69MOL    H2921925   0.212   6.788   3.799  0.6143  2.0378 -2.2078
   69MOL    H3021926   0.384   6.921   3.706  1.8403 -1.7998 -1.5618
   69MOL    H3121927   0.627   6.926   3.801 -0.5582  1.5870  0.7136
   69MOL    H3221928   0.648   6.988   4.081  0.7824  1.6106  0.0451
   69MOL    H3321929   0.767   6.999   3.956  0.3739  2.3007  1.9158
   69MOL    C3421930   0.839   6.961   4.152  0.0496  0.1844  0.3151
   69MOL    C3521931   0.787   6.908   4.288  0.4834  0.3022  0.5841
   69MOL    C3621932   0.856   6.807   4.356 -0.6958 -0.1192  0.1178
   69MOL   Cl3721933   0.984   6.714   4.284 -0.0204 -0.1729  0.4211
   69MOL    C3821934   0.814   6.769   4.485 -0.4136  0.3175  0.2396
   69MOL    C3921935   0.719   6.842   4.558  0.1263  0.3964 -0.1493
   69MOL    C4021936   0.648   6.946   4.490  0.1678 -1.0696 -0.3971
   69MOL    C4121937   0.686   6.979   4.357 -0.1057  0.3410 -0.3756
   69MOL    C4221938   0.899   7.101   4.158 -0.6248  0.0577 -0.5603
   69MOL    H4321939   0.927   6.901   4.127 -0.2736 -0.7310  1.3400
   69MOL    H4421940   0.873   6.693   4.534 -0.2086  0.3076 -0.0167
   69MOL    H4521941   0.711   6.828   4.665 -1.3404  1.8259 -0.0539
   69MOL    H4621942   0.572   7.002   4.543  1.6873  2.2087 -1.5352
   69MOL    H4721943   0.630   7.060   4.313 -3.1052 -0.8275  1.1250
   69MOL    H4821944   0.934   7.105   4.261 -1.6321  2.5421 -0.2931
   69MOL    H4921945   0.819   7.175   4.162  0.2413  1.0262 -0.9646
   69MOL    C5021946   1.012   7.133   4.058  0.2995  0.6164 -0.0664
   69MOL    C5121947   1.114   7.019   4.056  0.2778  0.1110  0.3118
   69MOL    C5221948   1.125   6.941   3.941 -1.2867 -0.2816  0.2660
   69MOL   Cl5321949   1.024   6.964   3.801  0.0056  0.2255  0.1959
   69MOL    C5421950   1.223   6.839   3.928  0.2213  0.7976  0.0321
   69MOL    C5521951   1.303   6.804   4.037  0.2717  0.0824  0.5756
   69MOL    C5621952   1.285   6.874   4.158  0.8560 -0.4110  0.4643
   69MOL    C5721953   1.196   6.988   4.162 -0.0284 -0.2657  0.0588
   69MOL    C5821954   1.077   7.263   4.098 -0.0913 -0.0014 -0.4910
   69MOL    H5921955   0.959   7.147   3.964  0.6710 -0.9429 -0.5232
   69MOL    H6021956   1.242   6.800   3.829 -0.8448  1.7863 -0.5796
   69MOL    H6121957   1.375   6.723   4.033 -1.4431 -1.3807 -1.6831
   69MOL    H6221958   1.337   6.852   4.251  0.2787  0.5805  1.0299
   69MOL    H6321959   1.177   7.041   4.255  4.0998  1.2136  0.1709
   69MOL    H6421960   1.179   7.264   4.059  0.7455  0.1163  1.6361
   69MOL    H6521961   1.088   7.266   4.206  1.2593  0.1922 -0.6290
   69MOL    C6621962   1.002   7.387   4.040 -0.2428 -0.1096  0.3378
   69MOL    C6721963   1.008   7.375   3.884 -0.4973 -0.4398 -0.3643
   69MOL    C6821964   0.892   7.356   3.803 -0.0818 -0.2181 -0.1179
   69MOL   Cl6921965   0.730   7.370   3.870 -0.2929 -0.1976 -0.2482
   69MOL    C7021966   0.914   7.333   3.669 -0.1989  0.8436 -0.0539
   69MOL    C7121967   1.040   7.342   3.603 -0.0791  0.8297 -0.3683
   69MOL    C7221968   1.151   7.351   3.685  0.4658 -0.4554 -0.4743
   69MOL    C7321969   1.138   7.381   3.822 -0.4108 -0.0380  0.0081
   69MOL    C7421970   1.051   7.527   4.084  0.2035  0.1302 -0.7073
   69MOL    H7521971   0.897   7.374   4.068 -0.3595  0.3800  0.1363
   69MOL    H7621972   0.831   7.327   3.600 -0.0950 -0.0439 -0.1026
   69MOL    H7721973   1.044   7.322   3.497 -1.2102 -1.6764  0.0172
   69MOL    H7821974   1.249   7.344   3.642  1.5218 -2.4663  2.1253
   69MOL    H7921975   1.224   7.400   3.884 -1.3803  1.9332  0.7872
   69MOL    H8021976   1.007   7.597   4.013  0.8426 -0.9594 -2.1960
   69MOL    H8121977   1.157   7.534   4.057  1.2126 -0.6914  2.7688
   69MOL    C8221978   1.018   7.574   4.237 -0.4566 -0.7178 -0.2052
   69MOL    C8321979   0.901   7.500   4.296  0.1855 -0.0821 -0.2082
   69MOL    C8421980   0.907   7.402   4.402  0.4390 -0.3269 -0.5258
   69MOL   Cl8521981   1.053   7.360   4.484  0.2248 -0.0891  0.2782
   69MOL    C8621982   0.790   7.325   4.430  0.1909  0.3167  0.2107
   69MOL    C8721983   0.669   7.363   4.370  0.4059 -0.0199  0.4684
   69MOL    C8821984   0.658   7.468   4.278  0.2616  0.0783 -0.2625
   69MOL    C8921985   0.774   7.530   4.240  0.9953  0.0937 -0.0213
   69MOL    C9021986   0.994   7.732   4.248 -0.4919 -0.5907 -0.0118
   69MOL    H9121987   1.102   7.541   4.298  1.4981  1.5483 -1.5546
   69MOL    H9221988   0.790   7.241   4.498  0.1953  0.7127  0.7003
   69MOL    H9321989   0.573   7.329   4.405 -0.4744  2.2610  0.3398
   69MOL    H9421990   0.561   7.491   4.238 -0.7893 -2.8866  0.4822
   69MOL    H9521991   0.757   7.588   4.150 -0.4914 -3.3681 -2.0532
   69MOL    H9621992   0.970   7.759   4.351 -0.1059  0.6548 -0.2414
   69MOL    H9721993   0.908   7.762   4.188  1.0299  1.6271 -1.1446
   69MOL    C9821994   1.120   7.813   4.204 -0.7964  0.0405  0.1619
   69MOL    C9921995   1.251   7.770   4.274  0.0865 -0.4203  0.8308
   69MOL   C10021996   1.374   7.741   4.207  0.1461 -0.0048 -0.4133
   69MOL  Cl10121997   1.375   7.737   4.032 -0.7289  0.2416 -0.2896
   69MOL   C10221998   1.484   7.706   4.284  0.6059  0.1589 -0.2628
   69MOL   C10321999   1.480   7.717   4.425 -0.1771  0.3606  0.4390
   69MOL   C10422000   1.366   7.753   4.490 -0.1043 -0.1019  0.0773
   69MOL   C10522001   1.249   7.780   4.418 -0.6233 -0.2297 -0.1261
   69MOL   C10622002   1.105   7.966   4.234 -0.2509  0.5530 -0.7612
   69MOL   H10722003   1.119   7.806   4.095  0.8272  3.2313 -0.1214
   69MOL   H10822004   1.568   7.662   4.233  0.5668 -0.6733  0.3706
   69MOL   H10922005   1.566   7.678   4.478  0.1985 -0.7338 -0.9338
   69MOL   H11022006   1.375   7.748   4.597 -2.1800 -2.1328  0.1884
   69MOL   H11122007   1.161   7.810   4.473 -1.0451  1.7884 -1.8652
   69MOL   H11222008   1.202   8.014   4.247  0.5549 -1.0414 -0.8169
   69MOL   H11322009   1.055   7.983   4.329  0.9647 -1.6841  0.3040
   69MOL   C11422010   1.021   8.049   4.129  0.5288 -0.1290 -0.7288
   69MOL   C11522011   1.064   8.037   3.979  0.2053 -0.2325 -0.5822
   69MOL   C11622012   0.965   8.036   3.875  0.1360 -0.1279 -0.0408
   69MOL  Cl11722013   0.793   8.038   3.913 -0.1036  0.0405 -0.0268
   69MOL   C11822014   1.011   8.040   3.735  0.1364  0.6758 -0.5151
   69MOL   C11922015   1.149   8.039   3.703 -0.8523 -0.3500 -0.0487
   69MOL   C12022016   1.237   8.043   3.814  0.5049 -0.4720  0.4001
   69MOL   C12122017   1.199   8.038   3.949  0.8976 -0.4227  0.2479
   69MOL   C12222018   1.005   8.196   4.162 -0.2905 -0.1603 -0.3448
   69MOL   H12322019   0.919   8.010   4.140  0.6980  0.1564  2.2466
   69MOL   H12422020   0.939   8.050   3.655 -0.4460 -3.7121 -0.6503
   69MOL   H12522021   1.183   8.048   3.600  0.3171 -0.7482  0.2928
   69MOL   H12622022   1.344   8.047   3.800  0.5736 -0.9510  0.7596
   69MOL   H12722023   1.263   8.039   4.036 -0.6602  1.0946  1.3901
   69MOL   H12822024   0.923   8.230   4.099 -1.3199  1.8105  1.9639
   69MOL   H12922025   1.093   8.252   4.132  0.6125 -1.2594  0.2214
   69MOL   C13022026   0.962   8.243   4.305  0.8072  0.6967 -0.1278
   69MOL   C13122027   0.804   8.234   4.312  0.3607 -0.3839  0.6553
   69MOL   C13222028   0.735   8.142   4.398  0.2299 -0.2859  0.2805
   69MOL  Cl13322029   0.821   8.032   4.500  0.0418 -0.2360 -0.3177
   69MOL   C13422030   0.596   8.146   4.412  0.6277 -0.2751  0.0481
   69MOL   C13522031   0.525   8.234   4.326  0.2050 -0.2281 -0.0337
   69MOL   C13622032   0.588   8.308   4.231 -0.3467  0.2590 -0.3080
   69MOL   C13722033   0.728   8.323   4.235 -0.2443 -0.5005  0.0770
   69MOL   C13822034   1.015   8.382   4.343  0.4003 -0.0530 -0.1350
   69MOL   H13922035   0.992   8.183   4.391 -0.4424 -2.1494 -1.6234
   69MOL   H14022036   0.548   8.083   4.485  0.0155  0.5123  0.3332
   69MOL   H14122037   0.418   8.224   4.324  0.1648 -0.1047  1.3080
   69MOL   H14222038   0.522   8.353   4.158 -0.7729 -1.5636 -1.0840
   69MOL   H14322039   0.780   8.392   4.171 -1.0776 -0.4343 -0.5366
   69MOL   H14422040   0.928   0.007   4.392 -0.6016 -0.0891 -1.8402
   69MOL   H14522041   1.044   0.022   4.258 -2.1681  1.9674  0.3640
   69MOL   C14622042   1.126   8.376   4.449  0.7155 -0.4906 -0.1486
   69MOL   C14722043   1.140   0.094   4.518  0.3181  0.0700 -0.7487
   69MOL   C14822044   1.095   0.120   4.646 -0.0285  0.0826 -0.7660
   69MOL  Cl14922045   1.009   0.003   4.740  0.0223  0.1418 -0.0723
   69MOL   C15022046   1.097   0.250   4.699 -0.6305  0.4856 -0.4934
   69MOL   C15122047   1.167   0.354   4.633  0.8296  0.8807  0.3194
   69MOL   C15222048   1.227   0.328   4.510 -0.1269 -0.5588  0.2317
   69MOL   C15322049   1.207   0.197   4.447  0.0206 -0.8322 -0.2485
   69MOL   C15422050   1.259   8.334   4.377  0.4927  0.6007  0.3533
   69MOL   H15522051   1.105   8.310   4.532  1.2762 -0.5477 -0.0470
   69MOL   H15622052   1.046   0.267   4.792 -0.6010 -1.4779 -0.0910
   69MOL   H15722053   1.173   0.454   4.673 -2.1675  1.0932  0.3351
   69MOL   H15822054   1.280   0.399   4.449  0.5621 -1.0699  0.2262
   69MOL   H15922055   1.257   0.183   4.352 -0.9351 -0.7074 -0.7723
   69MOL   H16022056   1.277   8.397   4.290  0.4237  0.8227  0.5009
   69MOL   H16122057   1.245   8.239   4.325 -2.4731  0.2990  1.5739
   69MOL   C16222058   1.391   8.315   4.455 -0.3392  0.3646 -0.2044
   69MOL   C16322059   1.499   8.282   4.351  0.3192  0.0866  0.2530
   69MOL   C16422060   1.599   8.374   4.312 -0.4075 -0.0341  0.3415
   69MOL  Cl16522061   1.622   0.119   4.367 -0.3450  0.0308  0.0861
   69MOL   C16622062   1.680   8.343   4.195  0.7145  0.3220 -0.3166
   69MOL   C16722063   1.671   8.219   4.134  0.2759 -0.1916  0.2341
   69MOL   C16822064   1.576   8.128   4.183 -0.0843 -0.1309 -0.5231
   69MOL   C16922065   1.496   8.156   4.291  0.0167  0.2518  0.3293
   69MOL   C17022066   1.379   8.202   4.561 -0.0879  0.5391  0.8419
   69MOL   H17122067   1.410   8.407   4.510  2.2872  0.7797 -1.7308
   69MOL   H17222068   1.753   8.417   4.166 -1.3992  2.5245 -0.0972
   69MOL   H17322069   1.734   8.192   4.051  0.2201 -2.8983  1.0246
   69MOL   H17422070   1.569   8.026   4.149  0.3057 -0.2049 -0.3868
   69MOL   H17522071   1.424   8.084   4.327  1.1748 -1.0554  0.0333
   69MOL   H17622072   1.320   8.122   4.514  2.0139 -1.1573  1.0181
   69MOL   H17722073   1.316   8.234   4.644 -0.1286 -0.2365  1.1155
   69MOL   C17822074   1.507   8.130   4.623  0.1253 -0.2491  0.0132
   69MOL   C17922075   1.467   8.019   4.728  0.2764  0.3851  0.4096
   69MOL   C18022076   1.541   7.898   4.742 -0.3970  0.1687  0.5500
   69MOL  Cl18122077   1.671   7.868   4.637  0.0498  0.2147 -0.2088
   69MOL   C18222078   1.495   7.801   4.831  0.4939  1.0801 -0.8008
   69MOL   C18322079   1.370   7.814   4.893  0.3098 -0.3921 -0.5869
   69MOL   C18422080   1.304   7.936   4.895  0.7787 -0.1451  0.1220
   69MOL   C18522081   1.353   8.036   4.811 -0.9676  0.0999 -0.2107
   69MOL   C18622082   1.615   8.234   4.671  0.4250  0.3119 -0.3389
   69MOL   H18722083   1.560   8.076   4.544  0.8445 -1.4972  1.3347
   69MOL   H18822084   1.548   7.709   4.850  0.6663  0.7643 -2.6363
   69MOL   H18922085   1.328   7.735   4.953  1.3042 -0.9441 -0.6200
   69MOL   H19022086   1.211   7.943   4.949  0.3210  2.0861 -0.9157
   69MOL   H19122087   1.303   8.132   4.810 -0.4817  0.3643  0.6310
   69MOL   H19222088   1.640   8.291   4.582 -0.3603  0.7737 -0.2717
   69MOL   H19322089   1.701   8.169   4.689 -1.1680 -1.2952  1.7258
   69MOL   C19422090   1.604   8.328   4.793  0.5164  0.5303 -0.3500
   69MOL   C19522091   1.653   0.050   4.763  0.7936 -0.5237 -0.1057
   69MOL   C19622092   1.560   0.153   4.763 -0.4971  0.1649  0.5561
   69MOL  Cl19722093   1.392   0.133   4.805  0.4060 -0.1313 -0.3278
   69MOL   C19822094   1.593   0.290   4.735 -0.0688  0.6302  0.3025
   69MOL   C19922095   1.724   0.314   4.698  0.2073  0.2517  0.5927
   69MOL   C20022096   1.823   0.211   4.694 -0.0042  0.8197 -0.1965
   69MOL   C20122097   1.789   0.087   4.738 -0.6356 -0.3696 -0.2695
   69MOL   C20222098   1.657   8.259   4.921 -0.1435  0.0171  0.0640
   69MOL   H20322099   1.495   8.332   4.793  0.3711 -2.3426 -0.9083
   69MOL   H20422100   1.528   0.376   4.740  0.8787  1.2812  2.0851
   69MOL   H20522101   1.752   0.413   4.668 -0.4270  0.4293  0.5857
   69MOL   H20622102   1.927   0.231   4.676  0.2427  0.2548  0.5568
   69MOL   H20722103   1.870   0.016   4.752 -0.6199 -0.8654 -2.5897
   69MOL   H20822104   1.765   8.262   4.914 -0.0241  0.5377  1.7865
   69MOL   H20922105   1.624   8.155   4.914  2.8983 -1.0567  0.7354
   69MOL   C21022106   1.602   8.318   5.056  0.2415  0.7995 -0.3462
   69MOL   C21122107   1.706   8.383   5.146  0.3652  0.1110 -0.7356
   69MOL   C21222108   1.797   8.299   5.212  0.2610 -0.0865  0.3361
   69MOL  Cl21322109   1.817   8.134   5.172  0.3754 -0.0034  0.4225
   69MOL   C21422110   1.897   8.356   5.300  0.1728  0.3242 -0.4284
   69MOL   C21522111   1.910   0.078   5.305  0.1101 -0.3449 -0.5341
   69MOL   C21622112   1.805   0.157   5.246 -0.4816 -0.1689  0.2127
   69MOL   C21722113   1.706   0.095   5.166 -0.3563  0.0699 -0.0630
   69MOL   C21822114   1.499   8.215   5.119  0.0889 -0.1823 -0.4508
   69MOL   H21922115   1.540   8.400   5.019 -0.5923 -0.7479 -2.4715
   69MOL   H22022116   1.971   8.287   5.338 -0.3585  0.2903  0.5657
   69MOL   H22122117   1.998   0.123   5.348 -1.5253  0.8173  1.7065
   69MOL   H22222118   1.811   0.263   5.262  2.6072 -0.4867  1.4151
   69MOL   H22322119   1.626   0.154   5.124 -0.4274 -1.0187 -1.4614
   69MOL   H22422120   1.554   8.126   5.151 -0.5687  0.5231  2.8431
   69MOL   H22522121   1.440   8.174   5.037 -1.9498  3.7621 -1.0848
   69MOL   C22622122   1.412   8.269   5.238 -0.1636  0.1495 -0.0864
   69MOL   C22722123   1.350   8.406   5.211 -0.4983  0.0327 -0.5049
   69MOL   C22822124   1.250   0.011   5.114  1.1306 -0.0205  0.0220
   69MOL  Cl22922125   1.163   8.309   5.035  0.0013 -0.4784 -0.4002
   69MOL   C23022126   1.209   0.141   5.089  0.2383 -0.9539  0.1061
   69MOL   C23122127   1.264   0.250   5.156 -0.3383 -0.4396  0.3174
   69MOL   C23222128   1.357   0.234   5.255  0.6193  0.5174 -0.1670
   69MOL   C23322129   1.399   0.102   5.283 -0.1354 -0.1537 -0.3349
   69MOL   C23422130   1.473   8.258   5.378 -0.4702 -0.5380  0.0501
   69MOL   H23522131   1.326   8.201   5.238 -1.6331  1.9313  2.1586
   69MOL   H23622132   1.138   0.165   5.011  0.1524 -1.5296  0.0028
   69MOL   H23722133   1.223   0.348   5.137 -0.0874 -0.1182  1.4389
   69MOL   H23822134   1.391   0.314   5.319  1.2623  1.0707 -1.1954
   69MOL   H23922135   1.470   0.105   5.365  0.4999  0.8352 -0.9045
   69MOL   H24022136   1.415   8.320   5.447 -2.7593 -2.6560  0.0916
   69MOL   H24122137   1.567   8.314   5.379  0.2861 -1.5906 -4.3574
   69MOL   C24222138   1.481   8.115   5.437 -0.3065  0.6567 -0.2146
   69MOL   C24322139   1.343   8.057   5.448  0.2683  0.2058 -0.0424
   69MOL   C24422140   1.301   7.958   5.357  0.1338  0.4072 -0.7155
   69MOL  Cl24522141   1.404   7.901   5.231  0.0011 -0.4000 -0.4339
   69MOL   C24622142   1.171   7.903   5.369  0.1739  0.2036  0.0293
   69MOL   C24722143   1.088   7.942   5.475  0.3800 -0.9017 -0.2594
   69MOL   C24822144   1.132   8.051   5.557  0.4590  0.2724 -0.1502
   69MOL   C24922145   1.258   8.110   5.543 -0.0141  0.0439  0.6183
   69MOL   C25022146   1.566   8.107   5.575  0.0454  0.4956 -0.4137
   69MOL   H25122147   1.547   8.055   5.375 -0.7025  0.1325 -0.1341
   69MOL   H25222148   1.150   7.817   5.308  1.3798 -1.2953  1.6429
   69MOL   H25322149   0.995   7.891   5.498 -0.0985  0.7488  1.5996
   69MOL   H25422150   1.064   8.095   5.628  0.0066 -0.1862 -0.3013
   69MOL   H25522151   1.285   8.192   5.607 -2.4940  1.1532  0.2985
   69MOL   H25622152   1.528   8.175   5.651  0.9454 -0.2405  0.7264
   69MOL   H25722153   1.668   8.134   5.547 -0.6625  2.0309 -1.5839
   69MOL   C25822154   1.573   7.971   5.648  0.0210 -0.1288 -0.6160
   69MOL   C25922155   1.661   7.983   5.774  0.1166  0.7319 -0.5246
   69MOL   C26022156   1.611   7.953   5.906 -0.4413  0.0815 -0.3531
   69MOL  Cl26122157   1.441   7.920   5.936 -0.3008 -0.3911 -0.1096
   69MOL   C26222158   1.700   7.971   6.017  0.6162  0.0274 -0.5850
   69MOL   C26322159   1.838   8.002   6.006  0.2143 -0.0874 -0.1512
   69MOL   C26422160   1.884   8.015   5.871 -0.3120  0.0273  0.3803
   69MOL   C26522161   1.800   8.012   5.761  0.4913  0.2966  0.1204
   69MOL   C26622162   1.615   7.857   5.557 -0.6719 -0.8408  0.5183
   69MOL   H26722163   1.473   7.947   5.684  0.9728 -1.6379  1.0943
   69MOL   H26822164   1.662   7.963   6.118  0.2188  1.7874 -0.5648
   69MOL   H26922165   1.903   8.002   6.092  0.5429 -0.3854 -0.4010
   69MOL   H27022166   1.990   8.023   5.853 -0.7851  3.1753 -1.2238
   69MOL   H27122167   1.837   8.021   5.659 -1.0360  2.9356 -0.2353
   69MOL   H27222168   1.712   7.888   5.520 -0.5619 -1.6595  0.0974
   69MOL   H27322169   1.547   7.859   5.472 -1.9904  2.4165  1.5724
   69MOL   C27422170   1.640   7.713   5.620 -0.6468 -0.2654  0.5456
   69MOL   C27522171   1.702   7.619   5.511  0.5968 -0.3200  0.3740
   69MOL   C27622172   1.830   7.550   5.523  0.0197  0.7032 -0.1793
   69MOL  Cl27722173   1.928   7.549   5.664  0.0701 -0.2793 -0.4123
   69MOL   C27822174   1.866   7.456   5.420  0.4533  0.6206 -0.1219
   69MOL   C27922175   1.788   7.433   5.306 -0.6567  0.2796 -0.8251
   69MOL   C28022176   1.672   7.510   5.293 -0.1944  0.1046  0.2401
   69MOL   C28122177   1.633   7.606   5.391 -0.2098  0.7332  0.8118
   69MOL   C28222178   1.513   7.652   5.681  0.5094 -0.4537 -0.6321
   69MOL   H28322179   1.721   7.726   5.692  0.4512 -3.3007 -0.0636
   69MOL   H28422180   1.948   7.388   5.436 -1.8481 -2.1783  0.0983
   69MOL   H28522181   1.814   7.359   5.231  1.9409 -1.1365  1.3999
   69MOL   H28622182   1.614   7.491   5.204  0.0572 -0.5637  0.2178
   69MOL   H28722183   1.545   7.666   5.374 -0.1304  0.3702 -0.9770
   69MOL   H28822184   1.456   7.624   5.592  2.6230 -0.5560 -2.0190
   69MOL   H28922185   1.474   7.733   5.741 -0.9048 -1.4414 -0.2030
   69MOL   C29022186   1.547   7.530   5.773 -0.2233 -0.2465 -0.3783
   69MOL   C29122187   1.422   7.460   5.826 -0.3830  0.4361 -0.3118
   69MOL   C29222188   1.378   7.334   5.785 -0.1419 -0.0279 -0.3752
   69MOL  Cl29322189   1.457   7.236   5.664  0.0898  0.2673 -0.0114
   69MOL   C29422190   1.257   7.283   5.843 -0.0738  0.3949 -0.6699
   69MOL   C29522191   1.195   7.345   5.953 -0.1035  0.5186  0.4453
   69MOL   C29622192   1.240   7.469   5.996  0.1899 -0.0433  0.7983
   69MOL   C29722193   1.349   7.533   5.924 -0.0345  0.0636  0.0618
   69MOL   C29822194   1.638   7.573   5.888 -0.3344  0.4211 -0.4655
   69MOL   H29922195   1.603   7.461   5.709 -0.1206 -0.1509 -0.3901
   69MOL   H30022196   1.215   7.192   5.802  3.2231 -1.0058 -1.1321
   69MOL   H30122197   1.108   7.299   5.996 -1.2194  0.2579 -2.0347
   69MOL   H30222198   1.201   7.515   6.085 -0.5562  0.5320  0.1911
   69MOL   H30322199   1.382   7.627   5.965 -1.3504  0.7731 -0.4486
   69MOL   H30422200   1.579   7.648   5.941 -1.5539 -1.3439  0.7424
   69MOL   H30522201   1.728   7.629   5.863  0.7294  1.1963  4.5576
   69MOL   C30622202   1.679   7.474   6.009 -0.4260 -0.0862  0.2477
   69MOL   C30722203   1.727   7.560   6.127  0.4140 -0.1473 -0.1163
   69MOL   C30822204   1.664   7.551   6.250  0.4003  0.2161  0.0338
   69MOL  Cl30922205   1.518   7.457   6.274 -0.0350  0.2626 -0.1501
   69MOL   C31022206   1.718   7.627   6.363  1.2865  0.3993  0.0826
   69MOL   C31122207   1.837   7.694   6.350  0.4447 -0.9892  0.1078
   69MOL   C31222208   1.896   7.706   6.222  0.3029 -0.7270  0.0617
   69MOL   C31322209   1.840   7.643   6.111 -0.0746 -0.2240  0.2542
   69MOL   C31422210   1.804   7.388   5.971  0.3400  0.6663  0.2823
   69MOL   H31522211   1.605   7.402   6.044  1.5430 -1.7674  1.0392
   69MOL   H31622212   1.671   7.612   6.459  1.4096 -0.8644 -0.0402
   69MOL   H31722213   1.876   7.753   6.431  0.9510  0.3226 -1.0788
   69MOL   H31822214   1.987   7.761   6.201  1.0661 -1.5546  1.1391
   69MOL   H31922215   1.891   7.645   6.016 -0.2635 -0.3783  0.1486
   69MOL   H32022216   1.890   7.438   5.927  0.5307  0.8398  0.8512
   69MOL   H32122217   1.785   7.316   5.891 -0.7609  2.0118 -0.7075
   69MOL   H32222218   1.857   7.348   6.057  0.3641  1.4147  0.6184
   70MOL     C122219   6.841   0.493   6.879 -0.3238  0.0973 -0.5120
   70MOL     C222220   6.901   0.557   7.004 -0.4335 -0.0916 -0.7248
   70MOL     C322221   6.891   0.695   7.024 -0.7542 -0.4149  0.2743
   70MOL    Cl422222   6.807   0.796   6.910 -0.3313  0.4022  0.5048
   70MOL     C522223   6.952   0.755   7.135  0.1941 -0.1106 -0.4068
   70MOL     C622224   6.991   0.675   7.245  0.1556 -0.2978  0.3315
   70MOL     C722225   6.978   0.535   7.234 -0.5113 -0.1286  0.5157
   70MOL     C822226   6.944   0.472   7.109 -0.2789  0.1441 -0.4014
   70MOL     C922227   6.927   0.525   6.758 -0.1574 -0.4980  0.6881
   70MOL    H1022228   6.852   0.389   6.909  1.2604  1.0283  2.4083
   70MOL    H1122229   6.953   0.862   7.152 -2.5755 -0.4719  2.4460
   70MOL    H1222230   7.025   0.722   7.335  3.9109 -0.1833 -1.0427
   70MOL    H1322231   7.018   0.482   7.319  1.6113  2.7535  1.3918
   70MOL    H1422232   6.941   0.364   7.098  1.1176  0.0353  0.1877
   70MOL    H1522233   7.030   0.493   6.773 -0.3500 -1.6511 -0.4145
   70MOL    H1622234   6.936   0.632   6.742  2.4918 -0.5183  1.7811
   70MOL    H1722235   6.736   0.518   6.867 -0.6510  0.4404  2.5215
   70MOL    C1822236   6.881   0.453   6.626 -0.5845  0.0012  0.1344
   70MOL    C1922237   6.894   0.302   6.630  0.1021  0.4586 -0.5113
   70MOL    C2022238   7.022   0.238   6.628 -0.6142 -0.0447 -1.2675
   70MOL   Cl2122239   7.173   0.318   6.605 -0.2623 -0.1384 -0.0234
   70MOL    C2222240   7.028   0.096   6.636 -0.3843 -0.0264  0.6524
   70MOL    C2322241   6.909   0.020   6.631 -0.4647 -0.2208 -0.0803
   70MOL    C2422242   6.781   0.082   6.638 -0.2893  0.3611 -0.0470
   70MOL    C2522243   6.778   0.224   6.644  0.4692  0.4740  0.1150
   70MOL    C2622244   6.937   0.514   6.497  0.1245  0.8514 -0.9835
   70MOL    H2722245   6.774   0.471   6.620 -0.2254  1.6016 -2.8124
   70MOL    H2822246   7.125   0.049   6.630 -0.3816  0.2174 -2.2341
   70MOL    H2922247   6.906   8.333   6.626 -0.3849 -0.2107 -0.3777
   70MOL    H3022248   6.692   0.021   6.632  0.1376 -0.2850  0.0940
   70MOL    H3122249   6.681   0.271   6.653  0.1767 -0.2599  0.8135
   70MOL    H3222250   6.939   0.434   6.423 -0.9585 -0.4166  0.3334
   70MOL    H3322251   7.042   0.543   6.509 -0.5055  2.2017  1.4755
   70MOL    C3422252   6.867   0.632   6.441  0.6573  0.7522  0.0250
   70MOL    C3522253   6.729   0.601   6.388  0.3532 -0.4044 -0.1760
   70MOL    C3622254   6.610   0.629   6.461 -0.1129  0.5783  0.1234
   70MOL   Cl3722255   6.618   0.720   6.609  0.2810  0.6359  0.1253
   70MOL    C3822256   6.484   0.581   6.416  0.3969  0.0436  0.2137
   70MOL    C3922257   6.479   0.506   6.295 -0.2486 -0.1153  0.3476
   70MOL    C4022258   6.598   0.478   6.225 -0.9813  0.3991  0.0193
   70MOL    C4122259   6.723   0.528   6.271 -0.2709 -0.0792 -0.3494
   70MOL    C4222260   6.953   0.688   6.328 -0.2535  0.0071  0.1362
   70MOL    H4322261   6.863   0.701   6.525  0.4128 -0.1536  0.7609
   70MOL    H4422262   6.406   0.610   6.484  0.9401 -0.1047  0.8989
   70MOL    H4522263   6.382   0.475   6.258 -0.1212 -1.4003  1.0825
   70MOL    H4622264   6.597   0.418   6.135  1.8818 -0.6616  0.6262
   70MOL    H4722265   6.817   0.506   6.224 -1.1729 -0.5818 -1.9261
   70MOL    H4822266   6.905   0.759   6.261 -0.5296 -0.0204  0.3038
   70MOL    H4922267   6.982   0.613   6.255  0.0171 -1.4608  1.7284
   70MOL    C5022268   7.074   0.772   6.382  0.0771  0.2535 -0.1426
   70MOL    C5122269   7.036   0.876   6.485 -0.0219  0.0944  0.1339
   70MOL    C5222270   7.129   0.906   6.588  0.4444 -0.3931 -0.0152
   70MOL   Cl5322271   7.279   0.828   6.602 -0.3063 -0.0279 -0.0914
   70MOL    C5422272   7.092   0.997   6.684 -0.4031  0.1518 -0.2309
   70MOL    C5522273   6.964   1.053   6.681 -0.0462 -0.3909 -0.6913
   70MOL    C5622274   6.872   1.029   6.574  0.0550  0.3939 -0.0791
   70MOL    C5722275   6.909   0.941   6.474 -0.4765  0.5139 -0.3313
   70MOL    C5822276   7.162   0.836   6.274  0.1610  0.2020  0.3419
   70MOL    H5922277   7.139   0.704   6.436 -1.3291  1.2385  2.9663
   70MOL    H6022278   7.161   1.020   6.764 -0.3115 -2.3225  0.4463
   70MOL    H6122279   6.940   1.118   6.764  0.2129 -1.4195  0.2043
   70MOL    H6222280   6.775   1.078   6.571 -0.8566 -1.4133 -1.0818
   70MOL    H6322281   6.847   0.925   6.387  1.4185 -0.7182 -1.5101
   70MOL    H6422282   7.244   0.888   6.324  1.3230  0.2169 -1.5355
   70MOL    H6522283   7.119   0.915   6.212 -0.1342 -0.4281 -0.2581
   70MOL    C6622284   7.229   0.733   6.184  0.1678  0.2991 -0.4208
   70MOL    C6722285   7.336   0.645   6.256 -1.1436 -0.3811  0.8819
   70MOL    C6822286   7.315   0.507   6.277  0.1684  0.1016 -0.0346
   70MOL   Cl6922287   7.177   0.426   6.219 -0.4759 -0.3756 -0.2230
   70MOL    C7022288   7.410   0.430   6.346 -0.8034  0.2930 -0.0864
   70MOL    C7122289   7.530   0.487   6.386  0.6722 -0.0228 -0.2570
   70MOL    C7222290   7.544   0.625   6.384 -0.1529 -0.2014  0.7392
   70MOL    C7322291   7.446   0.706   6.320 -0.1033  0.3322  0.3678
   70MOL    C7422292   7.288   0.796   6.055  0.0101  0.8020 -0.4543
   70MOL    H7522293   7.163   0.658   6.140  0.0404 -0.2718  0.7422
   70MOL    H7622294   7.394   0.324   6.363 -0.5752  0.1120 -1.0206
   70MOL    H7722295   7.615   0.428   6.417  0.5925 -0.4057 -0.7614
   70MOL    H7822296   7.641   0.658   6.420  0.5817 -0.9716 -0.4792
   70MOL    H7922297   7.468   0.811   6.318  0.8215  0.1148 -1.1440
   70MOL    H8022298   7.355   0.723   6.010  0.6100  0.4184  1.0177
   70MOL    H8122299   7.360   0.870   6.091 -1.6100  1.2153  2.0219
   70MOL    C8222300   7.186   0.861   5.962  0.4654  0.2724  0.5762
   70MOL    C8322301   7.080   0.759   5.910 -0.1511 -0.6469 -0.7366
   70MOL    C8422302   6.952   0.810   5.885 -0.7382  0.3664  0.0014
   70MOL   Cl8522303   6.899   0.970   5.914  0.1640 -0.4230  0.2744
   70MOL    C8622304   6.864   0.715   5.819  0.4144  0.3339  0.0369
   70MOL    C8722305   6.902   0.578   5.796  0.3648  0.5258  0.1970
   70MOL    C8822306   7.029   0.532   5.829  0.0151 -0.7267  0.6096
   70MOL    C8922307   7.116   0.628   5.883 -0.0561  0.5454  0.6528
   70MOL    C9022308   7.249   0.925   5.834 -0.1995 -0.5542 -0.1737
   70MOL    H9122309   7.126   0.929   6.022 -0.7294 -0.7834  0.6060
   70MOL    H9222310   6.766   0.746   5.787  2.0046  3.0145 -2.4293
   70MOL    H9322311   6.841   0.512   5.737  0.3514 -0.9150  1.7778
   70MOL    H9422312   7.064   0.433   5.803 -0.4026 -0.8647  0.5770
   70MOL    H9522313   7.219   0.600   5.904  0.1628  0.9836  0.1712
   70MOL    H9622314   7.168   0.970   5.777 -0.6985  1.2178  1.8923
   70MOL    H9722315   7.280   0.849   5.762 -1.3740  1.6179 -3.1119
   70MOL    C9822316   7.334   1.049   5.856 -0.6398  0.1321 -0.3847
   70MOL    C9922317   7.270   1.159   5.949  0.2500 -0.3883 -0.3419
   70MOL   C10022318   7.320   1.184   6.081  0.1327 -0.6966  0.6200
   70MOL  Cl10122319   7.461   1.107   6.145  0.1722 -0.2297  0.0268
   70MOL   C10222320   7.253   1.280   6.160  0.4924  0.4420 -0.2846
   70MOL   C10322321   7.146   1.355   6.111 -0.1710 -0.0236  0.4782
   70MOL   C10422322   7.090   1.324   5.987 -0.2008 -0.4730  0.6362
   70MOL   C10522323   7.159   1.237   5.900  0.0893  0.1434 -0.5971
   70MOL   C10622324   7.390   1.115   5.724 -0.2327 -0.1581 -0.6623
   70MOL   H10722325   7.425   1.018   5.907  0.2008  0.3059 -1.7599
   70MOL   H10822326   7.287   1.296   6.261 -0.6396  0.1153  0.1487
   70MOL   H10922327   7.101   1.427   6.177  1.2887  0.2929  1.1484
   70MOL   H11022328   7.004   1.382   5.960  1.9035  2.0039 -1.0294
   70MOL   H11122329   7.119   1.235   5.800 -0.3443 -0.1091 -0.4208
   70MOL   H11222330   7.433   1.210   5.755 -0.1901 -0.4381  0.1483
   70MOL   H11322331   7.305   1.145   5.663  0.0806  2.0382 -0.0663
   70MOL   C11422332   7.487   1.030   5.625  0.2327  0.1502 -0.1572
   70MOL   C11522333   7.559   0.908   5.686  0.1285  0.4099 -0.1226
   70MOL   C11622334   7.538   0.774   5.646 -0.3651  0.1643  0.4429
   70MOL  Cl11722335   7.440   0.725   5.506  0.0107 -0.0321  0.2452
   70MOL   C11822336   7.602   0.671   5.713  0.0261  0.3585  0.5015
   70MOL   C11922337   7.691   0.703   5.821  0.8829 -0.3470 -0.5099
   70MOL   C12022338   7.713   0.833   5.855 -0.5297 -0.1274  0.6200
   70MOL   C12122339   7.647   0.934   5.793 -0.0748  0.2133 -0.2975
   70MOL   C12222340   7.567   1.123   5.531 -0.5202 -0.1614 -0.1368
   70MOL   H12322341   7.419   0.988   5.551 -1.0639  0.0123  1.0904
   70MOL   H12422342   7.594   0.567   5.688  1.4029 -0.3533  2.8996
   70MOL   H12522343   7.753   0.631   5.872  1.6889  0.1931 -0.7002
   70MOL   H12622344   7.789   0.843   5.931  1.4216 -1.4183 -1.0837
   70MOL   H12722345   7.657   1.038   5.822  0.7165  0.2907 -0.8288
   70MOL   H12822346   7.514   1.195   5.469 -0.2600  2.1093  2.2242
   70MOL   H12922347   7.591   1.049   5.454 -0.9271  0.1721 -0.5851
   70MOL   C13022348   7.697   1.190   5.590  0.7830 -0.8586  0.4410
   70MOL   C13122349   7.662   1.316   5.672 -0.1363  0.3606 -0.0642
   70MOL   C13222350   7.732   1.349   5.796  0.1497  0.0678  1.0148
   70MOL  Cl13322351   7.858   1.253   5.865 -0.2573 -0.1852 -0.2333
   70MOL   C13422352   7.701   1.466   5.861 -0.7212 -0.5759  0.1107
   70MOL   C13522353   7.613   1.563   5.807 -0.2960 -0.3208 -0.3797
   70MOL   C13622354   7.555   1.532   5.688 -0.1094 -0.2198 -0.2908
   70MOL   C13722355   7.581   1.416   5.615 -0.8341  0.1693  0.0880
   70MOL   C13822356   7.781   1.234   5.475  0.2526  0.7533 -0.0746
   70MOL   H13922357   7.757   1.122   5.651  0.4622  0.7102  2.5360
   70MOL   H14022358   7.754   1.495   5.950  0.5308 -0.9471 -0.5081
   70MOL   H14122359   7.578   1.645   5.868 -0.5887  1.0418 -2.3322
   70MOL   H14222360   7.482   1.602   5.650 -0.3186 -0.0109  0.4947
   70MOL   H14322361   7.542   1.408   5.514  1.4565  2.5474 -1.0500
   70MOL   H14422362   7.854   1.312   5.498 -1.1425  1.8963  0.5317
   70MOL   H14522363   7.717   1.273   5.396 -2.7409  1.7103  2.7219
   70MOL   C14622364   7.873   1.119   5.412  0.1714  0.3368 -0.3813
   70MOL   C14722365   7.977   1.051   5.504 -0.3070  0.1785  0.2820
   70MOL   C14822366   7.958   0.915   5.543  0.4056  0.4503  0.0441
   70MOL  Cl14922367   7.849   0.806   5.468  0.4728  0.4167  0.3424
   70MOL   C15022368   8.042   0.866   5.649  0.2019  0.2906 -0.2049
   70MOL   C15122369   8.141   0.938   5.706  0.2865 -0.5303  0.1475
   70MOL   C15222370   8.155   1.075   5.672  0.4429  0.4591 -0.2560
   70MOL   C15322371   8.078   1.133   5.569 -1.4056  1.2419 -0.5964
   70MOL   C15422372   7.940   1.166   5.287  0.6513 -0.3453  0.2487
   70MOL   H15522373   7.797   1.043   5.394 -0.1205  1.3970 -4.0807
   70MOL   H15622374   8.043   0.759   5.666  1.4304  0.3097 -0.0934
   70MOL   H15722375   8.200   0.893   5.784  0.7048  0.1119  0.2109
   70MOL   H15822376   8.237   1.129   5.716 -0.2791  1.7558 -0.4724
   70MOL   H15922377   8.078   1.237   5.540  1.0716  1.6401  0.7338
   70MOL   H16022378   8.021   1.097   5.269  1.5247  0.5526  0.7019
   70MOL   H16122379   7.989   1.257   5.321 -0.4454  0.5221 -0.4567
   70MOL   C16222380   7.836   1.173   5.161  0.1600 -0.2873  0.0506
   70MOL   C16322381   7.750   1.038   5.142 -0.0447 -0.6631 -0.2166
   70MOL   C16422382   7.609   1.038   5.142 -0.1157  0.6049  0.0649
   70MOL  Cl16522383   7.517   1.188   5.163  0.2303  0.0599  0.1100
   70MOL   C16622384   7.533   0.922   5.115 -0.7060  0.6557 -0.1583
   70MOL   C16722385   7.595   0.800   5.103  0.4651 -0.2714 -0.4778
   70MOL   C16822386   7.738   0.799   5.112  0.8788  1.0129 -0.0938
   70MOL   C16922387   7.818   0.915   5.129  0.4416  0.0107 -0.1393
   70MOL   C17022388   7.915   1.202   5.030  0.0322  0.0498 -0.1959
   70MOL   H17122389   7.769   1.258   5.157 -1.5147 -1.6463 -1.6714
   70MOL   H17222390   7.427   0.941   5.117 -0.8905 -0.3872  0.0922
   70MOL   H17322391   7.545   0.705   5.112  1.3573 -0.6872  0.2450
   70MOL   H17422392   7.781   0.700   5.119 -2.0288 -0.4462 -1.9226
   70MOL   H17522393   7.926   0.920   5.137  0.4657 -2.0386  1.2914
   70MOL   H17622394   7.856   1.174   4.943 -2.3743  1.0580  1.0644
   70MOL   H17722395   7.994   1.128   5.019 -0.3403 -0.0719 -2.1751
   70MOL   C17822396   7.973   1.347   5.026 -0.4126  0.3310  0.0397
   70MOL   C17922397   7.864   1.459   4.995 -0.1471 -0.0981 -0.7609
   70MOL   C18022398   7.888   1.598   5.037 -0.1354 -0.4772 -0.0920
   70MOL  Cl18122399   8.033   1.642   5.119  0.3789  0.0086 -0.0716
   70MOL   C18222400   7.787   1.695   5.028  0.0330  0.3067 -0.4524
   70MOL   C18322401   7.668   1.667   4.954  0.1103  0.1976  0.4802
   70MOL   C18422402   7.642   1.540   4.910 -0.0824  0.4380  0.2765
   70MOL   C18522403   7.736   1.434   4.934 -0.0369  0.0637  0.9023
   70MOL   C18622404   8.083   1.359   4.918  0.2406  0.3451 -0.6000
   70MOL   H18722405   8.022   1.375   5.120 -0.0384  1.2665 -0.4254
   70MOL   H18822406   7.813   1.797   5.049 -0.6762  0.4241 -0.1736
   70MOL   H18922407   7.593   1.738   4.923 -0.5276 -0.2619  0.9551
   70MOL   H19022408   7.556   1.518   4.848 -0.0574  2.4125 -0.5007
   70MOL   H19122409   7.704   1.336   4.900  0.0871  0.4309 -0.3052
   70MOL   H19222410   8.104   1.461   4.887 -0.1301  0.5146 -0.3095
   70MOL   H19322411   8.049   1.318   4.823  0.9864  1.0684 -1.1894
   70MOL   C19422412   8.219   1.281   4.953  0.3641 -0.0048  0.3970
   70MOL   C19522413   8.276   1.296   5.095 -0.3760  0.4175 -0.0902
   70MOL   C19622414   8.299   1.187   5.182  0.4428  0.0292  0.3665
   70MOL  Cl19722415   8.274   1.019   5.126 -0.0426  0.4580 -0.2393
   70MOL   C19822416   8.350   1.200   5.310  0.1789 -0.0986 -0.2056
   70MOL   C19922417   8.379   1.326   5.360  0.5276  0.5195 -0.6300
   70MOL   C20022418   8.346   1.436   5.275 -0.5100 -0.2053 -1.0731
   70MOL   C20122419   8.296   1.426   5.143 -0.5362  0.5890  0.0604
   70MOL   C20222420   8.330   1.336   4.854 -0.3081  0.5515  0.3219
   70MOL   H20322421   8.215   1.173   4.937 -0.0577  0.3583 -2.2393
   70MOL   H20422422   8.363   1.113   5.373 -1.7692 -0.2937 -0.0442
   70MOL   H20522423   8.404   1.351   5.462  0.1704  1.5663 -0.7942
   70MOL   H20622424   8.346   1.536   5.314 -0.2131 -1.1661  1.4534
   70MOL   H20722425   8.270   1.520   5.097 -1.7347  0.3361  0.1954
   70MOL   H20822426   8.333   1.445   4.851 -0.4998  0.5509  0.1148
   70MOL   H20922427   8.283   1.307   4.760 -2.0804 -1.3742  1.7456
   70MOL   C21022428   0.047   1.267   4.851 -0.5659  0.3017 -0.2399
   70MOL   C21122429   0.122   1.357   4.748  0.7987  0.5122  0.9014
   70MOL   C21222430   0.201   1.460   4.795 -1.5036 -0.2687  0.4803
   70MOL  Cl21322431   0.250   1.485   4.958  0.1787 -0.0641 -0.0180
   70MOL   C21422432   0.252   1.560   4.705  0.0114  0.3305 -0.7538
   70MOL   C21522433   0.228   1.550   4.566 -0.3080  0.9154  0.5172
   70MOL   C21622434   0.167   1.433   4.522  0.5419  0.1002  0.2566
   70MOL   C21722435   0.107   1.341   4.609  0.4211  0.1319 -0.2702
   70MOL   C21822436   0.054   1.112   4.832 -0.3618  0.1732  0.0591
   70MOL   H21922437   0.090   1.285   4.950 -0.1012 -1.3751 -0.1270
   70MOL   H22022438   0.303   1.648   4.739 -1.2003  0.3900  0.9791
   70MOL   H22122439   0.254   1.625   4.493  3.1755  0.5506  1.3083
   70MOL   H22222440   0.145   1.427   4.416 -0.2418  1.1169  0.3577
   70MOL   H22322441   0.035   1.269   4.573  1.7074 -0.2318 -2.1823
   70MOL   H22422442   0.006   1.097   4.735  0.0005 -0.0849 -0.0847
   70MOL   H22522443   8.415   1.061   4.908  1.7058 -0.2829  1.3947
   70MOL   C22622444   0.196   1.052   4.836  0.0997  0.7322  0.2479
   70MOL   C22722445   0.182   0.898   4.855  0.2500 -0.5284  0.5158
   70MOL   C22822446   0.185   0.805   4.747 -0.2749 -0.3759  0.6085
   70MOL  Cl22922447   0.184   0.863   4.585 -0.5388  0.2019 -0.1960
   70MOL   C23022448   0.179   0.665   4.767  0.7710 -0.5260 -0.3080
   70MOL   C23122449   0.171   0.612   4.894 -0.0697 -0.0166 -0.4291
   70MOL   C23222450   0.147   0.702   4.996 -0.4529 -0.5184 -0.3381
   70MOL   C23322451   0.152   0.841   4.980  0.1236 -0.8113 -0.1106
   70MOL   C23422452   0.289   1.112   4.952 -0.0989 -0.3444 -0.3970
   70MOL   H23522453   0.246   1.073   4.742 -2.4695  0.0526 -1.3345
   70MOL   H23622454   0.189   0.605   4.678 -0.9233 -0.8753 -0.2919
   70MOL   H23722455   0.164   0.505   4.905 -0.0272 -0.0534 -0.7369
   70MOL   H23822456   0.117   0.659   5.091  0.3471  1.4850  0.8399
   70MOL   H23922457   0.147   0.903   5.069  0.8548 -0.3402 -0.3859
   70MOL   H24022458   0.214   1.116   5.031 -1.1762 -0.6689 -1.3974
   70MOL   H24122459   0.316   1.215   4.928 -0.3342 -0.7269 -2.4038
   70MOL   C24222460   0.412   1.041   4.983 -0.7530 -0.0147  0.4094
   70MOL   C24322461   0.483   1.100   5.111  0.3372 -0.3370  0.1379
   70MOL   C24422462   0.481   1.042   5.241  1.2154  0.1347  0.1189
   70MOL  Cl24522463   0.426   0.879   5.268 -0.2264  0.0182  0.4406
   70MOL   C24622464   0.548   1.102   5.352  0.0951  0.0647 -0.2920
   70MOL   C24722465   0.624   1.214   5.334 -0.5246 -0.4643 -0.1971
   70MOL   C24822466   0.604   1.283   5.212 -0.1066 -0.1120  0.0792
   70MOL   C24922467   0.538   1.231   5.101  0.5335  0.4191  0.1642
   70MOL   C25022468   0.513   1.018   4.864 -0.1091 -0.4189 -0.3564
   70MOL   H25122469   0.396   0.938   5.015 -0.2181 -0.1868  0.1360
   70MOL   H25222470   0.547   1.046   5.445  2.4989  1.1300  0.4347
   70MOL   H25322471   0.674   1.263   5.416 -0.9438 -0.2595 -0.0612
   70MOL   H25422472   0.655   1.377   5.196  0.8260 -0.7960 -1.0948
   70MOL   H25522473   0.545   1.284   5.007  0.2651 -0.3815 -0.3156
   70MOL   H25622474   0.574   1.107   4.849  0.7874 -0.4337  2.9375
   70MOL   H25722475   0.457   1.016   4.771  0.9197  0.0371 -0.9926
   70MOL   C25822476   0.609   0.894   4.872 -0.4999 -0.0656  0.2569
   70MOL   C25922477   0.691   0.887   5.003  0.2502  0.2264 -0.4304
   70MOL   C26022478   0.692   0.773   5.086 -1.0812 -0.3921 -0.6440
   70MOL  Cl26122479   0.609   0.631   5.044  0.1634 -0.1904  0.0219
   70MOL   C26222480   0.764   0.779   5.209  0.0102 -0.3264 -0.2360
   70MOL   C26322481   0.851   0.884   5.240  0.5908 -0.9741 -0.6346
   70MOL   C26422482   0.841   0.995   5.155  0.2075 -0.1362  1.1678
   70MOL   C26522483   0.767   1.000   5.034 -0.4975  0.5342 -0.4177
   70MOL   C26622484   0.698   0.884   4.746 -0.5361  0.4487  0.1189
   70MOL   H26722485   0.540   0.808   4.872  0.7810 -1.1134  1.9793
   70MOL   H26822486   0.761   0.695   5.276  1.4211  0.7799  1.2640
   70MOL   H26922487   0.915   0.890   5.326  0.7271 -2.1713 -0.6376
   70MOL   H27022488   0.899   1.084   5.176  1.6505 -0.6359 -0.6266
   70MOL   H27122489   0.763   1.081   4.963 -0.9309 -0.5028 -1.5930
   70MOL   H27222490   0.795   0.845   4.777 -0.1082  0.8552 -0.6774
   70MOL   H27322491   0.702   0.981   4.695 -1.4055  1.3083  1.6552
   70MOL   C27422492   0.654   0.786   4.626 -0.0002 -0.5638 -0.6536
   70MOL   C27522493   0.655   0.631   4.658  0.5763 -0.8021 -0.0190
   70MOL   C27622494   0.765   0.555   4.700 -0.3261 -0.0303  0.0423
   70MOL  Cl27722495   0.924   0.628   4.691  0.2176  0.0764 -0.0561
   70MOL   C27822496   0.750   0.427   4.755  0.8823  0.2236  0.6721
   70MOL   C27922497   0.626   0.363   4.744  0.1656 -0.5396  0.2231
   70MOL   C28022498   0.517   0.432   4.685 -0.1556 -0.6796 -0.0562
   70MOL   C28122499   0.526   0.572   4.662  0.4567 -0.4532 -0.9690
   70MOL   C28222500   0.719   0.813   4.489 -0.0938  0.6692 -0.7305
   70MOL   H28322501   0.549   0.809   4.614  0.2779  0.4194 -1.3260
   70MOL   H28422502   0.835   0.387   4.810  0.6102  1.4570  2.0307
   70MOL   H28522503   0.612   0.263   4.783 -0.8729 -0.5110 -0.0630
   70MOL   H28622504   0.422   0.381   4.689 -0.8469  0.7053  1.6540
   70MOL   H28722505   0.442   0.637   4.645  0.5542 -0.7766 -2.7609
   70MOL   H28822506   0.664   0.744   4.425  0.2142 -0.6293  0.3729
   70MOL   H28922507   0.820   0.773   4.484 -0.4376 -0.9130  3.3511
   70MOL   C29022508   0.713   0.955   4.420  0.4803 -0.8906  0.0191
   70MOL   C29122509   0.578   1.014   4.417  0.1217 -0.2018  0.0303
   70MOL   C29222510   0.541   1.138   4.486  0.0535  0.7049  0.3834
   70MOL  Cl29322511   0.649   1.245   4.564  0.0465  0.0162 -0.3563
   70MOL   C29422512   0.411   1.180   4.475 -0.1581 -0.3189 -0.0813
   70MOL   C29522513   0.314   1.115   4.395  0.8214  0.4075 -0.4055
   70MOL   C29622514   0.340   0.991   4.333  1.0257 -0.0353 -0.3394
   70MOL   C29722515   0.476   0.947   4.339  0.3529  0.5159 -0.9034
   70MOL   C29822516   0.763   0.942   4.277 -0.3400 -0.1572  1.0883
   70MOL   H29922517   0.777   1.026   4.472  1.0876 -1.7178  0.4243
   70MOL   H30022518   0.377   1.277   4.508  1.3459 -0.3147  1.5621
   70MOL   H30122519   0.213   1.153   4.391 -0.5089 -2.9817 -0.3706
   70MOL   H30222520   0.260   0.947   4.275  0.7169  0.5308 -0.3448
   70MOL   H30322521   0.502   0.852   4.294  0.5826  1.2365 -2.3479
   70MOL   H30422522   0.755   1.043   4.236  0.5423 -0.8134 -0.7624
   70MOL   H30522523   0.705   0.876   4.214 -0.1875 -0.6522  1.4596
   70MOL   C30622524   0.919   0.917   4.263 -0.1689  0.2458  0.1624
   70MOL   C30722525   1.007   1.010   4.353  0.3861  1.3914 -1.3515
   70MOL   C30822526   1.115   0.959   4.432 -0.0139 -0.3143 -0.1183
   70MOL  Cl30922527   1.132   0.787   4.455 -0.3334 -0.0759 -0.6537
   70MOL   C31022528   1.198   1.042   4.509 -0.7909  0.4728  0.1443
   70MOL   C31122529   1.175   1.185   4.506  0.3264  0.1089  0.8704
   70MOL   C31222530   1.059   1.239   4.448 -0.0098  0.4706  0.3076
   70MOL   C31322531   0.977   1.153   4.370 -0.4756 -0.1202  0.5222
   70MOL   C31422532   0.961   0.942   4.114 -0.4853  0.4212 -0.0506
   70MOL   H31522533   0.935   0.812   4.290 -0.1376  0.1235 -0.3359
   70MOL   H31622534   1.283   1.000   4.561  0.0113  1.0919 -0.6679
   70MOL   H31722535   1.229   1.255   4.570 -0.1558  1.7897 -0.5313
   70MOL   H31822536   1.036   1.345   4.444  0.0324  0.4375 -1.4223
   70MOL   H31922537   0.886   1.191   4.326 -2.0144 -1.2239  2.6273
   70MOL   H32022538   1.064   0.970   4.094  0.4175 -0.6348  2.9403
   70MOL   H32122539   0.903   1.020   4.064 -0.8535 -0.5269 -1.1455
   70MOL   H32222540   0.927   0.854   4.058 -0.7620  0.5480 -0.0829
   71MOL     C122541   6.597   7.778   4.724 -0.3151 -0.3808 -0.0108
   71MOL     C222542   6.691   7.894   4.746 -0.0522 -0.5875 -0.2395
   71MOL     C322543   6.713   7.999   4.645 -0.4845  0.4926 -0.2105
   71MOL    Cl422544   6.619   7.995   4.500 -0.1716 -0.0174 -0.2587
   71MOL     C522545   6.813   8.093   4.659 -0.8511  0.2145  0.3161
   71MOL     C622546   6.889   8.101   4.775 -0.1765 -0.0767 -0.0009
   71MOL     C722547   6.868   8.010   4.879  0.9893 -0.4511 -0.1991
   71MOL     C822548   6.771   7.910   4.862  0.1596 -0.7849 -0.1335
   71MOL     C922549   6.667   7.668   4.646  0.2583  0.5683  0.4212
   71MOL    H1022550   6.571   7.744   4.824 -1.1716 -0.5780 -0.2937
   71MOL    H1122551   6.826   8.172   4.587  1.1079 -0.2517  0.1426
   71MOL    H1222552   6.957   8.185   4.779 -1.0338  0.5261  2.2948
   71MOL    H1322553   6.924   8.014   4.971 -1.3283 -0.0260  1.2456
   71MOL    H1422554   6.764   7.844   4.947 -1.9917  0.4381  0.6722
   71MOL    H1522555   6.754   7.638   4.704 -0.3128 -1.1884  0.3930
   71MOL    H1622556   6.702   7.708   4.550 -1.0110 -3.4428 -1.8449
   71MOL    H1722557   6.509   7.816   4.671 -0.7111  0.0340  0.9241
   71MOL    C1822558   6.579   7.551   4.621 -0.6023  0.2899 -0.0830
   71MOL    C1922559   6.520   7.482   4.745 -0.2640 -0.1476  0.0964
   71MOL    C2022560   6.381   7.448   4.763 -0.1308 -0.0550  0.3649
   71MOL   Cl2122561   6.267   7.502   4.639 -0.1321 -0.6303  0.2304
   71MOL    C2222562   6.340   7.377   4.872  0.2022 -0.8074 -0.3509
   71MOL    C2322563   6.430   7.327   4.967 -0.2646  0.4307 -0.0982
   71MOL    C2422564   6.564   7.373   4.957  0.3639  0.4459 -0.4085
   71MOL    C2522565   6.613   7.449   4.846 -0.3110  0.5015 -0.1339
   71MOL    C2622566   6.646   7.453   4.520  0.5085  0.3575  0.1400
   71MOL    H2722567   6.491   7.594   4.574  0.0368  1.0062 -0.6426
   71MOL    H2822568   6.238   7.342   4.874  0.0086 -0.2401 -0.1560
   71MOL    H2922569   6.388   7.265   5.045  0.7332 -1.0687 -0.7365
   71MOL    H3022570   6.641   7.330   5.019 -0.3245 -0.2313 -0.0139
   71MOL    H3122571   6.718   7.469   4.837 -0.0391 -0.9758 -0.2746
   71MOL    H3222572   6.593   7.358   4.528  1.2023 -0.1190 -0.9054
   71MOL    H3322573   6.745   7.413   4.544  1.4038  2.0232 -0.7363
   71MOL    C3422574   6.633   7.511   4.376 -0.3436  0.4952 -0.2684
   71MOL    C3522575   6.486   7.500   4.325 -0.0107 -0.1513  0.3504
   71MOL    C3622576   6.407   7.608   4.288 -0.1889 -1.0515 -0.4095
   71MOL   Cl3722577   6.466   7.769   4.293 -0.2714  0.2313  0.1937
   71MOL    C3822578   6.273   7.586   4.248 -0.0245 -1.2487  0.5344
   71MOL    C3922579   6.223   7.453   4.240  0.2003 -0.4777  0.0934
   71MOL    C4022580   6.300   7.345   4.279  0.3499 -0.2711 -0.3962
   71MOL    C4122581   6.438   7.370   4.315  0.5512 -0.8411  0.1976
   71MOL    C4222582   6.734   7.456   4.269  0.6859  0.1441 -0.7784
   71MOL    H4322583   6.655   7.618   4.376  3.8275 -0.2497 -1.2423
   71MOL    H4422584   6.213   7.671   4.217  1.6707 -0.1940  0.0736
   71MOL    H4522585   6.125   7.434   4.198 -0.1695 -0.7300  1.0423
   71MOL    H4622586   6.272   7.241   4.270  1.5628 -0.5745 -0.8434
   71MOL    H4722587   6.508   7.289   4.334  0.1218 -0.8134  1.9810
   71MOL    H4822588   6.717   7.506   4.174 -0.6664 -1.8497 -1.6181
   71MOL    H4922589   6.723   7.348   4.253 -0.2122 -0.0832  1.2205
   71MOL    C5022590   6.882   7.467   4.312  0.2108  0.5511 -0.1871
   71MOL    C5122591   6.922   7.604   4.364  0.1155 -0.3504  0.1163
   71MOL    C5222592   6.980   7.624   4.491 -0.0156  0.3616  0.4248
   71MOL   Cl5322593   7.023   7.498   4.591  0.0953  0.3561  0.1184
   71MOL    C5422594   7.007   7.754   4.526 -0.1168  0.0347  0.3530
   71MOL    C5522595   6.972   7.864   4.442 -0.3463  0.1845  0.6983
   71MOL    C5622596   6.907   7.840   4.316 -1.2675 -0.3379  0.7578
   71MOL    C5722597   6.887   7.708   4.279 -0.0460 -0.1871  0.3814
   71MOL    C5822598   6.973   7.427   4.195 -0.2828  0.4609 -0.0674
   71MOL    H5922599   6.899   7.394   4.391  0.6065  1.6145  0.7116
   71MOL    H6022600   7.052   7.779   4.622  1.5457 -0.5519 -0.2514
   71MOL    H6122601   7.008   7.965   4.454 -0.7353  0.8974 -3.4545
   71MOL    H6222602   6.889   7.916   4.241 -0.0951  0.3485  1.1529
   71MOL    H6322603   6.842   7.707   4.181 -0.1213 -0.9736  0.4238
   71MOL    H6422604   7.070   7.474   4.206 -0.4352  1.0397 -1.1189
   71MOL    H6522605   6.939   7.478   4.105 -0.2188 -1.0485 -0.9771
   71MOL    C6622606   6.999   7.272   4.187 -0.6363  0.4549  0.3332
   71MOL    C6722607   7.056   7.208   4.312  0.1934 -0.5361  0.2604
   71MOL    C6822608   7.192   7.233   4.360  0.6408  0.1353  0.1996
   71MOL   Cl6922609   7.305   7.333   4.280 -0.4076  0.0203 -0.1024
   71MOL    C7022610   7.237   7.163   4.474 -0.8095 -0.0542  0.3268
   71MOL    C7122611   7.151   7.074   4.535 -0.4855  0.0378  0.1224
   71MOL    C7222612   7.022   7.057   4.492 -0.3590  0.3097  0.3219
   71MOL    C7322613   6.975   7.114   4.378 -0.2123 -0.2924  1.2911
   71MOL    C7422614   7.071   7.231   4.063 -0.4520 -0.5738  0.2379
   71MOL    H7522615   6.903   7.221   4.183 -0.4555  0.1213  0.3021
   71MOL    H7622616   7.339   7.173   4.507 -1.3406  0.5962  1.8446
   71MOL    H7722617   7.185   7.004   4.611 -0.9216 -0.6802 -0.3438
   71MOL    H7822618   6.954   6.990   4.542  0.4424  0.9648  2.3307
   71MOL    H7922619   6.888   7.077   4.327 -0.2924 -0.3980  1.5063
   71MOL    H8022620   7.143   7.155   4.094  0.4849  0.9213  1.8366
   71MOL    H8122621   7.130   7.319   4.037  0.1607 -0.7406  1.0536
   71MOL    C8222622   6.982   7.175   3.944 -0.1664  0.0114 -0.1122
   71MOL    C8322623   6.867   7.274   3.911  0.2694 -0.5173  0.5779
   71MOL    C8422624   6.895   7.392   3.839  0.1437  0.8944 -0.3038
   71MOL   Cl8522625   7.045   7.426   3.764 -0.0739 -0.2717  0.0486
   71MOL    C8622626   6.790   7.490   3.822 -0.8321  0.6077  0.6898
   71MOL    C8722627   6.661   7.472   3.871 -0.6234  0.3258  0.3193
   71MOL    C8822628   6.636   7.355   3.944  0.7762 -0.0196  0.5221
   71MOL    C8922629   6.739   7.253   3.962  0.1039  0.3435 -1.0929
   71MOL    C9022630   6.937   7.022   3.959  0.3682  0.1024  0.0482
   71MOL    H9122631   7.049   7.171   3.859  1.2068 -0.6979  0.9776
   71MOL    H9222632   6.817   7.575   3.762 -1.0029  0.6547  0.6793
   71MOL    H9322633   6.577   7.540   3.865  0.3139  1.4326 -0.3280
   71MOL    H9422634   6.537   7.345   3.988 -0.3701 -0.1987 -2.0148
   71MOL    H9522635   6.711   7.163   4.015 -0.1303 -0.3998 -2.4307
   71MOL    H9622636   6.870   7.016   4.045  0.4611 -1.3324  0.0235
   71MOL    H9722637   7.026   6.967   3.987  0.5707  0.3430 -0.1296
   71MOL    C9822638   6.861   6.957   3.836  0.0007  0.3321 -0.1915
   71MOL    C9922639   6.832   6.812   3.863 -0.0736 -0.1286 -0.3407
   71MOL   C10022640   6.705   6.771   3.901 -0.7216  0.0693 -0.2476
   71MOL  Cl10122641   6.574   6.880   3.921 -0.7001 -0.4248 -0.5578
   71MOL   C10222642   6.681   6.629   3.913 -0.0401  0.1485 -0.1976
   71MOL   C10322643   6.787   6.540   3.891 -0.2870  0.0521  0.7002
   71MOL   C10422644   6.913   6.581   3.862  0.3757  0.5670  1.1238
   71MOL   C10522645   6.937   6.716   3.848 -0.3914  0.5393  0.2599
   71MOL   C10622646   6.935   6.961   3.699  0.3562 -0.4907  0.5148
   71MOL   H10722647   6.769   7.015   3.830 -0.0132  0.8409  3.5420
   71MOL   H10822648   6.589   6.581   3.942 -0.1303  1.9983  2.7340
   71MOL   H10922649   6.770   6.435   3.911 -2.1353  0.0973 -0.4716
   71MOL   H11022650   6.990   6.505   3.858  0.6968  1.0064 -1.3246
   71MOL   H11122651   7.037   6.753   3.829 -0.5183  1.3344  1.1179
   71MOL   H11222652   6.939   6.863   3.651 -1.5979 -1.7009  2.6957
   71MOL   H11322653   7.032   7.010   3.706  0.1505 -0.1362  0.8919
   71MOL   C11422654   6.856   7.039   3.597 -0.1526  0.5078 -0.0768
   71MOL   C11522655   6.711   6.993   3.575 -0.0772  0.4642 -0.1754
   71MOL   C11622656   6.604   7.091   3.561  0.0521 -0.6375 -0.0249
   71MOL  Cl11722657   6.640   7.263   3.569 -0.0873 -0.1420  0.5471
   71MOL   C11822658   6.473   7.047   3.533 -0.5468 -0.7826  0.7289
   71MOL   C11922659   6.437   6.910   3.539  0.4811  0.3856 -0.2504
   71MOL   C12022660   6.543   6.812   3.552  0.5749 -0.1939 -0.7902
   71MOL   C12122661   6.672   6.855   3.571 -0.4322 -0.1474  0.9600
   71MOL   C12222662   6.927   7.033   3.460  0.2051  0.4035 -0.7125
   71MOL   H12322663   6.871   7.143   3.626  2.1145  0.8413 -2.2695
   71MOL   H12422664   6.404   7.130   3.533  3.2610  2.5268  0.3071
   71MOL   H12522665   6.332   6.894   3.522  0.4503 -0.1179  0.4079
   71MOL   H12622666   6.509   6.709   3.555 -0.6075  0.2183  0.3328
   71MOL   H12722667   6.749   6.780   3.577  0.4128  0.7362  1.2791
   71MOL   H12822668   6.872   7.098   3.392  1.2594  1.0960 -0.9127
   71MOL   H12922669   6.893   6.933   3.431 -3.0671  0.3983  2.6948
   71MOL   C13022670   7.079   7.057   3.442  0.2481  0.4087  0.0038
   71MOL   C13122671   7.126   7.204   3.456  0.3453  0.5243  0.3761
   71MOL   C13222672   7.240   7.240   3.527 -1.1581 -1.0955  0.0966
   71MOL  Cl13322673   7.323   7.126   3.630  0.1229  0.2871 -0.1387
   71MOL   C13422674   7.291   7.372   3.523 -0.1694  1.0154 -0.0019
   71MOL   C13522675   7.218   7.470   3.452  0.0330 -0.2187 -0.3490
   71MOL   C13622676   7.103   7.435   3.387  0.1077  0.4359  0.1126
   71MOL   C13722677   7.063   7.302   3.377 -0.0049  0.8024  0.6906
   71MOL   C13822678   7.114   7.008   3.308 -0.4383  0.4210  0.6563
   71MOL   H13922679   7.129   6.996   3.517 -0.9453 -0.7207 -0.1093
   71MOL   H14022680   7.380   7.399   3.577 -0.0354 -2.5371  1.6409
   71MOL   H14122681   7.266   7.566   3.445 -3.5779  1.4688 -3.1386
   71MOL   H14222682   7.052   7.515   3.335  0.3025 -0.0044 -0.7663
   71MOL   H14322683   6.965   7.289   3.333  0.5878  0.3621 -0.5233
   71MOL   H14422684   7.222   7.027   3.302 -0.5134  0.7516  0.3060
   71MOL   H14522685   7.068   7.069   3.230 -1.7833 -0.9475  0.3649
   71MOL   C14622686   7.098   6.858   3.278 -0.7247  0.2520  0.4265
   71MOL   C14722687   7.134   6.762   3.393 -0.2605  0.0689 -0.2220
   71MOL   C14822688   7.047   6.660   3.441  0.8523 -0.4193  0.4853
   71MOL  Cl14922689   6.898   6.627   3.358  0.1676  0.4311  0.3346
   71MOL   C15022690   7.090   6.577   3.548  0.4333 -0.7549  0.4451
   71MOL   C15122691   7.215   6.589   3.603 -0.0217  0.3882 -0.4628
   71MOL   C15222692   7.300   6.684   3.556 -0.2004 -0.0836 -0.3409
   71MOL   C15322693   7.263   6.775   3.453  0.0333  0.1023  0.0013
   71MOL   C15422694   7.186   6.821   3.154 -0.6988 -0.3220  0.3597
   71MOL   H15522695   6.994   6.840   3.251 -0.7091 -1.2831  1.3657
   71MOL   H15622696   7.024   6.497   3.577  0.2711 -0.9101 -0.3369
   71MOL   H15722697   7.244   6.523   3.683  0.5390  0.5931 -0.4981
   71MOL   H15822698   7.394   6.708   3.605  1.0540 -3.9021 -0.6822
   71MOL   H15922699   7.334   6.854   3.437  1.8915 -1.1818  1.7385
   71MOL   H16022700   7.177   6.714   3.133  0.9853 -0.9612  2.8376
   71MOL   H16122701   7.286   6.842   3.192 -0.4937  1.0790 -0.9072
   71MOL   C16222702   7.186   6.907   3.029  0.1045 -0.0698 -0.1453
   71MOL   C16322703   7.060   6.906   2.946  0.0967  0.5721 -0.1257
   71MOL   C16422704   7.024   7.021   2.863  0.0907 -0.1049  0.1895
   71MOL  Cl16522705   7.117   7.176   2.867 -0.1078  0.4909  0.1183
   71MOL   C16622706   6.909   7.014   2.780  0.3090 -0.9487 -0.3552
   71MOL   C16722707   6.823   6.904   2.794  0.1103 -0.2007 -0.5858
   71MOL   C16822708   6.859   6.791   2.864 -0.1231 -0.2247  0.1057
   71MOL   C16922709   6.973   6.793   2.945  0.4887  0.7031  0.3020
   71MOL   C17022710   7.303   6.884   2.938 -0.2304 -0.0649 -0.4410
   71MOL   H17122711   7.198   7.010   3.062 -1.0328  0.2069 -0.5825
   71MOL   H17222712   6.882   7.101   2.722 -0.5299 -1.0915 -0.1755
   71MOL   H17322713   6.730   6.900   2.740 -0.9748  3.0156  0.9020
   71MOL   H17422714   6.793   6.705   2.871  2.6962 -2.3957  1.0387
   71MOL   H17522715   6.987   6.702   3.002 -1.7806  0.9316  1.2897
   71MOL   H17622716   7.302   6.947   2.849 -1.0579 -0.7693 -0.9391
   71MOL   H17722717   7.295   6.785   2.892  1.4591  0.4365 -1.8786
   71MOL   C17822718   7.444   6.902   3.001  0.0344  0.3058  0.5542
   71MOL   C17922719   7.467   7.029   3.081  0.3279 -0.2194  0.2649
   71MOL   C18022720   7.500   7.030   3.221  0.6530  0.7242  0.4025
   71MOL  Cl18122721   7.557   6.892   3.311 -0.2818 -0.0866 -0.2774
   71MOL   C18222722   7.495   7.156   3.285  0.1850 -0.7662 -0.1633
   71MOL   C18322723   7.460   7.275   3.212  1.3767  0.0167  0.5808
   71MOL   C18422724   7.427   7.269   3.079  0.5665 -0.5396  0.1330
   71MOL   C18522725   7.427   7.145   3.014 -0.1761  0.4347  0.1601
   71MOL   C18622726   7.561   6.894   2.896 -0.0733  0.0836  0.0025
   71MOL   H18722727   7.466   6.825   3.075 -2.6309 -0.2708  0.7905
   71MOL   H18822728   7.521   7.165   3.390  2.6087 -0.0959 -0.7728
   71MOL   H18922729   7.435   7.370   3.255 -0.5206 -0.1510 -0.1071
   71MOL   H19022730   7.412   7.357   3.019  3.8057 -0.5905 -0.8826
   71MOL   H19122731   7.396   7.141   2.910 -0.1397 -2.1353  0.2127
   71MOL   H19222732   7.652   6.932   2.944  1.1840  1.1808 -3.0829
   71MOL   H19322733   7.540   6.962   2.814  1.1324  0.2819 -0.1586
   71MOL   C19422734   7.586   6.753   2.827  0.0050  0.4793 -0.2169
   71MOL   C19522735   7.649   6.651   2.925  0.8132 -0.0212 -0.7353
   71MOL   C19622736   7.572   6.561   3.009 -1.0107 -0.0934  0.1536
   71MOL  Cl19722737   7.403   6.559   2.994 -0.3701 -0.3336  0.1348
   71MOL   C19822738   7.634   6.481   3.101  0.6915  0.3447  0.2847
   71MOL   C19922739   7.774   6.481   3.112 -0.0572 -0.2453 -0.1362
   71MOL   C20022740   7.852   6.573   3.037 -0.4893  0.1744 -0.0732
   71MOL   C20122741   7.790   6.660   2.943 -0.0242  0.0531 -0.4134
   71MOL   C20222742   7.679   6.775   2.702 -1.4116  0.3173  0.1246
   71MOL   H20322743   7.493   6.705   2.795  0.4531  0.5536 -1.6654
   71MOL   H20422744   7.574   6.415   3.162 -0.6728  0.5280 -0.8334
   71MOL   H20522745   7.818   6.405   3.174 -1.0904 -0.5887  0.1938
   71MOL   H20622746   7.959   6.573   3.048 -0.6349  1.6590  1.5245
   71MOL   H20722747   7.861   6.722   2.889 -1.3547  1.7483 -0.2582
   71MOL   H20822748   7.709   6.679   2.660 -0.6202  0.6804 -0.1601
   71MOL   H20922749   7.773   6.822   2.731  0.3115 -2.6018 -0.5142
   71MOL   C21022750   7.619   6.853   2.586 -0.2222  0.9709 -0.0847
   71MOL   C21122751   7.500   6.771   2.522 -0.5213  0.0330 -0.3462
   71MOL   C21222752   7.368   6.811   2.519  0.3699  0.2604 -0.0929
   71MOL  Cl21322753   7.318   6.957   2.594  0.3287  0.2063  0.0818
   71MOL   C21422754   7.272   6.738   2.446  0.0836  1.0090  0.0509
   71MOL   C21522755   7.304   6.621   2.374  0.5866  0.7400 -0.2890
   71MOL   C21622756   7.435   6.576   2.375 -0.4994 -0.1958 -0.5741
   71MOL   C21722757   7.534   6.650   2.450  0.2589 -0.1565  0.2463
   71MOL   C21822758   7.723   6.893   2.471 -0.2380  0.5245 -0.4130
   71MOL   H21922759   7.574   6.948   2.614 -1.7478 -0.0758  1.0935
   71MOL   H22022760   7.169   6.769   2.435  0.0617  0.4546 -1.4596
   71MOL   H22122761   7.237   6.555   2.321  1.0499 -0.1376  0.2009
   71MOL   H22222762   7.470   6.490   2.321 -1.5489  0.8943 -3.0839
   71MOL   H22322763   7.633   6.611   2.437  0.8263  1.9992 -2.3068
   71MOL   H22422764   7.667   6.952   2.398  0.7196 -0.8339 -2.2807
   71MOL   H22522765   7.779   6.808   2.432 -0.2980 -0.1864  1.0189
   71MOL   C22622766   7.843   6.986   2.514  0.3124  0.0618  0.0411
   71MOL   C22722767   7.809   7.107   2.610  0.1120  0.2840 -0.6423
   71MOL   C22822768   7.860   7.123   2.738  0.0676 -0.1599 -0.5590
   71MOL  Cl22922769   7.996   7.032   2.790 -0.0970  0.0008  0.0045
   71MOL   C23022770   7.817   7.227   2.825  0.2976 -0.7468  0.3086
   71MOL   C23122771   7.712   7.310   2.780  0.4988  0.2119  0.0979
   71MOL   C23222772   7.658   7.297   2.651 -0.0284 -0.1286 -0.0630
   71MOL   C23322773   7.709   7.195   2.564 -0.1307 -0.0513 -0.0896
   71MOL   C23422774   7.941   7.025   2.403  0.2438  0.4997  0.2681
   71MOL   H23522775   7.905   6.924   2.578  0.3005 -1.0958 -1.0567
   71MOL   H23622776   7.866   7.251   2.918  0.9251  0.9272 -0.4327
   71MOL   H23722777   7.671   7.373   2.857 -0.0240  0.1043 -0.0939
   71MOL   H23822778   7.575   7.364   2.637  0.3403  0.4652  0.5714
   71MOL   H23922779   7.662   7.197   2.467  0.1654  3.9469 -0.2352
   71MOL   H24022780   8.018   7.085   2.453  0.2308  1.3406 -0.6879
   71MOL   H24122781   7.893   7.091   2.331  0.4289  0.9180  0.5281
   71MOL   C24222782   8.007   6.906   2.326  0.3847 -0.1591  0.0739
   71MOL   C24322783   8.110   6.829   2.406 -0.3149 -0.5390  0.0254
   71MOL   C24422784   8.127   6.687   2.394 -0.7661 -0.1345 -0.3592
   71MOL  Cl24522785   8.039   6.584   2.284 -0.0612 -0.1857  0.3749
   71MOL   C24622786   8.227   6.623   2.468 -0.4958  0.1547 -0.6461
   71MOL   C24722787   8.309   6.695   2.557 -1.0082 -0.4185 -0.5757
   71MOL   C24822788   8.298   6.834   2.563  0.0559 -0.2951  0.6544
   71MOL   C24922789   8.204   6.902   2.482  0.4544  0.1649 -0.0887
   71MOL   C25022790   8.061   6.939   2.184 -0.4921 -1.0018  0.0899
   71MOL   H25122791   7.930   6.832   2.306  0.5047 -0.9598  2.4959
   71MOL   H25222792   8.236   6.515   2.469  2.5374  0.3568 -1.3419
   71MOL   H25322793   8.366   6.634   2.626 -3.5818 -2.3082 -0.0199
   71MOL   H25422794   8.372   6.884   2.624  0.7777 -2.1792  1.3856
   71MOL   H25522795   8.201   7.010   2.475 -3.4915  0.3128  2.4079
   71MOL   H25622796   8.098   6.843   2.147  0.3389 -0.8504  0.4950
   71MOL   H25722797   8.152   6.999   2.192 -0.6659 -0.5288 -1.4170
   71MOL   C25822798   7.956   7.008   2.082 -0.7842 -0.2193  0.2975
   71MOL   C25922799   7.818   6.950   2.095  0.0687  0.0668  0.3074
   71MOL   C26022800   7.701   7.025   2.109 -0.3955  0.6178  0.2766
   71MOL  Cl26122801   7.718   7.202   2.131  0.2692 -0.0653  0.1172
   71MOL   C26222802   7.572   6.967   2.113 -0.5711  0.1836 -0.0265
   71MOL   C26322803   7.546   6.831   2.117 -0.1029  0.6662  0.7267
   71MOL   C26422804   7.657   6.749   2.084 -0.1466  0.3143  0.2757
   71MOL   C26522805   7.791   6.804   2.071  0.6812 -0.6313  0.3693
   71MOL   C26622806   8.010   7.012   1.937  0.2414 -0.1498 -0.7258
   71MOL   H26722807   7.956   7.106   2.128  0.8565 -0.0324 -0.0709
   71MOL   H26822808   7.484   7.027   2.129 -0.8546 -0.2978  0.2192
   71MOL   H26922809   7.445   6.794   2.130 -1.3206  2.8759 -2.0203
   71MOL   H27022810   7.649   6.642   2.081  2.2053  0.1075  0.5729
   71MOL   H27122811   7.874   6.738   2.051  1.6341  0.4374  0.7500
   71MOL   H27222812   8.034   6.910   1.909 -1.9089 -1.6560  2.6307
   71MOL   H27322813   8.110   7.056   1.933 -1.1413  3.2129  0.1939
   71MOL   C27422814   7.922   7.076   1.825 -0.8050 -0.0130 -0.0183
   71MOL   C27522815   7.930   7.008   1.688  0.4671 -0.0884 -0.8106
   71MOL   C27622816   7.847   6.901   1.650 -0.1287 -0.3314  0.7754
   71MOL  Cl27722817   7.752   6.815   1.762  0.0771  0.0658 -0.2118
   71MOL   C27822818   7.851   6.846   1.518  0.7591  0.4207  0.4389
   71MOL   C27922819   7.945   6.891   1.422  0.5959 -0.1401 -0.0823
   71MOL   C28022820   8.029   6.996   1.468 -0.5795  0.8089 -0.0064
   71MOL   C28122821   8.028   7.054   1.598  0.6927  0.2530 -0.5097
   71MOL   C28222822   7.944   7.228   1.827  0.4267 -0.8125 -0.2430
   71MOL   H28322823   7.818   7.057   1.853 -1.0488  0.6599 -0.4376
   71MOL   H28422824   7.781   6.766   1.497 -0.8164  1.5072  1.3490
   71MOL   H28522825   7.957   6.858   1.320  3.1487  0.5564 -0.0330
   71MOL   H28622826   8.107   7.042   1.409 -0.0365  2.9903  2.2822
   71MOL   H28722827   8.106   7.117   1.639  1.5487 -2.2436  1.9112
   71MOL   H28822828   8.050   7.247   1.813  0.2429  0.9528  0.6932
   71MOL   H28922829   7.912   7.269   1.923 -0.7537  1.4379 -1.5641
   71MOL   C29022830   7.856   7.307   1.726 -0.2801  0.3167 -0.1293
   71MOL   C29122831   7.897   7.456   1.733  0.1508  0.3526 -0.1649
   71MOL   C29222832   8.024   7.501   1.671 -0.1790  0.2713  0.2943
   71MOL  Cl29322833   8.133   7.389   1.593 -0.0078  0.5397 -0.1385
   71MOL   C29422834   8.076   7.629   1.691 -0.5446 -0.4166  0.7149
   71MOL   C29522835   8.000   7.720   1.762 -0.0236  0.0550  0.0163
   71MOL   C29622836   7.879   7.685   1.820 -0.3282 -0.1273 -0.4366
   71MOL   C29722837   7.828   7.556   1.798 -0.1728  0.1684 -0.9246
   71MOL   C29822838   7.707   7.284   1.759 -0.1547  0.9089  0.3359
   71MOL   H29922839   7.870   7.281   1.621  1.8915 -0.6188  0.3688
   71MOL   H30022840   8.179   7.650   1.667 -0.1688 -1.1011  1.7114
   71MOL   H30122841   8.037   7.817   1.792  2.7466 -0.6223 -1.1043
   71MOL   H30222842   7.824   7.764   1.870  1.6288  0.8995  0.1281
   71MOL   H30322843   7.735   7.535   1.850  1.0262 -4.2139 -0.3751
   71MOL   H30422844   7.692   7.322   1.860  0.2830  1.0059  0.3655
   71MOL   H30522845   7.689   7.177   1.770 -1.8573  1.1708  0.1994
   71MOL   C30622846   7.609   7.336   1.656 -0.1019  0.0062 -0.1004
   71MOL   C30722847   7.467   7.344   1.717 -0.0584  0.0667  0.6665
   71MOL   C30822848   7.372   7.443   1.678  0.1804 -0.8425 -0.5933
   71MOL  Cl30922849   7.404   7.553   1.550  0.1145  0.0030  0.2902
   71MOL   C31022850   7.245   7.445   1.740 -0.3166  0.6778  0.2369
   71MOL   C31122851   7.199   7.344   1.824  0.2795 -0.3950 -0.4770
   71MOL   C31222852   7.294   7.247   1.859 -0.2529  0.5174  0.1758
   71MOL   C31322853   7.427   7.247   1.816  0.3443 -0.6195  0.3635
   71MOL   C31422854   7.614   7.272   1.512  0.5270  0.5332  0.0270
   71MOL   H31522855   7.639   7.440   1.641  0.0381  0.3593  2.4413
   71MOL   H31622856   7.190   7.535   1.714 -0.2503  0.1340 -1.8540
   71MOL   H31722857   7.098   7.342   1.862  0.9753  1.0107  1.5392
   71MOL   H31822858   7.264   7.174   1.934 -0.4816 -1.5384 -1.8490
   71MOL   H31922859   7.501   7.175   1.848  1.6629  0.8423  0.6937
   71MOL   H32022860   7.591   7.165   1.515 -0.5641  0.7319 -0.8428
   71MOL   H32122861   7.707   7.288   1.459 -0.0825 -0.0945 -1.2582
   71MOL   H32222862   7.532   7.319   1.458 -0.5905 -1.9054 -0.4946
   72MOL     C122863   4.336   6.787   6.882 -0.5529  0.2072 -0.0635
   72MOL     C222864   4.381   6.657   6.822 -0.1009  0.2918  0.1435
   72MOL     C322865   4.476   6.573   6.892 -0.6088 -0.0993  0.2419
   72MOL    Cl422866   4.534   6.629   7.042 -0.3652 -0.1755 -0.0888
   72MOL     C522867   4.515   6.452   6.842  0.0959  0.8224  0.0213
   72MOL     C622868   4.462   6.404   6.720  0.1385 -0.0780 -0.6613
   72MOL     C722869   4.371   6.490   6.650 -0.3688  0.2739  0.3759
   72MOL     C822870   4.326   6.613   6.704  0.7375 -0.1711 -0.3398
   72MOL     C922871   4.201   6.768   6.965  0.1141  0.4306  0.2251
   72MOL    H1022872   4.410   6.838   6.944 -0.5876 -0.6927  0.7307
   72MOL    H1122873   4.587   6.397   6.901 -2.1347  1.3123  3.3468
   72MOL    H1222874   4.498   6.307   6.689 -2.6754 -0.9035 -1.4508
   72MOL    H1322875   4.334   6.460   6.553 -0.8032  0.0910  0.5983
   72MOL    H1422876   4.247   6.664   6.650  0.0702 -0.6879  0.1381
   72MOL    H1522877   4.228   6.721   7.060  0.2545 -1.2952 -0.6607
   72MOL    H1622878   4.137   6.705   6.904 -1.6232  2.3511  0.0353
   72MOL    H1722879   4.323   6.856   6.799  0.1709  0.7788  0.2957
   72MOL    C1822880   4.140   6.897   7.013 -0.7280 -0.2525  0.3790
   72MOL    C1922881   4.087   6.883   7.158 -0.2015 -0.5708  0.1562
   72MOL    C2022882   4.139   6.966   7.269  0.4999 -0.1620  0.2052
   72MOL   Cl2122883   4.275   7.075   7.247  0.1097  0.6012 -0.1386
   72MOL    C2222884   4.077   6.945   7.398 -0.0332 -0.5894  0.1541
   72MOL    C2322885   3.968   6.860   7.417  0.1008  0.4402 -0.6709
   72MOL    C2422886   3.930   6.777   7.305 -0.9217  0.3702 -0.1297
   72MOL    C2522887   3.979   6.799   7.179 -0.2452 -0.3118 -0.7198
   72MOL    C2622888   4.032   6.955   6.913  0.4600  0.3399 -0.1821
   72MOL    H2722889   4.224   6.965   7.022 -0.5647 -0.4696  0.5047
   72MOL    H2822890   4.110   6.995   7.489 -2.2833 -0.4791  0.9381
   72MOL    H2922891   3.923   6.851   7.514 -0.6799  0.2868 -1.0395
   72MOL    H3022892   3.852   6.703   7.324  0.7400 -1.2593  0.5473
   72MOL    H3122893   3.935   6.734   7.104  1.1837 -0.5421 -1.3803
   72MOL    H3222894   3.942   6.969   6.972 -0.1133 -3.7638  0.0984
   72MOL    H3322895   4.008   6.881   6.838  0.0225 -0.1179  0.4036
   72MOL    C3422896   4.090   7.072   6.836 -0.4816  0.4627 -0.4179
   72MOL    C3522897   4.115   7.191   6.932  0.1481  0.0635 -0.0376
   72MOL    C3622898   4.234   7.273   6.926 -0.5769  0.5715  0.3618
   72MOL   Cl3722899   4.373   7.212   6.837 -0.1743 -0.4589 -0.7985
   72MOL    C3822900   4.244   7.387   7.008 -0.6029  0.0050 -0.1512
   72MOL    C3922901   4.141   7.422   7.093  0.1081 -0.0858  0.1136
   72MOL    C4022902   4.023   7.347   7.100 -0.2492 -0.1160 -0.0866
   72MOL    C4122903   4.017   7.226   7.020  0.5718  0.2182 -0.8532
   72MOL    C4222904   3.989   7.112   6.727 -0.8614  0.6894 -0.2867
   72MOL    H4322905   4.180   7.054   6.777 -0.9950 -2.7189 -0.2898
   72MOL    H4422906   4.331   7.451   6.996 -2.0516  2.5754  2.2791
   72MOL    H4522907   4.144   7.512   7.154  1.2668  1.8385 -2.6790
   72MOL    H4622908   3.934   7.377   7.153 -0.0151 -1.7748  1.2668
   72MOL    H4722909   3.930   7.164   7.033  0.6492  0.4864  1.1190
   72MOL    H4822910   3.972   7.219   6.720 -1.6065  0.5663 -0.3353
   72MOL    H4922911   3.898   7.056   6.746 -0.8405 -0.1928 -2.5646
   72MOL    C5022912   4.024   7.070   6.583  0.4285 -0.3501 -0.5429
   72MOL    C5122913   4.155   7.138   6.545 -0.9761  0.2257  0.5506
   72MOL    C5222914   4.272   7.059   6.502  0.8889  0.4098  0.6732
   72MOL   Cl5322915   4.257   6.893   6.500 -0.3179 -0.0803  0.1814
   72MOL    C5422916   4.396   7.118   6.467 -0.4974 -0.8278 -0.1891
   72MOL    C5522917   4.409   7.258   6.473  0.8318 -0.4296  0.4519
   72MOL    C5622918   4.302   7.337   6.516 -0.4095 -0.4199 -0.3846
   72MOL    C5722919   4.180   7.276   6.545  0.1493  0.0205 -0.4657
   72MOL    C5822920   3.907   7.100   6.491 -0.9882  0.3141 -0.0465
   72MOL    H5922921   4.034   6.962   6.595 -1.0981 -0.4719 -0.2842
   72MOL    H6022922   4.483   7.059   6.444 -0.5798 -1.1779  0.3941
   72MOL    H6122923   4.500   7.304   6.440  0.2321  1.6321  1.5771
   72MOL    H6222924   4.323   7.443   6.517  0.3508 -0.5592  2.2680
   72MOL    H6322925   4.098   7.336   6.581 -0.3360 -0.9670  0.0786
   72MOL    H6422926   3.888   7.207   6.491  0.5654  0.5989 -1.2790
   72MOL    H6522927   3.818   7.054   6.536 -1.0841  0.7839  0.2524
   72MOL    C6622928   3.929   7.053   6.344 -0.5854  0.1226  0.5521
   72MOL    C6722929   3.829   7.131   6.252  0.1129  0.5763  0.6249
   72MOL    C6822930   3.881   7.241   6.170 -0.3156  0.2848  0.5604
   72MOL   Cl6922931   4.046   7.300   6.199  0.3707 -0.1993  0.0220
   72MOL    C7022932   3.802   7.302   6.074 -0.4323  0.1160  0.0815
   72MOL    C7122933   3.664   7.272   6.064 -0.3431 -0.8497  0.3927
   72MOL    C7222934   3.612   7.183   6.160 -0.7234  0.6145  0.2856
   72MOL    C7322935   3.692   7.112   6.247 -0.8716  0.3913  0.0366
   72MOL    C7422936   3.912   6.896   6.344  0.1843  0.3756  0.3770
   72MOL    H7522937   4.035   7.073   6.329 -0.5481  0.6018  1.4416
   72MOL    H7622938   3.848   7.374   6.008  0.2861  0.0237  0.4771
   72MOL    H7722939   3.595   7.321   5.997  0.7301  0.5123  0.2723
   72MOL    H7822940   3.506   7.164   6.163 -0.9116  1.7718  1.7286
   72MOL    H7922941   3.644   7.031   6.301 -0.8297 -0.4084 -1.1016
   72MOL    H8022942   3.815   6.867   6.384 -0.2938  1.1203 -0.2317
   72MOL    H8122943   3.985   6.843   6.406 -0.2060 -0.3971  0.1778
   72MOL    C8222944   3.928   6.832   6.202 -0.1264  0.1214  0.0037
   72MOL    C8322945   3.915   6.680   6.213 -0.3988 -0.0821 -0.1896
   72MOL    C8422946   3.782   6.614   6.216  0.0963  0.4972 -1.0677
   72MOL   Cl8522947   3.633   6.694   6.237 -0.0602 -0.2247 -0.5222
   72MOL    C8622948   3.779   6.474   6.224 -0.0086  0.2033  0.1788
   72MOL    C8722949   3.896   6.401   6.242  0.1660  0.5917  0.0089
   72MOL    C8822950   4.019   6.462   6.250 -0.0373 -0.9035  0.0785
   72MOL    C8922951   4.032   6.602   6.227 -0.5819  0.1171 -0.8575
   72MOL    C9022952   4.048   6.887   6.120  0.1445  0.6193 -0.4281
   72MOL    H9122953   3.847   6.860   6.134 -1.4066 -1.5590  0.7829
   72MOL    H9222954   3.688   6.416   6.223 -0.5040  0.8937  2.0710
   72MOL    H9322955   3.900   6.294   6.247  1.1493  0.6955  2.0606
   72MOL    H9422956   4.106   6.403   6.274 -0.8166 -1.8573  0.5738
   72MOL    H9522957   4.131   6.644   6.239 -0.4466 -0.1799 -0.9171
   72MOL    H9622958   4.130   6.898   6.191 -0.0506 -2.0943  0.3030
   72MOL    H9722959   4.025   6.986   6.082 -1.6248  0.4685  0.1887
   72MOL    C9822960   4.095   6.793   6.004  1.0664 -0.5724  0.5460
   72MOL    C9922961   4.246   6.758   6.019  0.3043  0.8579  0.1627
   72MOL   C10022962   4.294   6.626   6.018  0.7899 -0.5652 -0.4126
   72MOL  Cl10122963   4.194   6.486   5.975  0.2830 -0.2415 -0.2007
   72MOL   C10222964   4.429   6.594   6.041 -0.1243 -0.2265 -0.0625
   72MOL   C10322965   4.517   6.694   6.075  0.1791 -0.8612 -0.1921
   72MOL   C10422966   4.474   6.827   6.079  0.2938 -0.3670 -0.3062
   72MOL   C10522967   4.342   6.856   6.048 -0.3843  0.2632  0.8257
   72MOL   C10622968   4.078   6.856   5.862  0.7707 -0.1283  0.5529
   72MOL   H10722969   4.040   6.698   6.001  1.7747 -0.9767  0.4237
   72MOL   H10822970   4.473   6.495   6.042  0.8898  0.2158 -0.1807
   72MOL   H10922971   4.622   6.672   6.088 -0.2550 -2.6391  0.4472
   72MOL   H11022972   4.544   6.900   6.119 -0.5345  0.9179 -1.1690
   72MOL   H11122973   4.314   6.960   6.044 -3.1604 -0.4864  0.1069
   72MOL   H11222974   4.151   6.797   5.807 -0.3160 -0.4566 -0.5766
   72MOL   H11322975   4.125   6.955   5.863  0.6421 -0.0693  2.7666
   72MOL   C11422976   3.938   6.872   5.787  0.1703 -1.0598 -0.3140
   72MOL   C11522977   3.847   6.760   5.829 -0.0686  0.9735  0.3890
   72MOL   C11622978   3.718   6.769   5.889  0.2909 -0.5136  0.3089
   72MOL  Cl11722979   3.664   6.929   5.929 -0.0320 -0.1895 -0.0123
   72MOL   C11822980   3.635   6.657   5.916 -0.7530 -0.0336 -0.3218
   72MOL   C11922981   3.691   6.529   5.906 -0.6545 -0.2051  0.4706
   72MOL   C12022982   3.819   6.515   5.840 -0.1572  0.8456  0.7688
   72MOL   C12122983   3.892   6.630   5.796 -0.0560  0.7393  0.5194
   72MOL   C12222984   3.947   6.893   5.629  0.4040  0.1660 -0.6142
   72MOL   H12322985   3.906   6.970   5.820  1.0042 -0.2528 -1.8257
   72MOL   H12422986   3.535   6.681   5.951 -0.3377  1.8424 -0.3665
   72MOL   H12522987   3.637   6.438   5.928 -1.0312 -0.4732 -1.4322
   72MOL   H12622988   3.857   6.420   5.806 -1.8263  0.8008 -1.0792
   72MOL   H12722989   3.982   6.618   5.738 -0.1254  0.4683  0.4681
   72MOL   H12822990   3.852   6.871   5.581  0.5003 -0.7431 -0.3919
   72MOL   H12922991   4.005   6.814   5.581 -1.2276 -0.7422 -1.1014
   72MOL   C13022992   4.000   7.033   5.577 -0.7739 -0.4938 -0.2548
   72MOL   C13122993   3.891   7.137   5.591  0.4338  0.2371  0.0526
   72MOL   C13222994   3.892   7.239   5.690  0.2230 -0.4995  0.2013
   72MOL  Cl13322995   4.013   7.268   5.801 -0.7501 -0.0276  0.2793
   72MOL   C13422996   3.784   7.327   5.697 -0.0094  0.4039  0.3785
   72MOL   C13522997   3.676   7.322   5.600  0.0887  0.5672 -0.4312
   72MOL   C13622998   3.688   7.228   5.494 -0.6759  0.7330  0.0873
   72MOL   C13722999   3.790   7.140   5.488  0.1709  0.2627 -0.3634
   72MOL   C13823000   4.048   7.022   5.432 -1.3395  0.0304 -0.5541
   72MOL   H13923001   4.081   7.075   5.638  0.6298 -1.2506 -1.5787
   72MOL   H14023002   3.787   7.411   5.765  0.1215  1.5244 -0.9723
   72MOL   H14123003   3.596   7.390   5.623 -1.7544 -2.3346  2.1097
   72MOL   H14223004   3.618   7.221   5.413  0.4305  1.5122 -0.9637
   72MOL   H14323005   3.798   7.071   5.405 -0.7685  0.8260 -0.9282
   72MOL   H14423006   4.031   7.112   5.374  3.1687  1.7603  0.6404
   72MOL   H14523007   3.977   6.955   5.383 -1.6090 -0.2373  0.1839
   72MOL   C14623008   4.194   6.975   5.414 -0.7922 -1.1924  0.6536
   72MOL   C14723009   4.293   7.069   5.489 -0.1805 -0.2614 -0.0576
   72MOL   C14823010   4.355   7.025   5.607  0.2293  0.2852  0.4077
   72MOL  Cl14923011   4.348   6.866   5.670  0.0009  0.1461  0.1178
   72MOL   C15023012   4.427   7.118   5.680  0.6940 -0.2442 -0.2987
   72MOL   C15123013   4.431   7.256   5.643  0.2209  0.3197 -0.1555
   72MOL   C15223014   4.387   7.293   5.509  0.3379 -0.1186 -0.5305
   72MOL   C15323015   4.317   7.201   5.432 -0.0726  0.5305 -0.1438
   72MOL   C15423016   4.214   6.960   5.260 -0.1734 -0.6807  0.2651
   72MOL   H15523017   4.205   6.879   5.465 -0.1518 -0.9465  0.9799
   72MOL   H15623018   4.466   7.090   5.777  0.2640  2.0876  0.5865
   72MOL   H15723019   4.488   7.326   5.703  1.5953  0.2050 -1.3133
   72MOL   H15823020   4.394   7.390   5.462  0.8505 -0.2709 -0.7790
   72MOL   H15923021   4.274   7.237   5.340  2.5046  0.6072 -1.3535
   72MOL   H16023022   4.321   6.973   5.240 -0.1995  0.6395  0.9179
   72MOL   H16123023   4.170   7.044   5.206 -1.2050 -2.3872 -1.6275
   72MOL   C16223024   4.182   6.824   5.201  0.3414 -0.1916  0.5516
   72MOL   C16323025   4.268   6.712   5.264  0.7563  0.6983  0.1743
   72MOL   C16423026   4.210   6.605   5.334 -0.2137 -0.5092 -0.4787
   72MOL  Cl16523027   4.046   6.601   5.378  0.4270  0.1180 -0.3055
   72MOL   C16623028   4.291   6.499   5.384  0.1272  0.0868  0.1205
   72MOL   C16723029   4.425   6.494   5.345 -0.2406 -0.6194  0.3564
   72MOL   C16823030   4.479   6.594   5.270  0.2427 -0.2846  0.1467
   72MOL   C16923031   4.404   6.705   5.229 -0.3527 -0.4182  0.6168
   72MOL   C17023032   4.196   6.826   5.041 -0.0394  0.5468 -0.0787
   72MOL   H17123033   4.075   6.811   5.215  0.3186  0.7518  1.3183
   72MOL   H17223034   4.254   6.421   5.449  1.4834  0.4730  1.3685
   72MOL   H17323035   4.496   6.423   5.385  0.0503 -0.5332 -0.0016
   72MOL   H17423036   4.585   6.593   5.250 -0.2576 -0.9146 -2.7142
   72MOL   H17523037   4.451   6.769   5.157 -1.0846 -2.1590 -1.4541
   72MOL   H17623038   4.219   6.729   4.996  1.9560  1.2913 -0.7363
   72MOL   H17723039   4.290   6.878   5.024  0.5602  0.0162  1.5286
   72MOL   C17823040   4.086   6.893   4.956 -0.0304 -0.9068 -0.0587
   72MOL   C17923041   3.961   6.809   4.941  0.7231  0.4536  0.1755
   72MOL   C18023042   3.832   6.837   5.011 -0.3914  0.8316 -0.5641
   72MOL  Cl18123043   3.822   6.962   5.135 -0.2838  0.0254  0.1326
   72MOL   C18223044   3.717   6.756   4.987 -0.1243  0.3799  0.2592
   72MOL   C18323045   3.722   6.653   4.884 -0.1365 -0.0566 -0.0306
   72MOL   C18423046   3.850   6.616   4.828  1.1080  0.2485  0.1350
   72MOL   C18523047   3.965   6.695   4.857 -0.0438 -0.7975  0.0588
   72MOL   C18623048   4.144   6.933   4.819 -0.9543 -0.6031 -0.8393
   72MOL   H18723049   4.048   6.981   5.006 -0.1880 -0.5208 -0.8446
   72MOL   H18823050   3.622   6.779   5.033 -0.4176 -1.9761  0.9108
   72MOL   H18923051   3.632   6.599   4.859  0.0945 -0.5012  0.1004
   72MOL   H19023052   3.859   6.532   4.761  0.2887  0.7883 -0.6666
   72MOL   H19123053   4.061   6.665   4.817  0.7551  1.4525  0.2381
   72MOL   H19223054   4.059   6.921   4.751 -2.9857 -1.4894  1.7451
   72MOL   H19323055   4.215   6.859   4.783  0.2218 -0.9262  2.0565
   72MOL   C19423056   4.169   7.081   4.796 -0.1484 -0.6310  0.9195
   72MOL   C19523057   4.049   7.167   4.810 -0.4114 -0.2173 -0.5839
   72MOL   C19623058   4.041   7.260   4.916 -0.6643 -0.5334 -0.2078
   72MOL  Cl19723059   4.155   7.276   5.038  0.1633  0.0253 -0.1987
   72MOL   C19823060   3.925   7.341   4.921 -0.4786  0.2154  0.0186
   72MOL   C19923061   3.810   7.318   4.837  0.1090  0.6932 -0.0508
   72MOL   C20023062   3.818   7.222   4.727  0.4711 -0.4062  0.2348
   72MOL   C20123063   3.939   7.145   4.713  0.6778 -0.2748 -0.6271
   72MOL   C20223064   4.227   7.099   4.651  0.8540  0.8370  0.1022
   72MOL   H20323065   4.250   7.118   4.859  0.5695 -0.4376 -0.0924
   72MOL   H20423066   3.910   7.409   5.003  1.3585  0.7384 -0.0640
   72MOL   H20523067   3.732   7.389   4.860 -1.2785 -0.7849 -0.1582
   72MOL   H20623068   3.736   7.218   4.656  1.3038  1.7823 -0.8922
   72MOL   H20723069   3.952   7.073   4.633  1.2874  1.1259 -1.8100
   72MOL   H20823070   4.224   7.208   4.643 -0.1866  0.6988 -1.6419
   72MOL   H20923071   4.175   7.049   4.569  0.0451 -0.1894  1.2345
   72MOL   C21023072   4.372   7.075   4.621 -0.1689  0.1863  0.2686
   72MOL   C21123073   4.464   7.142   4.711  0.1105 -0.6895  0.2730
   72MOL   C21223074   4.547   7.078   4.810  0.6685  0.5475  0.2775
   72MOL  Cl21323075   4.533   6.905   4.820 -0.1036 -0.1353 -0.2302
   72MOL   C21423076   4.615   7.156   4.901 -0.0745 -0.0993  0.6689
   72MOL   C21523077   4.612   7.290   4.900  0.0437 -0.0251  0.9084
   72MOL   C21623078   4.534   7.357   4.806  0.1242 -0.1180 -0.3995
   72MOL   C21723079   4.464   7.283   4.713 -0.5191  0.4513 -0.1441
   72MOL   C21823080   4.405   7.078   4.474 -0.8661  1.1556  0.5863
   72MOL   H21923081   4.386   6.968   4.638 -2.0203  0.0924  1.3334
   72MOL   H22023082   4.666   7.105   4.982  0.4413  0.1277  0.4899
   72MOL   H22123083   4.672   7.348   4.968 -0.3957  1.4540  0.0510
   72MOL   H22223084   4.548   7.464   4.798 -0.9229 -0.0217 -1.0574
   72MOL   H22323085   4.423   7.345   4.635  0.7611  1.5362  0.0444
   72MOL   H22423086   4.337   7.149   4.426  0.2624  0.4625 -2.1256
   72MOL   H22523087   4.383   6.981   4.429 -1.0907  2.4858 -2.3180
   72MOL   C22623088   4.546   7.120   4.424  0.6143  0.1673 -0.4246
   72MOL   C22723089   4.532   7.155   4.278  0.3465  0.2329  0.1069
   72MOL   C22823090   4.524   7.290   4.231 -0.1702  0.5806  0.4393
   72MOL  Cl22923091   4.520   7.422   4.340 -0.2883 -0.0488  0.3672
   72MOL   C23023092   4.524   7.316   4.094  1.3581 -0.1347  0.6672
   72MOL   C23123093   4.537   7.204   4.005 -0.0084 -0.5728 -0.0953
   72MOL   C23223094   4.538   7.073   4.053  0.6229 -0.1472  0.1402
   72MOL   C23323095   4.539   7.048   4.191 -0.5390 -0.2270  1.2225
   72MOL   C23423096   4.664   7.019   4.472  0.3702 -0.5880 -0.0210
   72MOL   H23523097   4.571   7.206   4.486  0.3929 -1.0573  1.3929
   72MOL   H23623098   4.516   7.418   4.060  0.0219 -0.6307 -0.5417
   72MOL   H23723099   4.541   7.228   3.899 -1.6347  1.2373  0.2152
   72MOL   H23823100   4.552   6.987   3.990 -1.1911 -1.9846  2.1935
   72MOL   H23923101   4.535   6.949   4.235  0.9447 -0.5023  0.7501
   72MOL   H24023102   4.639   6.918   4.440 -2.5988  0.1140 -0.0267
   72MOL   H24123103   4.670   7.015   4.581 -0.2245  1.8438  0.1365
   72MOL   C24223104   4.805   7.048   4.416  0.4178 -0.1998 -0.2057
   72MOL   C24323105   4.890   6.916   4.421  0.3113  0.1200 -0.2848
   72MOL   C24423106   4.964   6.876   4.307 -0.3815 -0.2989 -0.1706
   72MOL  Cl24523107   4.954   6.959   4.155  0.1613 -0.1370 -0.0352
   72MOL   C24623108   5.040   6.758   4.326 -0.2599  0.2685  0.4627
   72MOL   C24723109   5.061   6.695   4.451 -1.0274 -0.9930  0.1982
   72MOL   C24823110   4.998   6.740   4.565  0.6562 -0.8996 -0.2931
   72MOL   C24923111   4.913   6.851   4.544  0.5036 -0.0342 -0.6236
   72MOL   C25023112   4.869   7.173   4.479  0.1808  0.0940 -0.3225
   72MOL   H25123113   4.783   7.071   4.312  1.4245 -0.2180 -0.4193
   72MOL   H25223114   5.088   6.724   4.235  0.7586  2.3067  0.1966
   72MOL   H25323115   5.130   6.613   4.460 -0.7306 -0.5021  3.0420
   72MOL   H25423116   5.011   6.676   4.651 -0.5832 -1.2325 -0.3376
   72MOL   H25523117   4.851   6.870   4.630  1.7346 -1.0100  0.4924
   72MOL   H25623118   4.839   7.185   4.583 -0.5699  1.4196 -0.6778
   72MOL   H25723119   4.812   7.255   4.435 -2.5910 -0.2128  2.5293
   72MOL   C25823120   5.023   7.192   4.448 -0.0423 -0.5113  0.5159
   72MOL   C25923121   5.113   7.128   4.550 -0.3626 -0.6792 -0.2245
   72MOL   C26023122   5.226   7.057   4.506 -0.2444  0.0206  0.1838
   72MOL  Cl26123123   5.270   7.061   4.338  0.1816  0.3296 -0.0565
   72MOL   C26223124   5.310   6.990   4.598  0.6503  0.4104  0.5338
   72MOL   C26323125   5.279   7.000   4.738  0.3483  0.7411 -0.3319
   72MOL   C26423126   5.173   7.082   4.779 -0.7179  0.3303 -0.0537
   72MOL   C26523127   5.086   7.145   4.685  0.6472  0.8712  0.1799
   72MOL   C26623128   5.069   7.340   4.438 -0.4538  0.2746 -0.5861
   72MOL   H26723129   5.030   7.155   4.346 -0.2425 -0.8328  0.6166
   72MOL   H26823130   5.388   6.926   4.559 -0.7767 -1.8860  1.3583
   72MOL   H26923131   5.341   6.949   4.810 -0.1018 -1.1163 -1.2485
   72MOL   H27023132   5.157   7.096   4.885 -0.4963  1.1029 -0.1216
   72MOL   H27123133   5.008   7.206   4.728  0.1968 -0.3330  1.1044
   72MOL   H27223134   5.177   7.351   4.445 -0.5771  1.2130  0.0598
   72MOL   H27323135   5.035   7.396   4.525  1.9472 -1.2962  1.4178
   72MOL   C27423136   5.031   7.416   4.317 -0.0091  0.0894  0.2566
   72MOL   C27523137   5.099   7.365   4.185 -0.2595 -0.4236 -0.1013
   72MOL   C27623138   5.023   7.329   4.074  0.4097  0.3777  0.4068
   72MOL  Cl27723139   4.850   7.325   4.068  0.2334 -0.3400 -0.1534
   72MOL   C27823140   5.097   7.284   3.958  0.6406  0.3767 -1.1080
   72MOL   C27923141   5.240   7.275   3.960  0.3451 -0.4938 -0.3161
   72MOL   C28023142   5.316   7.323   4.064 -0.1961 -0.2388 -0.4769
   72MOL   C28123143   5.248   7.367   4.177 -0.3860 -0.1684 -0.5220
   72MOL   C28223144   5.080   7.560   4.338  0.3507  0.6903  0.1013
   72MOL   H28323145   4.923   7.406   4.306  0.3774 -2.4454 -1.6347
   72MOL   H28423146   5.026   7.248   3.885 -0.0041  0.2786 -0.4394
   72MOL   H28523147   5.290   7.241   3.871  0.0712 -1.3976 -0.1232
   72MOL   H28623148   5.424   7.328   4.057 -0.2661  0.6297 -0.9359
   72MOL   H28723149   5.311   7.416   4.251  1.9281  0.9407 -3.1450
   72MOL   H28823150   5.083   7.602   4.238  1.0369 -3.7786 -1.8559
   72MOL   H28923151   5.187   7.559   4.361  0.8286  3.7676 -1.7099
   72MOL   C29023152   5.003   7.658   4.431  0.7592  0.3374 -0.0823
   72MOL   C29123153   4.853   7.679   4.392 -0.0667 -0.6100 -0.0998
   72MOL   C29223154   4.744   7.658   4.476  0.4434 -0.0371 -0.1121
   72MOL  Cl29323155   4.774   7.585   4.634  0.4389  0.1216 -0.0710
   72MOL   C29423156   4.616   7.694   4.438  0.7148 -0.3537  0.7486
   72MOL   C29523157   4.589   7.751   4.309 -0.0589  0.4043 -0.4290
   72MOL   C29623158   4.693   7.771   4.218 -0.1241 -0.2433 -0.1318
   72MOL   C29723159   4.826   7.734   4.262  0.5076 -0.0389  0.3177
   72MOL   C29823160   5.073   7.797   4.436 -0.0541 -0.0107 -0.6930
   72MOL   H29923161   5.006   7.606   4.527  3.5951  0.2780 -0.1865
   72MOL   H30023162   4.536   7.674   4.507  0.0088  0.9686  0.3329
   72MOL   H30123163   4.490   7.777   4.275 -1.2492 -2.2567  0.8568
   72MOL   H30223164   4.684   7.812   4.119 -0.2066 -1.3293 -0.5835
   72MOL   H30323165   4.903   7.731   4.186  1.6370 -0.7443  1.4643
   72MOL   H30423166   5.007   7.879   4.466  0.3109 -0.3720  1.1670
   72MOL   H30523167   5.091   7.834   4.335 -0.1759  1.1755 -0.2937
   72MOL   C30623168   5.194   7.789   4.532 -0.0021 -0.3665  0.7066
   72MOL   C30723169   5.153   7.756   4.677  0.8391  0.0301  0.1352
   72MOL   C30823170   5.209   7.650   4.746 -0.1267  0.3038  0.1328
   72MOL  Cl30923171   5.315   7.533   4.676  0.0943  0.0387 -0.2430
   72MOL   C31023172   5.164   7.616   4.873  0.3408 -0.2757  0.5707
   72MOL   C31123173   5.069   7.691   4.941 -0.0598 -0.4115  0.6687
   72MOL   C31223174   5.017   7.806   4.876  0.5489  0.2806 -0.5449
   72MOL   C31323175   5.058   7.832   4.743  0.6203 -0.5177  0.0796
   72MOL   C31423176   5.277   7.926   4.537 -0.3211  0.0295 -0.0842
   72MOL   H31523177   5.257   7.708   4.497 -0.1796  0.0847 -0.7024
   72MOL   H31623178   5.211   7.534   4.925 -1.9756  0.6080  4.2015
   72MOL   H31723179   5.048   7.664   5.043 -1.3662  2.4532  1.2114
   72MOL   H31823180   4.958   7.879   4.930  1.1034 -1.4838  2.5719
   72MOL   H31923181   5.007   7.918   4.703  0.4546 -0.5759  0.1673
   72MOL   H32023182   5.289   7.968   4.437 -0.9594  0.0266 -0.1634
   72MOL   H32123183   5.380   7.911   4.571 -0.7256  0.3770  1.3361
   72MOL   H32223184   5.231   8.006   4.594  0.8859  0.5587  0.1597
   73MOL     C123185   8.185   3.256   0.112  0.4850 -0.0948 -0.4246
   73MOL     C223186   8.245   3.386   0.168 -0.4163 -0.7518 -0.5210
   73MOL     C323187   8.165   3.476   0.245  0.0922 -0.3695 -0.5548
   73MOL    Cl423188   8.009   3.434   0.304 -0.0084  0.0145  0.5031
   73MOL     C523189   8.216   3.601   0.290  0.6050  0.8499 -0.3207
   73MOL     C623190   8.355   3.627   0.265  0.1428  0.1606  0.3442
   73MOL     C723191   0.006   3.543   0.180 -0.3164 -0.2079  0.1928
   73MOL     C823192   8.375   3.421   0.134 -0.2229 -0.1033  0.5527
   73MOL     C923193   8.101   3.280   8.405 -0.2852  0.7014  0.6653
   73MOL    H1023194   8.277   3.197   0.113  0.2951 -0.3902 -0.3153
   73MOL    H1123195   8.156   3.665   0.353 -1.2524  0.1558 -1.3238
   73MOL    H1223196   8.402   3.716   0.306 -0.8785  1.6818 -1.6812
   73MOL    H1323197   0.107   3.574   0.158 -0.3036 -0.6619 -0.4095
   73MOL    H1423198   0.023   3.361   0.076  0.7835  0.8165  0.7611
   73MOL    H1523199   8.176   3.319   8.336 -0.2128  1.2141  1.0287
   73MOL    H1623200   8.029   3.360   0.004 -0.3742  0.9175 -0.5106
   73MOL    H1723201   8.127   3.211   0.193 -1.4101  2.5042 -0.2885
   73MOL    C1823202   8.035   3.156   8.349 -0.3770  0.1828 -0.3729
   73MOL    C1923203   8.015   3.174   8.191 -0.1789  0.0347 -0.1086
   73MOL    C2023204   8.072   3.089   8.090 -0.4828  0.1714 -0.5202
   73MOL   Cl2123205   8.171   2.962   8.143 -0.4224  0.0581 -0.5997
   73MOL    C2223206   8.035   3.097   7.957 -0.1513 -0.3109 -0.4033
   73MOL    C2323207   7.943   3.196   7.914 -0.4719  0.0435 -0.1041
   73MOL    C2423208   7.898   3.291   8.011 -0.0019 -0.1869 -0.1588
   73MOL    C2523209   7.932   3.278   8.142 -0.5196 -0.3313 -0.1100
   73MOL    C2623210   7.906   3.125   8.421 -0.0581  0.4823 -0.0504
   73MOL    H2723211   8.106   3.076   8.368 -1.0419 -0.1948  0.5083
   73MOL    H2823212   8.078   3.027   7.886 -0.6916 -0.5178 -0.5326
   73MOL    H2923213   7.929   3.214   7.809 -4.0538  2.7221  0.7258
   73MOL    H3023214   7.853   3.381   7.971  0.6901  1.9642  3.6362
   73MOL    H3123215   7.890   3.351   8.210 -0.6552 -2.5080  2.2270
   73MOL    H3223216   7.826   3.144   8.349 -0.8339  0.9846  0.9397
   73MOL    H3323217   7.889   3.193   0.083 -1.4396  0.0630  0.0297
   73MOL    C3423218   7.895   2.984   0.059 -0.0959 -0.1466 -0.1802
   73MOL    C3523219   7.868   2.880   8.370  0.1894 -0.0611  0.4121
   73MOL    C3623220   7.949   2.764   8.349  0.9982  0.2382 -0.2352
   73MOL   Cl3723221   8.090   2.739   0.032 -0.3166 -0.1545 -0.2351
   73MOL    C3823222   7.918   2.672   8.254 -0.1346 -0.7360  0.4172
   73MOL    C3923223   7.803   2.691   8.175  0.1208  1.0770 -0.2794
   73MOL    C4023224   7.722   2.799   8.192  0.1443  0.0020 -0.1480
   73MOL    C4123225   7.749   2.895   8.287  0.3822  0.7086 -0.4403
   73MOL    C4223226   7.789   2.990   0.173 -0.1070  0.2474 -0.1060
   73MOL    H4323227   7.988   2.965   0.113  0.3349  2.6076  0.0991
   73MOL    H4423228   7.967   2.578   8.235 -0.4509 -0.8330  0.0814
   73MOL    H4523229   7.768   2.612   8.110  0.5116  1.5404 -1.0589
   73MOL    H4623230   7.652   2.824   8.114  0.5470  1.3647 -0.0865
   73MOL    H4723231   7.682   2.979   8.296 -0.7019 -0.2233  0.3731
   73MOL    H4823232   7.697   3.034   0.134 -0.7332  1.1884  2.3456
   73MOL    H4923233   7.835   3.058   0.244  1.5169  0.3184 -1.2059
   73MOL    C5023234   7.746   2.853   0.240  0.2139 -0.5573 -0.1605
   73MOL    C5123235   7.636   2.773   0.164 -0.1101  0.8089  0.3682
   73MOL    C5223236   7.652   2.639   0.127  0.1301 -0.3699 -0.4364
   73MOL   Cl5323237   7.798   2.550   0.163  0.2591  0.0752  0.6046
   73MOL    C5423238   7.545   2.570   0.066 -0.5283 -0.0073 -0.0924
   73MOL    C5523239   7.418   2.631   0.049 -0.3925 -0.3038  0.1402
   73MOL    C5623240   7.403   2.762   0.092 -0.4043  0.1076 -1.7998
   73MOL    C5723241   7.512   2.838   0.144 -0.0039  0.1857 -0.2348
   73MOL    C5823242   7.720   2.870   0.404  0.7673 -0.1023  0.2372
   73MOL    H5923243   7.836   2.792   0.236  0.8836  0.4269 -0.3176
   73MOL    H6023244   7.569   2.470   0.032  1.0145  0.8347 -1.5433
   73MOL    H6123245   7.328   2.584   0.015 -0.3198 -1.1611  1.1268
   73MOL    H6223246   7.312   2.820   0.088  1.3086  3.3724  1.9177
   73MOL    H6323247   7.506   2.939   0.183  0.5785 -0.5919  1.9763
   73MOL    H6423248   7.673   2.778   0.439  0.0205  0.9497  2.0493
   73MOL    H6523249   7.660   2.959   0.420  1.6598  0.2706  1.6543
   73MOL    C6623250   7.851   2.899   0.488  0.5647  0.7272 -0.1121
   73MOL    C6723251   7.969   2.799   0.461  0.5233  0.9590  0.1928
   73MOL    C6823252   8.091   2.835   0.400 -0.0067 -0.2589  0.0281
   73MOL   Cl6923253   8.129   2.997   0.350 -0.1514 -0.1317  0.0732
   73MOL    C7023254   8.182   2.730   0.366 -0.4033  0.0142  0.0351
   73MOL    C7123255   8.162   2.596   0.398 -0.4544  0.2403 -0.2200
   73MOL    C7223256   8.041   2.563   0.455  0.2158 -0.0779 -0.1011
   73MOL    C7323257   7.941   2.657   0.484  0.0059 -0.5046  0.3856
   73MOL    C7423258   7.814   2.893   0.638  0.2958 -0.5029 -0.2798
   73MOL    H7523259   7.891   2.999   0.469 -0.9011  1.0527 -1.6888
   73MOL    H7623260   8.275   2.759   0.318 -1.6424  0.6806 -2.0252
   73MOL    H7723261   8.233   2.518   0.377 -0.2725  0.4978 -0.5671
   73MOL    H7823262   8.028   2.457   0.471 -0.8164  0.0184 -0.2713
   73MOL    H7923263   7.854   2.636   0.543 -0.4780  1.5273  0.4493
   73MOL    H8023264   7.906   2.875   0.693  1.8685  0.1006 -2.6445
   73MOL    H8123265   7.749   2.808   0.654  0.8834 -0.8520  0.2585
   73MOL    C8223266   7.727   3.022   0.689  0.4687  0.7797 -0.3274
   73MOL    C8323267   7.804   3.155   0.674  0.3377 -0.5469  0.2542
   73MOL    C8423268   7.737   3.269   0.623  0.1700  0.3719 -0.1463
   73MOL   Cl8523269   7.571   3.275   0.567  0.1351  0.1463  0.0948
   73MOL    C8623270   7.815   3.382   0.592 -0.1170  0.1802  0.8977
   73MOL    C8723271   7.952   3.390   0.634 -0.4279 -0.7484 -0.4170
   73MOL    C8823272   8.017   3.278   0.682 -0.6954  0.2474 -0.2482
   73MOL    C8923273   7.941   3.160   0.708 -0.4014  0.2779  0.3093
   73MOL    C9023274   7.684   3.006   0.834  0.4278  0.0355  0.1955
   73MOL    H9123275   7.641   3.034   0.623  1.3278 -1.7621 -2.0184
   73MOL    H9223276   7.776   3.464   0.533  0.1936 -0.6926 -0.5473
   73MOL    H9323277   8.017   3.470   0.599 -0.4416  0.2936  1.8211
   73MOL    H9423278   8.123   3.293   0.700 -1.2134  0.5496  2.8488
   73MOL    H9523279   8.004   3.080   0.745  1.1144  0.5106 -1.7235
   73MOL    H9623280   7.645   3.101   0.869  0.8733  0.9319 -1.6342
   73MOL    H9723281   7.780   2.983   0.881  0.7009 -1.2102 -0.9148
   73MOL    C9823282   7.569   2.904   0.873 -0.7258  0.3830  0.3033
   73MOL    C9923283   7.444   2.931   0.783 -0.2674  0.2538  0.4984
   73MOL   C10023284   7.384   2.833   0.691 -0.0836  0.2959  0.0650
   73MOL  Cl10123285   7.464   2.683   0.654  0.2683 -0.0588 -0.1831
   73MOL   C10223286   7.266   2.868   0.627  0.1639  0.7723 -0.3588
   73MOL   C10323287   7.217   3.002   0.626  0.0742 -0.1256 -1.0155
   73MOL   C10423288   7.274   3.099   0.706 -0.4423 -0.3708 -0.5440
   73MOL   C10523289   7.385   3.064   0.783 -0.1447 -0.2146 -0.3525
   73MOL   C10623290   7.529   2.898   1.027 -0.1327 -0.0437  0.0446
   73MOL   H10723291   7.609   2.806   0.846 -1.4067  0.8179 -2.3831
   73MOL   H10823292   7.221   2.793   0.563 -0.1961 -0.5738  1.4380
   73MOL   H10923293   7.118   3.017   0.583  0.0512 -0.9150 -1.2371
   73MOL   H11023294   7.231   3.198   0.718 -3.1760 -1.5053 -0.8185
   73MOL   H11123295   7.418   3.150   0.839  1.1072 -0.0818 -1.2905
   73MOL   H11223296   7.519   3.005   1.044  0.8093  0.0415  0.0497
   73MOL   H11323297   7.612   2.870   1.091  1.3283  0.3795 -1.6378
   73MOL   C11423298   7.396   2.827   1.063  0.2079  0.6947  0.0937
   73MOL   C11523299   7.355   2.864   1.205 -0.1506 -0.2682 -0.4895
   73MOL   C11623300   7.249   2.956   1.230  0.5241 -0.5500  0.7276
   73MOL  Cl11723301   7.151   3.026   1.102  0.6098 -0.3680 -0.0413
   73MOL   C11823302   7.221   2.998   1.358 -0.4159 -0.4135 -0.3483
   73MOL   C11923303   7.283   2.937   1.474  0.0166  0.0247 -0.2558
   73MOL   C12023304   7.380   2.846   1.452 -0.7076  0.4881  0.1114
   73MOL   C12123305   7.424   2.816   1.321 -0.0567  0.0851  0.1084
   73MOL   C12223306   7.408   2.674   1.043  0.4600  0.5224  0.0045
   73MOL   H12323307   7.324   2.868   0.993 -0.4979  1.0619  1.0257
   73MOL   H12423308   7.135   3.063   1.367  0.5135  0.6195  1.3120
   73MOL   H12523309   7.254   2.971   1.572  0.3105 -0.8816  0.1448
   73MOL   H12623310   7.423   2.800   1.541 -2.9622  1.7136  1.8790
   73MOL   H12723311   7.495   2.739   1.297 -0.8608 -0.2640 -1.2287
   73MOL   H12823312   7.455   2.613   1.121  0.2766  1.1769  0.6290
   73MOL   H12923313   7.478   2.652   0.962 -0.8081 -2.6440 -0.3172
   73MOL   C13023314   7.268   2.616   0.993 -0.3042  0.2799 -0.0275
   73MOL   C13123315   7.163   2.609   1.107  0.2175 -0.4190  0.3952
   73MOL   C13223316   7.186   2.511   1.211  0.6035  0.5522  0.5534
   73MOL  Cl13323317   7.330   2.421   1.245 -0.1617 -0.4769  0.0317
   73MOL   C13423318   7.082   2.489   1.306  0.7732  0.0788 -0.2312
   73MOL   C13523319   6.958   2.557   1.299  0.1730 -0.3665 -0.1086
   73MOL   C13623320   6.940   2.649   1.192 -0.1057  0.1796  0.6029
   73MOL   C13723321   7.038   2.676   1.099  0.3719  0.0208 -0.6768
   73MOL   C13823322   7.276   2.487   0.916 -0.3053 -0.0319  0.1247
   73MOL   H13923323   7.231   2.691   0.923  0.7007  1.1548  0.3634
   73MOL   H14023324   7.094   2.409   1.378 -0.2472  0.6502  0.5812
   73MOL   H14123325   6.878   2.543   1.370  0.2469 -0.5449 -0.0618
   73MOL   H14223326   6.851   2.708   1.177  1.9370  2.8192 -1.7501
   73MOL   H14323327   7.010   2.745   1.020 -1.6398  0.1903  0.1457
   73MOL   H14423328   7.303   2.402   0.979 -1.0285  1.1680  2.0665
   73MOL   H14523329   7.357   2.504   0.845  0.2996 -0.1102  0.7911
   73MOL   C14623330   7.152   2.445   0.837  0.9258  0.3471 -0.2408
   73MOL   C14723331   7.173   2.296   0.802 -0.2285  0.0069  0.3148
   73MOL   C14823332   7.110   2.189   0.874 -0.4586  0.3987  0.3600
   73MOL  Cl14923333   6.995   2.207   1.001  0.2934  0.2800  0.1623
   73MOL   C15023334   7.130   2.056   0.837 -0.7905 -0.2731  0.4178
   73MOL   C15123335   7.203   2.019   0.721  0.1179 -0.1848  0.6847
   73MOL   C15223336   7.271   2.123   0.653  0.6270  0.7152 -0.7967
   73MOL   C15323337   7.257   2.259   0.691 -0.1659  0.1962 -0.1869
   73MOL   C15423338   7.130   2.531   0.710 -0.7681  0.6160 -0.2036
   73MOL   H15523339   7.067   2.454   0.904  0.9309 -1.6112  0.0455
   73MOL   H15623340   7.081   1.978   0.893 -0.9146 -0.5563 -0.0745
   73MOL   H15723341   7.199   1.917   0.686  4.0701 -0.0797 -0.3435
   73MOL   H15823342   7.338   2.094   0.574  0.9295  0.0712 -0.3069
   73MOL   H15923343   7.313   2.332   0.634 -0.9678 -0.5364 -1.9777
   73MOL   H16023344   7.211   2.514   0.639  0.3284 -1.2253  1.4530
   73MOL   H16123345   7.137   2.637   0.733 -0.8086  0.5266  0.2108
   73MOL   C16223346   7.001   2.513   0.639 -0.1732 -0.0316  0.0049
   73MOL   C16323347   6.892   2.561   0.732 -0.3427 -0.4656 -0.2709
   73MOL   C16423348   6.867   2.699   0.736  0.5472 -0.4374  0.0166
   73MOL  Cl16523349   6.945   2.811   0.631 -0.0647 -0.2058  0.0889
   73MOL   C16623350   6.754   2.750   0.807  0.3228  0.6811 -0.6915
   73MOL   C16723351   6.677   2.653   0.881  0.1337 -0.1811  0.1380
   73MOL   C16823352   6.707   2.518   0.878 -0.0725  0.2265 -0.4530
   73MOL   C16923353   6.816   2.473   0.804  0.5996  0.3499 -0.2757
   73MOL   C17023354   6.985   2.378   0.566  0.5242 -0.2174  0.1664
   73MOL   H17123355   7.006   2.582   0.555 -0.0496 -1.5578 -1.2724
   73MOL   H17223356   6.727   2.854   0.808  1.2903  0.9529 -1.6180
   73MOL   H17323357   6.588   2.680   0.934  1.3052 -0.7400  2.4557
   73MOL   H17423358   6.658   2.450   0.947  0.5958 -1.3827 -1.5524
   73MOL   H17523359   6.842   2.369   0.818  1.0410  0.7698  2.2201
   73MOL   H17623360   6.973   2.293   0.634 -0.7533 -0.5854 -0.5028
   73MOL   H17723361   7.078   2.362   0.511  0.4292 -0.0722 -0.0382
   73MOL   C17823362   6.886   2.377   0.457  0.0569 -0.2123 -0.0568
   73MOL   C17923363   6.746   2.364   0.510 -1.0525  0.2421 -0.1091
   73MOL   C18023364   6.655   2.471   0.487  0.1738 -0.6449 -0.4263
   73MOL  Cl18123365   6.703   2.617   0.416  0.3349 -0.1225  0.2581
   73MOL   C18223366   6.517   2.448   0.510 -0.5502  0.0164  0.0178
   73MOL   C18323367   6.469   2.326   0.575  0.8597 -0.1494 -0.0271
   73MOL   C18423368   6.563   2.227   0.599 -0.0384 -0.1589  0.4448
   73MOL   C18523369   6.697   2.241   0.566  0.2420  0.0677  0.3270
   73MOL   C18623370   6.918   2.254   0.360 -0.2464 -0.1410 -0.5947
   73MOL   H18723371   6.890   2.467   0.395  1.6373  0.3275  0.8022
   73MOL   H18823372   6.452   2.534   0.500  1.6812  1.7618  0.2254
   73MOL   H18923373   6.366   2.309   0.605  0.5993  3.8991  1.6658
   73MOL   H19023374   6.524   2.133   0.634 -1.6343  0.7051  1.0231
   73MOL   H19123375   6.756   2.150   0.572 -1.3165 -0.7504  4.2014
   73MOL   H19223376   6.830   2.225   0.303  0.5277 -1.8327 -0.9573
   73MOL   H19323377   6.941   2.163   0.416  0.2147  0.2448 -0.1403
   73MOL   C19423378   7.038   2.267   0.264  1.0338 -0.4425 -0.5567
   73MOL   C19523379   7.028   2.407   0.201 -0.2367 -0.7433 -0.1638
   73MOL   C19623380   7.112   2.514   0.236  0.3698  0.4697  0.2032
   73MOL  Cl19723381   7.267   2.491   0.322  0.0342  0.5414 -0.3670
   73MOL   C19823382   7.078   2.646   0.199 -0.0150 -0.5740 -0.4215
   73MOL   C19923383   6.970   2.665   0.116 -0.0024 -0.0571  0.8337
   73MOL   C20023384   6.902   2.555   0.058  0.0865 -0.6170 -0.0363
   73MOL   C20123385   6.921   2.427   0.111 -0.4940  0.0120 -0.3414
   73MOL   C20223386   7.040   2.153   0.155  0.0900  0.1436  0.5286
   73MOL   H20323387   7.132   2.267   0.320  0.5964 -0.7733  0.1799
   73MOL   H20423388   7.132   2.736   0.223 -1.2355  0.7297 -2.4184
   73MOL   H20523389   6.945   2.766   0.087  0.8874  0.5303  2.0384
   73MOL   H20623390   6.819   2.558   8.410 -0.6230 -0.9039  0.7891
   73MOL   H20723391   6.864   2.339   0.088 -1.8170  0.9461 -0.6724
   73MOL   H20823392   7.089   2.192   0.065 -2.2240  2.4534  0.2197
   73MOL   H20923393   6.938   2.139   0.119 -1.4262  2.5857  3.6426
   73MOL   C21023394   7.094   2.019   0.210 -0.4869  0.4067 -0.3440
   73MOL   C21123395   7.242   2.034   0.244 -0.5045  0.1150  0.2548
   73MOL   C21223396   7.294   1.944   0.340 -0.3515 -0.0714 -0.0264
   73MOL  Cl21323397   7.194   1.827   0.417  0.1433 -0.3461  0.1658
   73MOL   C21423398   7.437   1.952   0.365 -0.2705  0.0652 -0.1375
   73MOL   C21523399   7.528   2.036   0.295 -0.0625 -0.3514 -0.4186
   73MOL   C21623400   7.470   2.124   0.203  0.8069  0.2589 -0.5121
   73MOL   C21723401   7.332   2.118   0.179  0.1935 -0.5752  0.2280
   73MOL   C21823402   7.082   1.897   0.110  0.7161  0.2678 -0.2561
   73MOL   H21923403   7.035   1.999   0.299 -1.4503  1.2214 -0.7942
   73MOL   H22023404   7.481   1.879   0.431  1.3549  1.0342 -0.1276
   73MOL   H22123405   7.634   2.032   0.317  0.2037  2.7282 -0.8325
   73MOL   H22223406   7.526   2.202   0.154 -1.2999  2.6403  0.7657
   73MOL   H22323407   7.284   2.185   0.110  0.3610  0.8929  1.5183
   73MOL   H22423408   7.130   1.806   0.147 -0.8521 -0.5899 -0.2790
   73MOL   H22523409   7.135   1.919   0.018 -0.3060 -1.5377 -1.3026
   73MOL   C22623410   6.938   1.856   0.075  0.0769 -0.1747 -0.2452
   73MOL   C22723411   6.841   1.853   0.193 -0.6050 -0.5090 -0.2026
   73MOL   C22823412   6.726   1.936   0.200  0.1184  0.1448  0.5657
   73MOL  Cl22923413   6.658   2.017   0.066 -0.0648 -0.6082 -0.1428
   73MOL   C23023414   6.659   1.945   0.325  0.4233  0.4403  0.7906
   73MOL   C23123415   6.716   1.888   0.439 -0.1324  0.0517  0.4628
   73MOL   C23223416   6.815   1.788   0.429 -0.1799  0.1486  0.2642
   73MOL   C23323417   6.876   1.770   0.305 -0.0646  0.1610  0.0051
   73MOL   C23423418   6.925   1.726   8.410 -0.1349 -0.1403  0.6375
   73MOL   H23523419   6.895   1.938   0.018 -1.6594 -0.1359  1.0799
   73MOL   H23623420   6.567   1.996   0.349  0.4562  1.1559 -0.5829
   73MOL   H23723421   6.672   1.901   0.536  1.5913  1.5977  1.0781
   73MOL   H23823422   6.835   1.729   0.517 -0.3503  2.6145  2.0084
   73MOL   H23923423   6.966   1.711   0.301  0.5385  1.2178 -3.3782
   73MOL   H24023424   6.824   1.685   8.414  0.2201 -1.0577  0.2697
   73MOL   H24123425   6.979   1.651   0.048 -2.0041 -0.6615  1.7506
   73MOL   C24223426   6.956   1.733   8.259 -0.1394  0.1135  1.1238
   73MOL   C24323427   6.860   1.828   8.185 -0.6681 -0.3245  0.4566
   73MOL   C24423428   6.916   1.924   8.096 -0.7862  0.7033 -0.0367
   73MOL  Cl24523429   7.086   1.947   8.071  0.1174  0.1915  0.5850
   73MOL   C24623430   6.828   2.000   8.012 -0.4036  0.7411  0.1355
   73MOL   C24723431   6.688   2.000   8.028  0.2167  0.7462 -0.1478
   73MOL   C24823432   6.635   1.909   8.124 -0.3232  0.3047  0.0979
   73MOL   C24923433   6.722   1.822   8.198  0.7187 -0.6748  0.0018
   73MOL   C25023434   6.955   1.593   8.203  0.6431  0.6664 -0.0435
   73MOL   H25123435   7.058   1.763   8.236  0.3811 -2.7862 -0.6229
   73MOL   H25223436   6.871   2.065   7.938 -0.0353 -1.2028 -1.3825
   73MOL   H25323437   6.625   2.065   7.968  0.1923  0.4059 -0.4904
   73MOL   H25423438   6.528   1.903   8.142 -0.3495 -0.0434 -0.1803
   73MOL   H25523439   6.677   1.755   8.271 -0.7310 -0.5618 -0.7605
   73MOL   H25623440   6.860   1.541   8.214 -0.0351  1.9415  0.2558
   73MOL   H25723441   7.024   1.556   8.278  0.5588  1.4307  0.4184
   73MOL   C25823442   7.037   1.583   8.069 -0.2759  0.2815 -0.5800
   73MOL   C25923443   6.967   1.610   7.942 -0.2546  0.0147  0.2507
   73MOL   C26023444   6.840   1.550   7.901  0.6143 -0.0425  0.0183
   73MOL  Cl26123445   6.751   1.440   8.004  0.0391 -0.1227 -0.1332
   73MOL   C26223446   6.787   1.574   7.770  0.2246  0.5486 -0.9829
   73MOL   C26323447   6.860   1.653   7.673 -0.1259  0.8596  0.4625
   73MOL   C26423448   6.972   1.717   7.725  0.2567 -0.2898 -0.1084
   73MOL   C26523449   7.029   1.690   7.846 -0.1386 -0.6675  0.1570
   73MOL   C26623450   7.122   1.458   8.063 -0.0269  0.5961 -0.5181
   73MOL   H26723451   7.121   1.652   8.073  0.2689 -0.4224  0.3759
   73MOL   H26823452   6.690   1.538   7.738  0.7246 -0.0338 -1.8682
   73MOL   H26923453   6.825   1.673   7.573 -1.1977  1.8292  1.0156
   73MOL   H27023454   7.028   1.776   7.654 -0.6886  1.1180  0.2989
   73MOL   H27123455   7.126   1.732   7.871  0.5052 -1.7195 -0.5399
   73MOL   H27223456   7.137   1.416   7.963 -1.9555 -0.6644 -0.3050
   73MOL   H27323457   7.071   1.373   8.109 -0.5673  1.7500  1.0656
   73MOL   C27423458   7.252   1.478   8.152  0.1670  0.5066 -0.2361
   73MOL   C27523459   7.356   1.549   8.076 -0.3827  0.4998 -0.0364
   73MOL   C27623460   7.399   1.679   8.115 -0.6964 -0.2534  0.1384
   73MOL  Cl27723461   7.326   1.760   8.251 -0.0542 -0.2633  0.3619
   73MOL   C27823462   7.509   1.736   8.050 -0.0460 -0.1408  0.0642
   73MOL   C27923463   7.570   1.675   7.940 -0.8716 -0.2409  0.0371
   73MOL   C28023464   7.531   1.550   7.899  0.3402  0.0878 -0.2771
   73MOL   C28123465   7.426   1.486   7.970 -0.4942  0.4640  0.0220
   73MOL   C28223466   7.315   1.341   8.194 -0.7530  0.1894 -0.2280
   73MOL   H28323467   7.234   1.536   8.243 -1.2253 -0.9489  0.4533
   73MOL   H28423468   7.543   1.828   8.097 -0.3091  1.2908 -2.4659
   73MOL   H28523469   7.659   1.730   7.913  0.6359 -1.4032  2.5257
   73MOL   H28623470   7.576   1.501   7.814 -1.0116  2.3857 -2.3892
   73MOL   H28723471   7.408   1.383   7.942 -2.1179  0.6463  0.3287
   73MOL   H28823472   7.412   1.367   8.237  0.6290 -1.6831 -2.0991
   73MOL   H28923473   7.324   1.268   8.114  2.5301 -0.2029  0.4173
   73MOL   C29023474   7.246   1.262   8.303  0.1181  0.3178 -0.1480
   73MOL   C29123475   7.198   1.337   0.003 -0.0931  0.6225 -0.1327
   73MOL   C29223476   7.068   1.330   0.060  0.0533 -0.3346  0.4579
   73MOL  Cl29323477   6.943   1.235   8.410  0.0977 -0.0717  0.1391
   73MOL   C29423478   7.040   1.403   0.179 -0.6824 -0.0031  0.1013
   73MOL   C29523479   7.128   1.482   0.244  0.4450  0.9555 -0.2062
   73MOL   C29623480   7.252   1.499   0.184  0.5543 -1.0020 -0.4269
   73MOL   C29723481   7.289   1.427   0.072 -0.1061 -0.0738  0.1759
   73MOL   C29823482   7.331   1.148   8.354 -0.0121  0.6048 -0.6056
   73MOL   H29923483   7.157   1.215   8.261  0.7590  0.3216 -1.5357
   73MOL   H30023484   6.944   1.395   0.228 -0.9279  1.0031 -0.2133
   73MOL   H30123485   7.098   1.538   0.331 -1.8402  1.5983 -1.3797
   73MOL   H30223486   7.322   1.565   0.234 -0.6434  1.8716 -2.4187
   73MOL   H30323487   7.388   1.440   0.032  0.9174 -0.7877  2.4115
   73MOL   H30423488   7.283   1.106   0.023  0.8293  0.2402 -0.3257
   73MOL   H30523489   7.429   1.181   8.387 -0.8099  1.1868  1.2434
   73MOL   C30623490   7.339   1.038   8.244  0.2367 -0.6697 -0.5201
   73MOL   C30723491   7.217   0.952   8.250 -0.2832 -0.6556  0.1749
   73MOL   C30823492   7.124   0.962   8.145 -0.4344 -0.7904 -0.0809
   73MOL  Cl30923493   7.146   1.076   8.010 -0.0904  0.0160 -0.0966
   73MOL   C31023494   7.005   0.891   8.149 -0.7499  0.9127  0.3809
   73MOL   C31123495   6.974   0.805   8.255  0.1085 -0.2083  0.7255
   73MOL   C31223496   7.067   0.786   8.358  0.7355 -0.0819  0.4881
   73MOL   C31323497   7.187   0.860   8.355 -0.0946  0.8293  0.2688
   73MOL   C31423498   7.471   0.956   8.279 -0.1274 -0.4131 -0.1131
   73MOL   H31523499   7.349   1.079   8.144  3.2953  0.4251  0.1823
   73MOL   H31623500   6.940   0.913   8.065  1.1812 -1.3921 -1.8091
   73MOL   H31723501   6.875   0.761   8.256 -0.9551  1.9358 -1.7959
   73MOL   H31823502   7.042   0.717   0.016 -0.1226 -2.6183 -1.9124
   73MOL   H31923503   7.259   0.836   0.011  0.5443 -0.6510 -0.7780
   73MOL   H32023504   7.475   0.863   8.222 -0.7544 -0.4321 -0.1300
   73MOL   H32123505   7.478   0.909   8.376 -1.9478 -3.7491 -1.5181
   73MOL   H32223506   7.561   1.015   8.260 -0.3179 -0.2908 -0.6644
   74MOL     C123507   2.967   4.885   5.143  0.2379 -0.5095  0.2312
   74MOL     C223508   2.882   4.806   5.231  0.4875  0.4995 -0.3004
   74MOL     C323509   2.899   4.667   5.263 -0.5427  0.1035 -0.3855
   74MOL    Cl423510   3.042   4.579   5.212  0.0686  0.0719  0.0117
   74MOL     C523511   2.807   4.600   5.350  0.3995  0.6547 -0.6253
   74MOL     C623512   2.713   4.678   5.419 -0.4522 -0.8827 -0.3795
   74MOL     C723513   2.705   4.816   5.404 -0.6692  0.6179 -0.6119
   74MOL     C823514   2.784   4.881   5.309 -0.0560  0.0627  0.2478
   74MOL     C923515   3.064   4.984   5.211  0.0535 -0.0247  0.4534
   74MOL    H1023516   3.019   4.828   5.065  2.0324  2.9416 -1.1906
   74MOL    H1123517   2.821   4.494   5.368 -1.1800  0.7855  1.5832
   74MOL    H1223518   2.649   4.626   5.489  0.4972 -1.5325  0.0196
   74MOL    H1323519   2.636   4.866   5.471 -0.5575  0.3966 -0.3303
   74MOL    H1423520   2.782   4.989   5.305  0.2238  0.0582 -0.0661
   74MOL    H1523521   3.131   4.931   5.278 -0.0889 -0.4617  0.2513
   74MOL    H1623522   2.997   5.039   5.277 -1.2370 -0.8907 -0.1330
   74MOL    H1723523   2.898   4.946   5.085 -0.1380  0.4122  1.6206
   74MOL    C1823524   3.143   5.082   5.117 -0.0049  0.2144 -0.5698
   74MOL    C1923525   3.219   5.007   5.005 -0.7609 -0.2580  0.0669
   74MOL    C2023526   3.171   4.997   4.869  0.3672 -0.4234  0.2669
   74MOL   Cl2123527   3.013   5.060   4.822  0.1002 -0.0085  0.0458
   74MOL    C2223528   3.245   4.931   4.778 -0.0782 -0.1276 -0.3650
   74MOL    C2323529   3.354   4.856   4.805 -0.1430 -0.1268 -0.1569
   74MOL    C2423530   3.403   4.860   4.937  0.0885  1.0506  0.3124
   74MOL    C2523531   3.338   4.936   5.040  0.6488  0.8503  0.2614
   74MOL    C2623532   3.222   5.191   5.194  0.2982 -0.0824  0.1846
   74MOL    H2723533   3.069   5.142   5.063 -0.2994  2.0495  1.8230
   74MOL    H2823534   3.199   4.936   4.681 -3.3849  3.6188  1.2592
   74MOL    H2923535   3.413   4.798   4.736  1.5253  0.2020  0.9766
   74MOL    H3023536   3.492   4.800   4.950 -0.8470 -0.7201 -1.2404
   74MOL    H3123537   3.388   4.946   5.135  1.4794  0.3500 -0.1136
   74MOL    H3223538   3.282   5.142   5.272 -1.7318 -0.7408  1.3623
   74MOL    H3323539   3.148   5.248   5.250 -0.5400 -0.3114 -0.6843
   74MOL    C3423540   3.297   5.289   5.104 -0.6170  0.4368  0.3759
   74MOL    C3523541   3.442   5.242   5.072  0.3429 -0.1972  0.5263
   74MOL    C3623542   3.485   5.221   4.936  0.2280 -0.4218  0.5728
   74MOL   Cl3723543   3.393   5.276   4.799  0.2100  0.0380 -0.4285
   74MOL    C3823544   3.613   5.172   4.911 -0.0013  0.5473 -0.8570
   74MOL    C3923545   3.698   5.144   5.020 -0.1495  0.2686 -0.7975
   74MOL    C4023546   3.658   5.167   5.154 -0.2609 -0.1402  0.5050
   74MOL    C4123547   3.529   5.215   5.178  0.3427  0.2012 -0.4612
   74MOL    C4223548   3.290   5.433   5.165  0.1860 -0.4502  0.2474
   74MOL    H4323549   3.248   5.297   5.007 -1.5897  3.3157  1.0563
   74MOL    H4423550   3.647   5.149   4.811  2.7387  0.1016  0.1123
   74MOL    H4523551   3.799   5.120   4.993  0.2382  0.5846  0.3602
   74MOL    H4623552   3.721   5.148   5.239  3.0630  1.2180 -1.5243
   74MOL    H4723553   3.493   5.228   5.279 -0.2598  4.2293 -1.0994
   74MOL    H4823554   3.351   5.488   5.094 -1.4266 -0.1647 -0.9526
   74MOL    H4923555   3.345   5.435   5.259  2.1540  1.1960 -0.8980
   74MOL    C5023556   3.149   5.496   5.180  0.2575  0.4856  0.0061
   74MOL    C5123557   3.075   5.480   5.050  0.1281  0.2643  1.1040
   74MOL    C5223558   2.952   5.415   5.033 -0.0803  0.2314  0.9694
   74MOL   Cl5323559   2.861   5.353   5.168 -0.3001  0.3510  0.1988
   74MOL    C5423560   2.892   5.409   4.901  0.3785  0.3593  0.4713
   74MOL    C5523561   2.958   5.456   4.790  0.0053  0.1274  0.0923
   74MOL    C5623562   3.077   5.520   4.804  0.5452 -0.7211 -0.0138
   74MOL    C5723563   3.131   5.527   4.933 -0.6482  0.3741 -0.1364
   74MOL    C5823564   3.172   5.649   5.221 -0.2377 -0.1237  0.0230
   74MOL    H5923565   3.094   5.446   5.259 -0.3008  0.4462 -0.4002
   74MOL    H6023566   2.793   5.369   4.885  0.7354  0.0268 -1.0845
   74MOL    H6123567   2.911   5.465   4.693  1.8356 -0.0568 -0.8439
   74MOL    H6223568   3.120   5.573   4.721 -0.6320 -0.2695 -0.3429
   74MOL    H6323569   3.212   5.598   4.939 -1.6191  1.3968  1.2524
   74MOL    H6423570   3.244   5.688   5.149  0.2225 -1.1962 -0.0963
   74MOL    H6523571   3.222   5.660   5.318  1.1456 -0.4720 -0.6393
   74MOL    C6623572   3.051   5.748   5.215 -0.2870  0.3778 -0.0124
   74MOL    C6723573   3.108   5.879   5.166  0.4169 -0.6390 -0.1315
   74MOL    C6823574   3.083   5.927   5.036  0.6930  0.3723  0.2532
   74MOL   Cl6923575   2.985   5.840   4.925 -0.0400  0.0299  0.2716
   74MOL    C7023576   3.137   6.051   4.994  0.1266 -0.3650 -0.1081
   74MOL    C7123577   3.214   6.132   5.085 -0.7441 -0.2816 -0.4049
   74MOL    C7223578   3.231   6.087   5.217  0.7086 -0.2713  0.2588
   74MOL    C7323579   3.173   5.963   5.258  0.3276 -0.4156  0.4744
   74MOL    C7423580   2.976   5.768   5.355 -0.6047  0.5317  0.0779
   74MOL    H7523581   2.980   5.708   5.143 -2.5733  2.4276  1.0271
   74MOL    H7623582   3.123   6.089   4.894  1.4376  0.2747 -0.0640
   74MOL    H7723583   3.261   6.226   5.060  1.1870 -0.3793  2.6187
   74MOL    H7823584   3.294   6.148   5.279 -1.0185  1.6445  0.1845
   74MOL    H7923585   3.187   5.925   5.359 -0.5860  3.0368  1.9498
   74MOL    H8023586   3.010   5.855   5.412 -2.7907 -0.1033  2.4165
   74MOL    H8123587   2.991   5.682   5.419 -0.2155  1.6162  1.4777
   74MOL    C8223588   2.819   5.792   5.339 -0.3328 -0.3452 -0.0948
   74MOL    C8323589   2.774   5.913   5.244 -0.3650  0.1016  0.4341
   74MOL    C8423590   2.665   5.896   5.147  0.3713 -0.0693 -0.7658
   74MOL   Cl8523591   2.593   5.742   5.103 -0.1441 -0.1781  0.0369
   74MOL    C8623592   2.618   6.012   5.074 -0.6911  0.1453  0.6712
   74MOL    C8723593   2.669   6.138   5.099  0.3037 -0.7720 -0.0415
   74MOL    C8823594   2.771   6.157   5.191  0.3375 -0.1183  0.4040
   74MOL    C8923595   2.825   6.044   5.262 -0.0264  0.9807 -0.3079
   74MOL    C9023596   2.748   5.803   5.475 -0.8406  0.4869 -0.1524
   74MOL    H9123597   2.776   5.704   5.290  0.7712  0.2292 -2.1679
   74MOL    H9223598   2.549   5.996   4.993  1.5245  2.2177 -1.7023
   74MOL    H9323599   2.640   6.215   5.028  0.1370 -0.9806 -0.2002
   74MOL    H9423600   2.817   6.254   5.206 -1.6334  0.9471 -0.3758
   74MOL    H9523601   2.900   6.058   5.339  1.5218 -1.5576 -1.3242
   74MOL    H9623602   2.647   5.843   5.470 -1.1981 -0.5088 -0.8469
   74MOL    H9723603   2.809   5.871   5.536  1.5273 -1.1657 -0.6255
   74MOL    C9823604   2.733   5.672   5.553 -0.3680  0.5358  1.2409
   74MOL    C9923605   2.652   5.563   5.481 -0.0397  0.2899  0.1443
   74MOL   C10023606   2.695   5.430   5.469  1.0320  0.7215 -0.0310
   74MOL  Cl10123607   2.859   5.391   5.504 -0.0774 -0.3465 -0.4454
   74MOL   C10223608   2.616   5.335   5.404  0.6028  0.5794 -0.0427
   74MOL   C10323609   2.490   5.369   5.356  0.1963  0.2809  0.2971
   74MOL   C10423610   2.447   5.501   5.363 -0.3873 -0.2161  0.1218
   74MOL   C10523611   2.529   5.599   5.420 -0.1907 -0.3947  0.2080
   74MOL   C10623612   2.669   5.700   5.687 -0.1465 -0.9780  0.4494
   74MOL   H10723613   2.837   5.641   5.565 -0.3528 -1.1637 -2.6100
   74MOL   H10823614   2.665   5.239   5.398  1.2447  0.7628  2.0068
   74MOL   H10923615   2.424   5.289   5.325 -0.7735  0.3817  2.0347
   74MOL   H11023616   2.351   5.530   5.322  0.9220  0.9380 -2.2332
   74MOL   H11123617   2.496   5.702   5.411  0.5728 -0.1729 -0.0982
   74MOL   H11223618   2.579   5.757   5.665  0.6643  0.8345  1.6779
   74MOL   H11323619   2.737   5.771   5.735  2.1811 -2.1690 -0.9862
   74MOL   C11423620   2.645   5.581   5.782  0.2803 -0.8506  0.6997
   74MOL   C11523621   2.521   5.625   5.866  0.0051 -0.5008  0.2019
   74MOL   C11623622   2.405   5.556   5.858  0.1284  0.8996 -0.2527
   74MOL  Cl11723623   2.385   5.424   5.743  0.2508  0.0836  0.2000
   74MOL   C11823624   2.290   5.588   5.936 -0.0653  0.3051 -0.1768
   74MOL   C11923625   2.304   5.693   6.027  0.3585 -0.3473  0.0044
   74MOL   C12023626   2.425   5.760   6.039  0.0163 -0.5352  0.5426
   74MOL   C12123627   2.534   5.727   5.960 -0.6142 -0.1829 -0.0113
   74MOL   C12223628   2.761   5.551   5.880  0.2109 -0.2260  0.5970
   74MOL   H12323629   2.631   5.489   5.726 -1.0063 -0.0384 -0.3416
   74MOL   H12423630   2.196   5.534   5.932  1.6717 -3.0885  1.8891
   74MOL   H12523631   2.226   5.724   6.094  0.7395  0.3241  0.1410
   74MOL   H12623632   2.424   5.834   6.117 -1.4868  1.0059 -0.8876
   74MOL   H12723633   2.634   5.767   5.971  0.3424 -2.5396  0.2957
   74MOL   H12823634   2.749   5.597   5.978 -0.1754 -0.9823  0.9097
   74MOL   H12923635   2.849   5.600   5.839  0.4278 -0.6070  0.6036
   74MOL   C13023636   2.790   5.400   5.889 -0.3871  1.0209 -0.2242
   74MOL   C13123637   2.673   5.312   5.944 -0.5621 -0.3168  0.3760
   74MOL   C13223638   2.637   5.194   5.877 -0.0454  0.4203 -0.3858
   74MOL  Cl13323639   2.709   5.121   5.730  0.3188  0.0442  0.2357
   74MOL   C13423640   2.542   5.110   5.944 -0.4641  0.4930  0.8949
   74MOL   C13523641   2.478   5.148   6.067  0.0824 -0.1646  0.8165
   74MOL   C13623642   2.521   5.267   6.127  0.1018  0.6613 -0.0011
   74MOL   C13723643   2.609   5.354   6.064  0.1427  0.0248  0.4322
   74MOL   C13823644   2.906   5.383   5.992  0.6397 -0.1546 -0.1405
   74MOL   H13923645   2.828   5.365   5.793 -1.9986 -1.0970 -0.1215
   74MOL   H14023646   2.496   5.028   5.890 -1.7531  1.1401  1.0060
   74MOL   H14123647   2.390   5.099   6.105 -0.6395  1.6936  1.5839
   74MOL   H14223648   2.484   5.304   6.222  1.7046  1.4410  0.3306
   74MOL   H14323649   2.641   5.442   6.119  0.7414 -0.0126  0.1463
   74MOL   H14423650   2.932   5.278   6.001  0.5661 -0.0902  0.9165
   74MOL   H14523651   2.877   5.411   6.093  2.1843 -2.5308  0.9848
   74MOL   C14623652   3.042   5.449   5.954  0.1431 -0.9961 -0.2120
   74MOL   C14723653   3.095   5.420   5.814 -0.3269  0.2885  0.8319
   74MOL   C14823654   3.121   5.517   5.718 -0.7384 -0.2162  0.3200
   74MOL  Cl14923655   3.114   5.685   5.758 -0.0954 -0.4340 -0.0929
   74MOL   C15023656   3.179   5.487   5.589  0.7709 -0.0903 -0.4134
   74MOL   C15123657   3.210   5.353   5.565  0.3810  0.3398  0.6634
   74MOL   C15223658   3.189   5.254   5.661 -0.0325 -0.3223  0.3747
   74MOL   C15323659   3.119   5.288   5.781 -0.0232  0.4610  0.1399
   74MOL   C15423660   3.156   5.413   6.052 -0.3550  0.0267  0.6694
   74MOL   H15523661   3.016   5.554   5.969 -1.4327 -1.0379 -2.3195
   74MOL   H15623662   3.208   5.566   5.522 -0.2070  0.2235 -0.4652
   74MOL   H15723663   3.251   5.333   5.468  0.2256 -2.3866  1.1131
   74MOL   H15823664   3.231   5.157   5.637  0.1976  0.2944 -1.8032
   74MOL   H15923665   3.099   5.209   5.852  0.6193 -1.7631 -2.0503
   74MOL   H16023666   3.251   5.434   6.004 -1.2450 -0.4519 -1.3486
   74MOL   H16123667   3.156   5.305   6.071  1.0409  0.2031  1.7554
   74MOL   C16223668   3.158   5.506   6.180 -0.4611 -0.5469  0.1786
   74MOL   C16323669   3.212   5.647   6.146  0.1562 -0.0475  0.2112
   74MOL   C16423670   3.128   5.761   6.138  0.0480 -0.1720 -0.3844
   74MOL  Cl16523671   2.955   5.749   6.156  0.2022  0.3125 -0.1427
   74MOL   C16623672   3.174   5.891   6.113 -0.3273  0.1903 -0.4212
   74MOL   C16723673   3.314   5.912   6.106  0.4491 -0.0341 -0.0248
   74MOL   C16823674   3.402   5.807   6.125  0.0199  0.0321 -0.2428
   74MOL   C16923675   3.350   5.677   6.134 -0.4163 -0.2157  0.3645
   74MOL   C17023676   3.236   5.448   6.302 -0.1785 -1.2015 -0.1044
   74MOL   H17123677   3.054   5.515   6.210 -0.8622  0.5473 -1.4354
   74MOL   H17223678   3.114   5.981   6.113 -0.5499  0.0408 -0.3465
   74MOL   H17323679   3.354   6.011   6.093  1.6600 -0.2984  1.6201
   74MOL   H17423680   3.508   5.821   6.115 -0.2064  2.6737  0.6709
   74MOL   H17523681   3.409   5.588   6.143  1.2299  0.7322 -0.6875
   74MOL   H17623682   3.221   5.534   6.367  1.6248 -0.6430 -0.4125
   74MOL   H17723683   3.344   5.444   6.294 -0.1174  0.1182  0.0289
   74MOL   C17823684   3.196   5.306   6.356  0.2011  0.5303 -0.1374
   74MOL   C17923685   3.044   5.293   6.391  0.3523  0.2745 -0.2609
   74MOL   C18023686   2.958   5.209   6.321  0.7059 -0.1961  0.6680
   74MOL  Cl18123687   3.014   5.094   6.202 -0.0099 -0.1968  0.0542
   74MOL   C18223688   2.818   5.207   6.346 -0.2133  0.4658 -0.1269
   74MOL   C18323689   2.774   5.289   6.453  0.9679  1.4476 -0.7652
   74MOL   C18423690   2.862   5.363   6.528  0.0525 -0.1985 -0.6987
   74MOL   C18523691   3.001   5.370   6.496  0.0591  0.7538 -0.3143
   74MOL   C18623692   3.293   5.296   6.483  0.3305  0.1959 -0.4723
   74MOL   H18723693   3.231   5.227   6.290 -1.8766 -1.6076  1.2318
   74MOL   H18823694   2.744   5.146   6.297 -0.0403  0.4468 -0.3619
   74MOL   H18923695   2.672   5.278   6.487  0.0959  1.6998 -3.1445
   74MOL   H19023696   2.819   5.417   6.611  1.8161  0.3992 -0.1351
   74MOL   H19123697   3.068   5.434   6.551 -0.3964  1.0320 -0.0804
   74MOL   H19223698   3.260   5.379   6.546  1.4508 -0.0198  0.4146
   74MOL   H19323699   3.398   5.304   6.457  0.4118  2.7201  0.5278
   74MOL   C19423700   3.294   5.163   6.566  0.1637 -0.4673  0.6319
   74MOL   C19523701   3.333   5.036   6.480 -0.2605  0.0878  0.8624
   74MOL   C19623702   3.467   4.995   6.466  0.4077  0.5435 -0.0276
   74MOL  Cl19723703   3.603   5.079   6.534 -0.0434 -0.4523 -0.1635
   74MOL   C19823704   3.494   4.879   6.385 -0.1938  0.3903 -0.8429
   74MOL   C19923705   3.386   4.809   6.326 -0.3012  0.1136  0.0638
   74MOL   C20023706   3.256   4.857   6.340 -0.5846  0.4015  0.6168
   74MOL   C20123707   3.228   4.966   6.419  0.0509  0.6074 -0.3926
   74MOL   C20223708   3.175   5.148   6.663  0.5896 -0.2447  0.8971
   74MOL   H20323709   3.385   5.188   6.621 -0.2269  0.3109  0.9218
   74MOL   H20423710   3.595   4.842   6.377 -0.5400 -0.7627 -0.0191
   74MOL   H20523711   3.412   4.722   6.267 -1.2626 -0.7541  0.8883
   74MOL   H20623712   3.181   4.807   6.281 -1.1910 -0.7639  2.3471
   74MOL   H20723713   3.125   5.000   6.419 -0.5625 -1.2411 -0.3014
   74MOL   H20823714   3.087   5.106   6.615  1.0837  1.0636 -1.1980
   74MOL   H20923715   3.143   5.246   6.697  2.0888  0.8698 -0.8606
   74MOL   C21023716   3.208   5.075   6.793  0.1695  0.1622  0.2821
   74MOL   C21123717   3.200   4.919   6.784  0.5349  0.1097  1.0981
   74MOL   C21223718   3.308   4.834   6.826  0.1480  0.0599  0.2537
   74MOL  Cl21323719   3.455   4.906   6.890  0.4629  0.1979  0.0078
   74MOL   C21423720   3.308   4.697   6.807  0.2431  0.5969  0.2638
   74MOL   C21523721   3.187   4.633   6.764 -0.2458  0.2365  0.5107
   74MOL   C21623722   3.075   4.710   6.734 -0.1387  0.1989  0.0044
   74MOL   C21723723   3.087   4.852   6.731  0.4297 -0.4934  0.5317
   74MOL   C21823724   3.128   5.127   6.924  0.4478 -0.3870 -0.1420
   74MOL   H21923725   3.314   5.094   6.808  0.3109 -1.0350  0.8654
   74MOL   H22023726   3.396   4.640   6.828  0.9213  1.2817 -0.6436
   74MOL   H22123727   3.173   4.527   6.746 -1.0595  0.1473  1.6306
   74MOL   H22223728   2.983   4.661   6.707  1.2332 -2.2277 -0.5433
   74MOL   H22323729   3.001   4.910   6.703 -0.0318  1.3400  5.3010
   74MOL   H22423730   3.137   5.052   7.002  1.3621  0.4192  0.5466
   74MOL   H22523731   3.022   5.126   6.899  0.7570 -1.4669 -1.4608
   74MOL   C22623732   3.181   5.256   7.003 -0.1696 -0.7604  0.5616
   74MOL   C22723733   3.320   5.232   7.074  0.1187  0.2355  0.0839
   74MOL   C22823734   3.442   5.264   7.008 -0.0170 -0.6385 -0.3343
   74MOL  Cl22923735   3.455   5.297   6.843  0.1389 -0.2282 -0.0163
   74MOL   C23023736   3.565   5.256   7.073 -0.4241  0.0162 -0.3913
   74MOL   C23123737   3.572   5.213   7.204 -0.1667  1.1425 -0.5841
   74MOL   C23223738   3.452   5.174   7.269 -0.3986 -0.8168  0.2445
   74MOL   C23323739   3.325   5.179   7.204  0.1149  0.2332  0.1870
   74MOL   C23423740   3.070   5.295   7.102  0.3750 -0.1519 -0.2144
   74MOL   H23523741   3.193   5.334   6.928  1.4049 -0.0441  1.5278
   74MOL   H23623742   3.663   5.250   7.029  0.0748 -0.9040  0.8002
   74MOL   H23723743   3.667   5.204   7.254 -1.0503  1.2661  1.1565
   74MOL   H23823744   3.451   5.131   7.368 -0.9756 -0.2789  0.4765
   74MOL   H23923745   3.239   5.158   7.265 -0.1523 -0.3697 -0.3953
   74MOL   H24023746   3.098   5.349   7.193 -0.3219 -1.6061  0.8684
   74MOL   H24123747   3.027   5.209   7.152 -2.8065  1.2461 -0.3952
   74MOL   C24223748   2.950   5.385   7.052  0.3057 -0.4888  0.1959
   74MOL   C24323749   2.991   5.533   7.064 -0.3286  0.3347 -0.1788
   74MOL   C24423750   3.032   5.601   6.949 -0.6104 -0.0154 -0.1497
   74MOL  Cl24523751   3.050   5.528   6.795  0.0223  0.2409 -0.3131
   74MOL   C24623752   3.075   5.734   6.954  0.6688 -0.2673 -0.5181
   74MOL   C24723753   3.069   5.800   7.075  0.5542 -0.3745  0.5710
   74MOL   C24823754   3.025   5.738   7.193 -0.2975 -0.9002 -0.4967
   74MOL   C24923755   2.988   5.604   7.182  0.1559  0.3281 -0.3388
   74MOL   C25023756   2.815   5.364   7.120  0.5283  0.3485 -0.0872
   74MOL   H25123757   2.926   5.372   6.946 -0.0644 -1.5584  0.4153
   74MOL   H25223758   3.105   5.786   6.864 -0.3414  0.8049 -0.2402
   74MOL   H25323759   3.106   5.901   7.077  3.1602 -1.2922  1.9322
   74MOL   H25423760   3.019   5.784   7.291 -0.0832 -0.9115 -0.4776
   74MOL   H25523761   2.942   5.556   7.268  0.4615 -0.1775 -0.4552
   74MOL   H25623762   2.759   5.452   7.090  0.5468  0.3910  0.0043
   74MOL   H25723763   2.814   5.377   7.228  0.3555 -0.0069 -0.0432
   74MOL   C25823764   2.739   5.228   7.088 -0.4683  0.7842 -0.2459
   74MOL   C25923765   2.648   5.247   6.971  0.3402 -0.1926 -0.4693
   74MOL   C26023766   2.666   5.172   6.852 -0.2505  0.4649 -0.3411
   74MOL  Cl26123767   2.788   5.060   6.826 -0.0399 -0.2433  0.2304
   74MOL   C26223768   2.576   5.192   6.742 -1.0303 -0.8558 -0.8019
   74MOL   C26323769   2.466   5.281   6.756 -0.2480  0.1669  0.7365
   74MOL   C26423770   2.450   5.352   6.877  0.4898 -0.0186  0.1412
   74MOL   C26523771   2.541   5.338   6.987 -0.4117 -0.2487  0.5319
   74MOL   C26623772   2.660   5.157   7.198 -0.1176  0.1688  0.1893
   74MOL   H26723773   2.811   5.152   7.056  0.1617  1.1526  0.2900
   74MOL   H26823774   2.602   5.146   6.648  0.6678 -0.7460 -0.3993
   74MOL   H26923775   2.404   5.308   6.671  1.7222 -0.1214 -0.8431
   74MOL   H27023776   2.365   5.416   6.894  0.1312 -0.8484  1.5186
   74MOL   H27123777   2.526   5.385   7.082 -0.2167 -0.9750  0.9271
   74MOL   H27223778   2.620   5.064   7.160  1.2915 -0.5600  0.4625
   74MOL   H27323779   2.577   5.224   7.220  0.4123  1.3168 -1.2539
   74MOL   C27423780   2.724   5.118   7.326  0.2344 -0.3183 -0.1875
   74MOL   C27523781   2.844   5.021   7.302  0.2482 -0.4875 -0.5315
   74MOL   C27623782   2.967   5.034   7.363 -0.1868 -0.3960 -0.6325
   74MOL  Cl27723783   3.008   5.157   7.481  0.0090 -0.2784  0.1488
   74MOL   C27823784   3.074   4.944   7.322 -0.1043 -0.6192 -0.5830
   74MOL   C27923785   3.054   4.842   7.227 -0.7654  0.2155  0.1701
   74MOL   C28023786   2.923   4.820   7.178  0.2776 -0.8361  0.1689
   74MOL   C28123787   2.825   4.908   7.216  0.2098  0.1519  0.2089
   74MOL   C28223788   2.614   5.044   7.412 -0.8621  1.3152 -0.0733
   74MOL   H28323789   2.754   5.208   7.379 -0.8249  1.5126 -2.6324
   74MOL   H28423790   3.168   4.962   7.372  0.8307 -0.8317 -2.2318
   74MOL   H28523791   3.134   4.776   7.195 -0.5675  1.2353 -1.5251
   74MOL   H28623792   2.884   4.736   7.122 -1.5545  1.7711 -2.6291
   74MOL   H28723793   2.725   4.889   7.182  1.0139 -3.0445 -0.6123
   74MOL   H28823794   2.583   4.956   7.356  2.5243 -1.3033  1.8944
   74MOL   H28923795   2.534   5.116   7.423 -1.3718  0.7544 -0.0814
   74MOL   C29023796   2.661   5.003   7.548  0.3065 -0.1076 -0.4500
   74MOL   C29123797   2.589   4.876   7.588  0.1876 -0.2736 -0.2869
   74MOL   C29223798   2.449   4.868   7.599 -0.2246 -0.2279 -0.4035
   74MOL  Cl29323799   2.332   4.990   7.557 -0.1360 -0.1123 -0.2370
   74MOL   C29423800   2.389   4.756   7.667 -0.4795 -0.0778  0.2779
   74MOL   C29523801   2.471   4.646   7.710 -0.1019  0.1344  0.2139
   74MOL   C29623802   2.608   4.648   7.693 -0.3341  0.5216  0.0518
   74MOL   C29723803   2.670   4.767   7.637  0.3336  0.6196 -0.8391
   74MOL   C29823804   2.642   5.115   7.648 -0.3948  0.0430 -0.3924
   74MOL   H29923805   2.766   4.976   7.541  0.4241  0.5403 -1.1835
   74MOL   H30023806   2.284   4.762   7.691 -0.8997 -1.2587 -1.1798
   74MOL   H30123807   2.427   4.569   7.771  0.8933  0.5378  1.4471
   74MOL   H30223808   2.670   4.575   7.743 -0.5669  1.0941  1.1812
   74MOL   H30323809   2.778   4.774   7.631  0.6265 -1.8319  0.4815
   74MOL   H30423810   2.535   5.134   7.643 -0.9797 -3.1281 -0.9554
   74MOL   H30523811   2.699   5.200   7.612 -2.9666  1.6109 -0.9136
   74MOL   C30623812   2.679   5.083   7.796  0.1338 -0.2495 -0.6592
   74MOL   C30723813   2.605   5.169   7.901  1.1046  0.0296  0.2577
   74MOL   C30823814   2.585   5.112   8.032  0.1943 -0.8428 -0.7368
   74MOL  Cl30923815   2.617   4.951   8.070 -0.0682  0.5685  0.0014
   74MOL   C31023816   2.538   5.197   8.138 -0.3367  0.2060  0.2851
   74MOL   C31123817   2.498   5.328   8.115 -0.1269  0.5338  0.0039
   74MOL   C31223818   2.525   5.383   7.989  0.0382 -0.3772  0.5006
   74MOL   C31323819   2.568   5.299   7.881  0.1950 -0.2691 -0.3413
   74MOL   C31423820   2.831   5.075   7.814  0.1676 -0.1987 -0.7859
   74MOL   H31523821   2.632   4.987   7.819 -1.1223  0.1638 -1.4143
   74MOL   H31623822   2.535   5.153   8.236 -1.0887 -0.0258  0.1581
   74MOL   H31723823   2.463   5.390   8.196 -0.4413 -0.7995  0.9081
   74MOL   H31823824   2.513   5.486   7.959 -2.3685 -1.0415 -0.8735
   74MOL   H31923825   2.594   5.353   7.791  0.2558  0.7586  0.2879
   74MOL   H32023826   2.862   5.003   7.738 -0.9251 -1.9792  0.4128
   74MOL   H32123827   2.873   5.031   7.904 -3.2749  1.7672  1.8823
   74MOL   H32223828   2.880   5.169   7.786  0.0740  0.2526  0.5606
   75MOL     C123829   0.598   1.236   3.872  0.0830 -0.3334 -0.4556
   75MOL     C223830   0.635   1.288   4.011 -0.0058 -0.2442 -0.9060
   75MOL     C323831   0.545   1.314   4.114  0.8703  0.0564  0.2720
   75MOL    Cl423832   0.374   1.277   4.096  0.1240 -0.1628  0.1405
   75MOL     C523833   0.599   1.378   4.229  0.3173 -0.3549  0.6931
   75MOL     C623834   0.735   1.405   4.253  0.0093 -0.2169  0.0069
   75MOL     C723835   0.821   1.380   4.150  0.4015  0.1190 -0.0607
   75MOL     C823836   0.773   1.320   4.031 -0.2922 -0.6526 -0.2223
   75MOL     C923837   0.599   1.074   3.874  0.6526  0.4827  0.2229
   75MOL    H1023838   0.496   1.269   3.854 -0.9619 -3.8771 -1.4971
   75MOL    H1123839   0.525   1.398   4.305 -1.5105 -1.1266 -0.8039
   75MOL    H1223840   0.753   1.452   4.349 -0.4422 -1.0434  0.4957
   75MOL    H1323841   0.926   1.404   4.160  1.2302 -3.2504 -0.0305
   75MOL    H1423842   0.850   1.300   3.958 -0.1837  0.2789 -0.3671
   75MOL    H1523843   0.522   1.046   3.946  0.2676 -0.0306 -0.3775
   75MOL    H1623844   0.692   1.032   3.914  1.3627  0.1978 -1.6812
   75MOL    H1723845   0.672   1.272   3.800 -1.1876 -1.1348 -2.1942
   75MOL    C1823846   0.555   1.010   3.742  0.0067 -0.1547 -0.0222
   75MOL    C1923847   0.476   0.878   3.753  0.3415 -0.0271 -1.0031
   75MOL    C2023848   0.344   0.865   3.699  0.1483  0.4315 -0.5565
   75MOL   Cl2123849   0.266   0.982   3.611  0.0862 -0.2490 -0.0416
   75MOL    C2223850   0.275   0.742   3.711  0.4713 -0.1930  0.0691
   75MOL    C2323851   0.332   0.633   3.777 -0.8307  0.0574  0.4050
   75MOL    C2423852   0.464   0.648   3.832  0.5408  0.0555  0.1153
   75MOL    C2523853   0.535   0.769   3.831 -0.3150 -0.4452  1.1576
   75MOL    C2623854   0.666   0.987   3.645  0.6758 -0.4316 -0.2223
   75MOL    H2723855   0.493   1.091   3.703  1.7507  0.2876 -1.9689
   75MOL    H2823856   0.176   0.733   3.669  0.6580  1.9358 -0.9032
   75MOL    H2923857   0.287   0.535   3.774 -1.7736  0.4510  1.3050
   75MOL    H3023858   0.517   0.564   3.875 -1.0412 -0.9889  0.0659
   75MOL    H3123859   0.631   0.785   3.878 -0.0696 -2.5046  1.4217
   75MOL    H3223860   0.623   0.918   3.572 -0.5865  1.1633 -1.0356
   75MOL    H3323861   0.749   0.936   3.695  1.1889  0.1301 -0.4861
   75MOL    C3423862   0.730   1.105   3.564 -0.8194  0.1595  0.5626
   75MOL    C3523863   0.623   1.199   3.504  0.4040 -0.9806 -0.2662
   75MOL    C3623864   0.625   1.339   3.510  0.4007 -0.4055 -0.7954
   75MOL   Cl3723865   0.745   1.428   3.597 -0.0541  0.3595  0.5024
   75MOL    C3823866   0.529   1.425   3.448 -0.1521  1.2270 -0.6388
   75MOL    C3923867   0.423   1.361   3.387 -0.1647  0.3862 -0.3205
   75MOL    C4023868   0.410   1.223   3.372  0.1960  0.3258 -0.4794
   75MOL    C4123869   0.511   1.144   3.428 -0.0379  0.1792  0.8560
   75MOL    C4223870   0.819   1.051   3.448  0.1387 -0.5725 -0.3195
   75MOL    H4323871   0.787   1.164   3.634 -0.0059 -1.0513  0.9320
   75MOL    H4423872   0.533   1.533   3.447  3.1665  1.1541 -0.5330
   75MOL    H4523873   0.345   1.422   3.344  1.7517  1.1007 -2.9227
   75MOL    H4623874   0.327   1.180   3.319  0.0797  1.4972 -1.2793
   75MOL    H4723875   0.495   1.037   3.425  0.8527  0.0852 -0.9093
   75MOL    H4823876   0.835   1.117   3.364 -0.3615 -2.5085 -1.9752
   75MOL    H4923877   0.762   0.973   3.397 -1.1994  1.9289 -2.7769
   75MOL    C5023878   0.954   0.994   3.497 -0.1094  0.2714  0.6811
   75MOL    C5123879   1.057   1.112   3.507  0.6832 -0.2668 -0.2553
   75MOL    C5223880   1.081   1.178   3.627 -0.2708  0.0846 -0.9357
   75MOL   Cl5323881   1.031   1.113   3.780  0.2874 -0.4272  0.1965
   75MOL    C5423882   1.151   1.305   3.634 -0.0390  0.3456  0.2555
   75MOL    C5523883   1.174   1.364   3.509  0.0641  0.6493  0.3654
   75MOL    C5623884   1.145   1.295   3.386  0.1610 -0.2768  0.6562
   75MOL    C5723885   1.083   1.174   3.381 -0.2337  0.2881  0.7245
   75MOL    C5823886   1.017   0.883   3.415  0.2154  0.3359  0.4118
   75MOL    H5923887   0.941   0.949   3.595 -0.3007  0.0359  0.5470
   75MOL    H6023888   1.173   1.353   3.728 -0.5461  0.0083  0.5478
   75MOL    H6123889   1.224   1.460   3.515  0.2926  0.4649  1.3553
   75MOL    H6223890   1.169   1.333   3.287  0.6835 -1.9890  0.1189
   75MOL    H6323891   1.060   1.138   3.283 -0.4940 -1.7652  1.5139
   75MOL    H6423892   1.121   0.867   3.442  0.4177 -1.1128 -1.1832
   75MOL    H6523893   1.009   0.901   3.308 -1.8292  0.3231  0.5291
   75MOL    C6623894   0.942   0.744   3.441 -0.3330  0.2258 -0.4497
   75MOL    C6723895   0.968   0.695   3.587  0.4688  0.2589  0.4519
   75MOL    C6823896   0.869   0.619   3.657 -0.1981 -0.2078 -0.5422
   75MOL   Cl6923897   0.714   0.589   3.588  0.0883 -0.1414 -0.5664
   75MOL    C7023898   0.889   0.576   3.787  0.3330  0.0861  0.2064
   75MOL    C7123899   1.006   0.608   3.855  0.6160  0.0236 -0.4674
   75MOL    C7223900   1.112   0.661   3.783  0.4137  0.1753 -0.6468
   75MOL    C7323901   1.092   0.705   3.651  0.6616  0.8323  0.3660
   75MOL    C7423902   0.981   0.631   3.341 -0.4691 -0.8463  0.1033
   75MOL    H7523903   0.835   0.759   3.429 -0.5539 -1.2906 -0.5203
   75MOL    H7623904   0.807   0.520   3.830  0.7735 -1.2002 -0.5939
   75MOL    H7723905   1.013   0.575   3.957  0.7294  1.7012  0.0793
   75MOL    H7823906   1.205   0.685   3.832  0.2670  0.8581 -0.7040
   75MOL    H7923907   1.179   0.746   3.600 -0.0062 -0.3629 -1.7713
   75MOL    H8023908   0.929   0.542   3.375  0.9983 -2.2783 -1.3198
   75MOL    H8123909   1.089   0.613   3.339 -0.2590  0.3255 -3.9141
   75MOL    C8223910   0.921   0.659   3.201  0.2124  0.0810  0.3218
   75MOL    C8323911   0.763   0.675   3.197 -0.1371 -0.5552 -0.3786
   75MOL    C8423912   0.694   0.790   3.161 -0.2648 -0.0315  0.3740
   75MOL   Cl8523913   0.777   0.927   3.102  0.0946 -0.0585 -0.1207
   75MOL    C8623914   0.554   0.805   3.185  0.5692 -0.0004  0.5455
   75MOL    C8723915   0.483   0.695   3.243 -0.0611 -0.8517 -0.7342
   75MOL    C8823916   0.551   0.576   3.260  0.1944 -0.4524  0.4610
   75MOL    C8923917   0.689   0.562   3.232 -0.3396 -0.3897 -0.0947
   75MOL    C9023918   0.961   0.556   3.096  0.5156  0.1146  0.1948
   75MOL    H9123919   0.953   0.753   3.157 -0.0831 -1.1133 -2.5766
   75MOL    H9223920   0.508   0.903   3.180 -1.6182 -0.9628  1.0218
   75MOL    H9323921   0.377   0.702   3.263 -0.0234  0.1541 -0.8800
   75MOL    H9423922   0.505   0.483   3.288  1.7195 -1.4427 -0.2369
   75MOL    H9523923   0.731   0.465   3.250 -1.1961 -0.5759  0.9284
   75MOL    H9623924   0.925   0.585   2.997  1.1618 -1.6201 -0.5671
   75MOL    H9723925   0.899   0.470   3.121  2.6974 -1.9248 -1.1467
   75MOL    C9823926   1.111   0.510   3.075 -0.0570 -0.3497 -0.5498
   75MOL    C9923927   1.204   0.625   3.073 -0.2258 -0.7268 -0.2251
   75MOL   C10023928   1.313   0.634   3.164  0.2332 -0.1079  0.5582
   75MOL  Cl10123929   1.345   0.530   3.290  0.0395 -0.0114 -0.4692
   75MOL   C10223930   1.406   0.740   3.145  0.9373 -0.7110 -0.0534
   75MOL   C10323931   1.383   0.840   3.044  0.5486 -0.9822  0.6458
   75MOL   C10423932   1.277   0.829   2.952  0.1624 -0.5957 -0.4232
   75MOL   C10523933   1.189   0.717   2.971 -0.1578 -0.0530  0.0489
   75MOL   C10623934   1.134   0.430   2.942 -0.7615 -0.0086  0.4138
   75MOL   H10723935   1.133   0.443   3.158  2.0400 -0.2665 -1.0044
   75MOL   H10823936   1.484   0.747   3.219  1.1327 -1.8135 -0.1484
   75MOL   H10923937   1.449   0.925   3.045 -1.6035  0.7404 -0.3233
   75MOL   H11023938   1.259   0.909   2.881  0.4620  0.6900  0.9341
   75MOL   H11123939   1.122   0.711   2.887 -0.2092 -1.9539  0.2156
   75MOL   H11223940   1.239   0.413   2.916 -0.9388  0.4064 -0.5776
   75MOL   H11323941   1.107   0.493   2.858  0.4443  0.0526  0.0516
   75MOL   C11423942   1.040   0.301   2.940  0.1189 -0.4401 -0.5169
   75MOL   C11523943   1.094   0.193   3.037 -0.0058  0.3925 -0.1282
   75MOL   C11623944   1.028   0.151   3.154 -0.5174  0.3720 -1.1303
   75MOL  Cl11723945   0.868   0.213   3.205 -0.1451 -0.0301 -0.1590
   75MOL   C11823946   1.085   0.061   3.244  0.5071 -0.7330 -0.0054
   75MOL   C11923947   1.192   8.401   3.207  0.7868  0.3050  0.0976
   75MOL   C12023948   1.254   0.011   3.081  0.6091  0.2696 -0.4584
   75MOL   C12123949   1.208   0.119   3.004  0.3548  0.1930  0.4808
   75MOL   C12223950   1.022   0.242   2.802 -0.4925  0.2099  0.3305
   75MOL   H12323951   0.943   0.318   2.986  0.8602 -2.9363  2.1150
   75MOL   H12423952   1.044   0.049   3.343 -0.9123  0.1313 -0.4773
   75MOL   H12523953   1.242   8.325   3.266 -1.0050 -3.2041 -2.7208
   75MOL   H12623954   1.346   8.384   3.048  0.4582  0.2086 -0.7924
   75MOL   H12723955   1.262   0.130   2.911  0.6263  0.6741  0.6896
   75MOL   H12823956   0.992   0.137   2.797 -1.6212  0.4977  0.7082
   75MOL   H12923957   1.124   0.230   2.766 -0.3784  0.3257  0.6168
   75MOL   C13023958   0.936   0.332   2.716  0.0152  0.4077 -0.2384
   75MOL   C13123959   0.793   0.359   2.783 -0.2947 -0.1070 -0.2185
   75MOL   C13223960   0.737   0.487   2.781  0.5835  0.9855 -0.1045
   75MOL  Cl13323961   0.815   0.620   2.706 -0.4519  0.0729  0.3087
   75MOL   C13423962   0.616   0.512   2.855  0.2597 -0.6129  0.2274
   75MOL   C13523963   0.552   0.409   2.927  0.7641  0.4325  0.1745
   75MOL   C13623964   0.601   0.282   2.919 -0.5321  0.4180  0.1261
   75MOL   C13723965   0.722   0.251   2.847  0.3123 -0.2562 -0.3947
   75MOL   C13823966   0.922   0.290   2.566 -0.0461 -0.5391 -0.1234
   75MOL   H13923967   0.980   0.432   2.719  0.4216  0.1961  0.9685
   75MOL   H14023968   0.577   0.612   2.853  1.8992  0.0513  0.5265
   75MOL   H14123969   0.468   0.433   2.990  0.4533 -0.8304  0.2400
   75MOL   H14223970   0.553   0.209   2.982 -2.2695  1.1011 -0.3908
   75MOL   H14323971   0.753   0.148   2.844 -1.6622 -0.9177  0.7639
   75MOL   H14423972   0.840   0.352   2.530 -0.0011 -1.8316 -2.5329
   75MOL   H14523973   0.879   0.190   2.564  0.9065 -0.9920  1.2628
   75MOL   C14623974   1.051   0.301   2.476 -0.4884  0.3449 -0.4104
   75MOL   C14723975   1.108   0.446   2.470  0.0203  0.7947 -0.2982
   75MOL   C14823976   1.223   0.484   2.540  0.6333 -0.1194  0.4988
   75MOL  Cl14923977   1.324   0.369   2.620 -0.3718  0.0654  0.0373
   75MOL   C15023978   1.262   0.622   2.531 -0.5442  0.6261  0.5172
   75MOL   C15123979   1.196   0.721   2.457  0.5702  0.0785 -0.4961
   75MOL   C15223980   1.080   0.683   2.395  0.2192 -0.0936 -0.5824
   75MOL   C15323981   1.033   0.548   2.404 -0.8713  0.1220 -0.2208
   75MOL   C15423982   1.026   0.245   2.331  0.2655  0.0523  0.7534
   75MOL   H15523983   1.124   0.230   2.515 -1.0653 -0.2062 -0.3380
   75MOL   H15623984   1.348   0.659   2.585 -0.0415 -0.2959  0.3618
   75MOL   H15723985   1.219   0.827   2.464  1.5894 -0.0688 -1.4103
   75MOL   H15823986   1.023   0.762   2.348 -0.3317  0.0947  0.3953
   75MOL   H15923987   0.937   0.527   2.360 -0.4025  0.6774 -1.5418
   75MOL   H16023988   1.093   0.297   2.262  0.8263  1.2167  2.1591
   75MOL   H16123989   0.924   0.278   2.314  0.4621  0.6773  0.7677
   75MOL   C16223990   1.037   0.091   2.324  0.4931  0.4426  0.4267
   75MOL   C16323991   1.189   0.048   2.324  0.4587  0.4308 -0.0168
   75MOL   C16423992   1.256   0.007   2.447  0.2899  0.2844  0.0695
   75MOL  Cl16523993   1.167   8.400   2.595 -0.1535 -0.0156 -0.0267
   75MOL   C16623994   1.395   8.404   2.444  0.0383 -0.1676 -0.9983
   75MOL   C16723995   1.467   0.003   2.321 -0.1785 -0.0904 -0.3878
   75MOL   C16823996   1.397   0.056   2.209  0.5180  0.0148 -0.4609
   75MOL   C16923997   1.261   0.073   2.210  0.2751 -0.0951 -0.0056
   75MOL   C17023998   0.950   0.039   2.206 -0.0404  0.0567 -0.0314
   75MOL   H17123999   0.995   0.047   2.415  3.0897  0.0144  1.4797
   75MOL   H17224000   1.444   8.375   2.535 -3.0279  1.9148  1.4165
   75MOL   H17324001   1.574   8.408   2.312  0.4939  2.1602  2.8080
   75MOL   H17424002   1.459   0.078   2.124 -0.7930  0.7547 -1.2387
   75MOL   H17524003   1.209   0.108   2.121  2.0743  2.3766 -0.1424
   75MOL   H17624004   0.965   8.352   2.211  1.2539  0.1890 -0.8766
   75MOL   H17724005   0.987   0.084   2.114 -1.3381  0.8404 -0.1879
   75MOL   C17824006   0.802   0.072   2.200 -0.5916 -0.4382 -1.0849
   75MOL   C17924007   0.731   0.059   2.339  0.3301  0.1160  0.3063
   75MOL   C18024008   0.653   0.163   2.389  0.6706  0.3136  0.1654
   75MOL  Cl18124009   0.641   0.317   2.308  0.1994 -0.0168 -0.0683
   75MOL   C18224010   0.575   0.145   2.505  0.0134  0.5539  0.2999
   75MOL   C18324011   0.571   0.022   2.568  0.2338 -0.4503  0.0787
   75MOL   C18424012   0.643   8.338   2.510  0.5735 -0.9131  0.2659
   75MOL   C18524013   0.720   8.352   2.396  0.6936  0.3773  0.3340
   75MOL   C18624014   0.736   8.404   2.086  0.8013 -0.3983  1.4671
   75MOL   H18724015   0.797   0.174   2.162  0.1104 -0.2149 -0.5934
   75MOL   H18824016   0.525   0.231   2.546 -0.8324  0.0746  0.2821
   75MOL   H18924017   0.526   0.009   2.665  0.0515 -0.0527  0.0466
   75MOL   H19024018   0.648   8.243   2.561  0.4105 -1.1637 -0.1750
   75MOL   H19124019   0.783   8.268   2.375  0.8281  0.5294  0.1283
   75MOL   H19224020   0.629   8.399   2.103  0.0201 -1.7954 -3.2352
   75MOL   H19324021   0.778   8.304   2.077  0.4906 -0.3865 -0.2030
   75MOL   C19424022   0.752   0.031   1.939  0.4190 -0.0393  0.5102
   75MOL   C19524023   0.717   0.178   1.929 -0.5197 -0.3526  0.8490
   75MOL   C19624024   0.817   0.275   1.893  0.4502 -0.1493  0.1051
   75MOL  Cl19724025   0.989   0.229   1.889  0.1706  0.4318 -0.3207
   75MOL   C19824026   0.785   0.407   1.887 -0.1371 -0.1241 -0.0707
   75MOL   C19924027   0.648   0.447   1.906  0.2787 -0.0061 -0.0680
   75MOL   C20024028   0.547   0.359   1.933  0.5531 -0.2594  0.5554
   75MOL   C20124029   0.581   0.219   1.947  0.2201  0.6508  0.4374
   75MOL   C20224030   0.661   8.359   1.846 -0.4324  0.0580  0.8921
   75MOL   H20324031   0.855   0.010   1.909  0.4540  2.6957 -1.4882
   75MOL   H20424032   0.864   0.480   1.874  0.1331 -0.6488 -1.4377
   75MOL   H20524033   0.620   0.552   1.902  1.8062  0.3801 -0.8359
   75MOL   H20624034   0.446   0.391   1.954  1.4144  0.5905  3.5141
   75MOL   H20724035   0.510   0.140   1.968  1.3578 -0.5529 -0.1722
   75MOL   H20824036   0.563   8.348   1.892 -0.0573  0.7044  1.8656
   75MOL   H20924037   0.707   8.260   1.845  1.8511  1.0649 -1.5955
   75MOL   C21024038   0.626   8.406   1.701 -0.2090 -0.1234  0.1967
   75MOL   C21124039   0.510   8.319   1.662 -0.2120  0.1630  0.2822
   75MOL   C21224040   0.382   8.372   1.657 -0.6774 -0.6377 -0.3249
   75MOL  Cl21324041   0.358   0.121   1.686 -0.0195 -0.2923  0.0948
   75MOL   C21424042   0.264   8.289   1.629 -0.2529  0.5476 -0.3074
   75MOL   C21524043   0.284   8.148   1.615  0.2201 -0.4964 -0.3129
   75MOL   C21624044   0.410   8.092   1.629  0.7289 -0.3282 -0.1705
   75MOL   C21724045   0.523   8.178   1.645 -0.6465  0.1787  0.6867
   75MOL   C21824046   0.751   8.382   1.610  0.0143 -0.3718 -0.5302
   75MOL   H21924047   0.602   0.091   1.711 -2.0719 -0.4492 -0.6758
   75MOL   H22024048   0.165   8.328   1.647 -0.5228 -1.4806  3.1436
   75MOL   H22124049   0.194   8.088   1.614 -0.4018  0.4336 -0.9021
   75MOL   H22224050   0.417   7.984   1.631  0.1481 -0.3492  1.5020
   75MOL   H22324051   0.622   8.137   1.656 -0.2301  1.1231  0.5808
   75MOL   H22424052   0.784   8.278   1.611  2.1095  0.2349  1.7069
   75MOL   H22524053   0.826   0.023   1.661 -1.3998  0.5413  0.5116
   75MOL   C22624054   0.758   0.020   1.462  0.0691  0.1320  0.4944
   75MOL   C22724055   0.724   0.172   1.463 -0.3100  0.6707  0.5830
   75MOL   C22824056   0.824   0.267   1.491  0.1951 -0.6071  0.0170
   75MOL  Cl22924057   0.983   0.218   1.512 -0.0822 -0.3066 -0.0414
   75MOL   C23024058   0.789   0.402   1.491 -0.0420  0.1001 -0.0609
   75MOL   C23124059   0.657   0.444   1.466  0.3540 -0.3644  0.1274
   75MOL   C23224060   0.559   0.346   1.452  0.0848 -0.7180 -0.0696
   75MOL   C23324061   0.590   0.211   1.457 -0.0687  0.3742  0.0989
   75MOL   C23424062   0.679   8.348   1.366  0.3152 -0.3528 -0.1103
   75MOL   H23524063   0.864   0.019   1.438  0.3703 -0.0929  1.7676
   75MOL   H23624064   0.862   0.480   1.506 -2.1320  1.9500  0.6779
   75MOL   H23724065   0.626   0.548   1.473  1.6240 -0.1123  2.3030
   75MOL   H23824066   0.456   0.378   1.443 -0.1827 -1.1676  1.3255
   75MOL   H23924067   0.507   0.146   1.433  0.2205  0.2552 -0.5850
   75MOL   H24024068   0.573   8.352   1.393  0.3575 -2.6559  0.5141
   75MOL   H24124069   0.722   8.248   1.370  1.4917  0.1575  0.1412
   75MOL   C24224070   0.687   8.395   1.223 -0.6319  0.1022  0.5144
   75MOL   C24324071   0.583   8.325   1.136 -0.2364 -0.1314 -0.3411
   75MOL   C24424072   0.469   8.393   1.096 -0.5095  0.1218  0.1743
   75MOL  Cl24524073   0.436   0.144   1.119  0.1431  0.2592  0.1683
   75MOL   C24624074   0.362   8.330   1.033  0.2264 -0.0611 -0.0383
   75MOL   C24724075   0.378   8.192   1.002 -0.2170  0.6992  0.4068
   75MOL   C24824076   0.489   8.116   1.038 -0.4027  0.7666 -0.5778
   75MOL   C24924077   0.592   8.184   1.114  0.7764  0.1213 -0.5296
   75MOL   C25024078   0.833   8.397   1.158  0.1647 -0.5073  0.2549
   75MOL   H25124079   0.648   0.076   1.232  0.0361  0.3259  0.8731
   75MOL   H25224080   0.273   8.379   0.996 -0.1176 -1.1778 -0.6865
   75MOL   H25324081   0.291   8.137   0.968  1.5756 -0.5361 -2.3773
   75MOL   H25424082   0.500   8.009   1.036  1.8628  0.9825 -0.7762
   75MOL   H25524083   0.672   8.125   1.156  1.2591  0.2320 -1.2725
   75MOL   H25624084   0.852   8.301   1.111 -0.4903 -0.0415 -0.9830
   75MOL   H25724085   0.897   8.409   1.245 -0.2675  2.6138  0.2184
   75MOL   C25824086   0.876   0.102   1.076 -0.7192  0.0401 -0.2191
   75MOL   C25924087   0.792   0.118   0.945  0.1651  0.5646 -0.0621
   75MOL   C26024088   0.708   0.230   0.926  0.1797 -0.5058  0.0801
   75MOL  Cl26124089   0.686   0.357   1.038  0.0605 -0.0630  0.3939
   75MOL   C26224090   0.641   0.246   0.806  0.1678  0.7225 -0.2218
   75MOL   C26324091   0.639   0.143   0.709 -0.0938 -0.1857 -0.2193
   75MOL   C26424092   0.718   0.025   0.725  0.7965  0.1005  0.0554
   75MOL   C26524093   0.791   0.017   0.844 -0.1299  0.0337 -0.5251
   75MOL   C26624094   1.032   0.085   1.047 -0.4601 -0.2314 -0.6778
   75MOL   H26724095   0.860   0.181   1.149  0.2184  0.4072 -0.4034
   75MOL   H26824096   0.588   0.334   0.772 -1.5787 -1.4493 -3.4226
   75MOL   H26924097   0.580   0.159   0.620 -0.6276 -1.3738 -0.0861
   75MOL   H27024098   0.720   8.376   0.642  0.7466 -0.1117  0.2315
   75MOL   H27124099   0.849   8.348   0.861 -1.6349 -0.8729 -0.1273
   75MOL   H27224100   1.032   0.033   0.951  0.0538 -1.7546  0.1312
   75MOL   H27324101   1.076   0.011   1.113 -0.2171  0.3763 -0.1504
   75MOL   C27424102   1.112   0.210   1.028  0.6507 -0.3225 -0.3494
   75MOL   C27524103   1.245   0.161   0.964 -0.4561 -0.4334 -0.4944
   75MOL   C27624104   1.285   0.209   0.836 -0.5374 -0.5814  0.2227
   75MOL  Cl27724105   1.210   0.333   0.742  0.2254  0.2841  0.1464
   75MOL   C27824106   1.396   0.157   0.772  0.4052 -0.8612  0.5302
   75MOL   C27924107   1.466   0.056   0.828  0.2941  0.5415 -0.1123
   75MOL   C28024108   1.438   0.013   0.960 -0.3903 -0.8939 -0.0597
   75MOL   C28124109   1.327   0.064   1.026 -0.3358 -0.3403  0.5941
   75MOL   C28224110   1.140   0.276   1.169 -0.5981 -0.1344  0.0624
   75MOL   H28324111   1.055   0.270   0.957 -1.1810 -0.0082  1.3103
   75MOL   H28424112   1.425   0.194   0.675  1.5399 -0.4162  1.0284
   75MOL   H28524113   1.546   0.011   0.771 -0.1430  1.0756 -1.1565
   75MOL   H28624114   1.495   8.361   1.016 -2.2310 -1.3942  1.2118
   75MOL   H28724115   1.298   0.032   1.124  0.6662 -0.8942  0.7178
   75MOL   H28824116   1.222   0.232   1.225 -2.0789 -2.9451  0.1300
   75MOL   H28924117   1.063   0.257   1.245  1.7665  0.8278  2.7854
   75MOL   C29024118   1.148   0.428   1.166  0.2313 -0.1576 -0.3983
   75MOL   C29124119   1.238   0.473   1.271 -0.5280 -0.2419 -0.0513
   75MOL   C29224120   1.379   0.486   1.243 -0.1626 -0.1442 -0.5653
   75MOL  Cl29324121   1.449   0.455   1.088  0.5038 -0.1882 -0.6263
   75MOL   C29424122   1.464   0.531   1.347  0.2308  0.0808 -0.1882
   75MOL   C29524123   1.415   0.557   1.481 -0.2725  0.6825  0.2061
   75MOL   C29624124   1.281   0.536   1.512  0.8679  0.0880  0.5203
   75MOL   C29724125   1.193   0.499   1.407 -0.6089  0.7199  0.0476
   75MOL   C29824126   1.003   0.490   1.154  0.7164  0.3100 -0.4869
   75MOL   H29924127   1.189   0.449   1.067 -0.3683 -1.0648 -0.8425
   75MOL   H30024128   1.571   0.538   1.330  0.3801  0.1952  0.7661
   75MOL   H30124129   1.488   0.581   1.557  2.8479  0.6803 -2.6512
   75MOL   H30224130   1.251   0.552   1.614  0.2421 -0.3365  0.4046
   75MOL   H30324131   1.087   0.493   1.429 -0.2424 -1.0549  1.4667
   75MOL   H30424132   0.951   0.453   1.243  1.0181  1.5595  0.2245
   75MOL   H30524133   0.965   0.448   1.061  0.7462 -3.1808  0.9557
   75MOL   C30624134   0.987   0.644   1.162  0.1522 -0.2044 -0.2760
   75MOL   C30724135   0.848   0.687   1.143 -0.4986 -0.1101  0.0475
   75MOL   C30824136   0.772   0.743   1.250  0.0950  0.6660  0.2551
   75MOL  Cl30924137   0.830   0.772   1.408 -0.0633  0.3071 -0.0339
   75MOL   C31024138   0.638   0.787   1.218  0.1337  0.1780  0.5441
   75MOL   C31124139   0.580   0.779   1.095 -0.6885 -0.3689  0.7501
   75MOL   C31224140   0.658   0.719   0.994  0.5102 -0.3995 -1.1577
   75MOL   C31324141   0.790   0.675   1.017 -0.1713 -0.6161  0.5150
   75MOL   C31424142   1.081   0.722   1.063  0.2852 -0.9382  0.1793
   75MOL   H31524143   1.016   0.672   1.264 -1.6642  1.5885 -0.2119
   75MOL   H31624144   0.575   0.828   1.296  1.3215 -0.7567  2.0366
   75MOL   H31724145   0.487   0.827   1.072  0.5447  2.9353  2.3175
   75MOL   H31824146   0.618   0.723   0.894  1.1467 -0.5075 -1.4169
   75MOL   H31924147   0.845   0.636   0.932 -0.4976 -0.9456  0.4542
   75MOL   H32024148   1.071   0.685   0.961  0.8117  4.3331 -1.9522
   75MOL   H32124149   1.186   0.729   1.092  0.2121 -0.2359  0.2838
   75MOL   H32224150   1.055   0.828   1.062  1.8939 -0.5283 -1.7490
   76MOL     C124151   6.283   2.921   3.671 -0.0428  0.5975 -0.4995
   76MOL     C224152   6.153   2.834   3.688  0.2776  0.9747 -0.1014
   76MOL     C324153   6.032   2.900   3.675  0.7509 -0.1399  0.1400
   76MOL    Cl424154   6.021   3.071   3.641  0.0841 -0.0843  0.0067
   76MOL     C524155   5.909   2.841   3.703  0.0724  0.2534 -0.2088
   76MOL     C624156   5.906   2.702   3.729  0.7388 -0.1633 -0.4342
   76MOL     C724157   6.028   2.628   3.744  0.4009 -0.7709 -0.5280
   76MOL     C824158   6.147   2.701   3.727  0.7243  0.3976 -0.1073
   76MOL     C924159   6.410   2.846   3.623  0.5192 -0.6794 -0.0980
   76MOL    H1024160   6.267   3.007   3.605  1.3815  0.4459 -1.0615
   76MOL    H1124161   5.816   2.894   3.686 -0.2877 -0.2496  0.1879
   76MOL    H1224162   5.813   2.652   3.752 -0.4489  1.4872 -1.5137
   76MOL    H1324163   6.039   2.524   3.769  2.3533 -0.4202  0.1178
   76MOL    H1424164   6.238   2.650   3.753 -0.9810 -2.0614  1.3085
   76MOL    H1524165   6.415   2.816   3.519  0.1588  0.0675 -0.3346
   76MOL    H1624166   6.421   2.754   3.680 -0.8330 -0.0986  1.1343
   76MOL    H1724167   6.314   2.967   3.765  2.0812  2.8096 -2.2208
   76MOL    C1824168   6.535   2.932   3.649 -0.1508 -0.7257 -0.0296
   76MOL    C1924169   6.527   3.062   3.569 -0.5924 -0.0786  0.1291
   76MOL    C2024170   6.517   3.195   3.626 -0.0601 -0.5167  0.7395
   76MOL   Cl2124171   6.531   3.207   3.793  0.4348 -0.2021  0.0522
   76MOL    C2224172   6.477   3.309   3.556 -0.2670 -0.1636  1.0051
   76MOL    C2324173   6.461   3.296   3.417 -0.2121 -0.3578 -0.2559
   76MOL    C2424174   6.460   3.170   3.357 -0.9879  0.1672  1.3219
   76MOL    C2524175   6.503   3.056   3.430  1.0805  0.5310 -1.1446
   76MOL    C2624176   6.666   2.859   3.615  0.2300  0.3081  1.0635
   76MOL    H2724177   6.524   2.952   3.756  1.6041 -2.5438  0.5096
   76MOL    H2824178   6.478   3.404   3.608 -0.5710 -0.1462  0.9753
   76MOL    H2924179   6.450   3.389   3.363  0.1170 -0.2867 -0.2005
   76MOL    H3024180   6.436   3.154   3.253  1.1638  1.5607  0.5873
   76MOL    H3124181   6.497   2.960   3.380  0.9082  1.0347 -2.0893
   76MOL    H3224182   6.748   2.932   3.611  1.4707 -1.0546  1.0377
   76MOL    H3324183   6.664   2.821   3.513 -0.7784 -1.4691  1.7330
   76MOL    C3424184   6.710   2.749   3.720  0.1920  0.2526  0.2192
   76MOL    C3524185   6.750   2.806   3.857 -0.0602  0.3575 -0.1799
   76MOL    C3624186   6.657   2.826   3.965  0.0166  0.6449  0.4513
   76MOL   Cl3724187   6.494   2.759   3.976  0.0119 -0.0825  0.2123
   76MOL    C3824188   6.693   2.890   4.083 -0.5302 -0.2260 -0.2214
   76MOL    C3924189   6.825   2.948   4.096 -0.0946  0.3388 -0.1942
   76MOL    C4024190   6.917   2.921   3.995  0.0723  0.4334 -0.0246
   76MOL    C4124191   6.883   2.856   3.874 -0.2329 -0.3629 -0.1217
   76MOL    C4224192   6.828   2.659   3.664 -0.2669  0.6822  0.4391
   76MOL    H4324193   6.625   2.683   3.737 -0.9108  1.8981  1.3052
   76MOL    H4424194   6.623   2.908   4.163  0.0341  0.1894  0.1920
   76MOL    H4524195   6.846   3.015   4.178 -0.4667  2.1427 -1.5487
   76MOL    H4624196   7.012   2.973   4.003 -0.4546  1.2949  0.7758
   76MOL    H4724197   6.947   2.854   3.787  0.2199 -0.3951  0.2117
   76MOL    H4824198   6.873   2.604   3.746  1.8120  2.2802  0.3872
   76MOL    H4924199   6.904   2.726   3.623  0.8941 -0.4187  0.7708
   76MOL    C5024200   6.788   2.552   3.554  0.9900 -0.4052 -0.2133
   76MOL    C5124201   6.655   2.470   3.588  0.1692  0.6965 -0.9522
   76MOL    C5224202   6.536   2.490   3.520  0.1076 -0.2451 -0.4030
   76MOL   Cl5324203   6.519   2.605   3.395 -0.5206 -0.2151  0.5333
   76MOL    C5424204   6.421   2.416   3.554 -0.0538  0.4311 -0.1707
   76MOL    C5524205   6.425   2.330   3.665  0.2057  0.4868 -0.0523
   76MOL    C5624206   6.550   2.302   3.727  1.0706  0.1173  0.3686
   76MOL    C5724207   6.660   2.373   3.684 -0.2026  0.1514 -0.5152
   76MOL    C5824208   6.913   2.455   3.533 -0.2178  0.0906  0.1648
   76MOL    H5924209   6.776   2.603   3.459 -1.0580  0.3018  0.3945
   76MOL    H6024210   6.327   2.439   3.507  0.5651  1.1925 -1.0596
   76MOL    H6124211   6.339   2.281   3.708 -0.9032  1.3900 -1.2274
   76MOL    H6224212   6.561   2.228   3.804 -0.7517  1.5914  2.1004
   76MOL    H6324213   6.755   2.349   3.729 -0.5683  0.4172  0.4179
   76MOL    H6424214   6.886   2.375   3.464 -0.3532  1.2045 -1.1084
   76MOL    H6524215   6.945   2.408   3.626  2.0542  1.4914  0.1233
   76MOL    C6624216   7.045   2.516   3.471  0.0503 -1.0707 -0.0195
   76MOL    C6724217   7.025   2.562   3.324 -0.0716  0.5658  0.3184
   76MOL    C6824218   7.043   2.695   3.288  0.6739 -0.1831  0.3656
   76MOL   Cl6924219   7.086   2.825   3.399  0.2371  0.2434 -0.1260
   76MOL    C7024220   7.043   2.728   3.149  0.1317  0.4036  0.2751
   76MOL    C7124221   7.024   2.636   3.042  0.8576  0.3865 -0.1200
   76MOL    C7224222   7.023   2.500   3.082 -0.9118  0.2119  0.4517
   76MOL    C7324223   7.016   2.466   3.219 -0.0445  0.0638  0.5022
   76MOL    C7424224   7.165   2.424   3.490 -0.5587 -0.0605 -0.2614
   76MOL    H7524225   7.051   2.606   3.533 -0.6421 -0.4252 -0.8743
   76MOL    H7624226   7.060   2.831   3.121  3.0781  0.0081  0.4763
   76MOL    H7724227   7.020   2.653   2.936 -1.3339 -1.4724 -0.3666
   76MOL    H7824228   7.025   2.422   3.007  2.1908  0.5255  0.1302
   76MOL    H7924229   7.003   2.362   3.245 -0.6396  0.1271  0.4485
   76MOL    H8024230   7.241   2.467   3.425 -0.4788  2.5829  1.5065
   76MOL    H8124231   7.144   2.324   3.451 -1.7443 -0.4444  1.2930
   76MOL    C8224232   7.219   2.400   3.630 -0.1644  0.6598  0.4728
   76MOL    C8324233   7.257   2.529   3.700  0.7085  0.0225 -0.7221
   76MOL    C8424234   7.238   2.546   3.837  0.2684  0.2589  0.3061
   76MOL   Cl8524235   7.158   2.420   3.927 -0.3436 -0.1941 -0.3110
   76MOL    C8624236   7.282   2.655   3.900  0.1886  0.0172  0.1417
   76MOL    C8724237   7.337   2.766   3.829  0.1100  0.7603  0.3696
   76MOL    C8824238   7.355   2.755   3.689  0.5904  0.3528 -0.6458
   76MOL    C8924239   7.318   2.638   3.623  0.1062 -0.5535  0.4709
   76MOL    C9024240   7.336   2.301   3.619 -0.6241  0.0979 -0.1049
   76MOL    H9124241   7.134   2.353   3.679  0.2411  0.3750  0.8934
   76MOL    H9224242   7.266   2.666   4.006  2.3200  1.6997  0.3245
   76MOL    H9324243   7.363   2.857   3.881  0.6447  1.5115 -1.1882
   76MOL    H9424244   7.396   2.832   3.625 -1.3613  0.6867 -1.5384
   76MOL    H9524245   7.348   2.632   3.519 -1.6564 -0.0951 -0.0893
   76MOL    H9624246   7.392   2.330   3.707 -2.4190  2.6736  0.2505
   76MOL    H9724247   7.406   2.315   3.536 -0.2980  0.3038  0.2064
   76MOL    C9824248   7.288   2.158   3.621  0.1484  0.2681  0.7953
   76MOL    C9924249   7.244   2.123   3.761  0.0211  0.0472 -0.3223
   76MOL   C10024250   7.104   2.100   3.794 -0.2420 -0.2544 -0.6852
   76MOL  Cl10124251   6.979   2.121   3.673 -0.1678 -0.1246  0.3507
   76MOL   C10224252   7.061   2.068   3.926 -0.4528  1.1838  0.3491
   76MOL   C10324253   7.151   2.083   4.029  0.8872 -0.3255  0.5554
   76MOL   C10424254   7.285   2.104   3.999 -0.2649 -0.0052  0.2088
   76MOL   C10524255   7.329   2.124   3.869  0.4118 -0.5697 -0.0806
   76MOL   C10624256   7.397   2.066   3.563 -0.2530  0.0837  0.1724
   76MOL   H10724257   7.199   2.153   3.558 -0.2340  3.2591  1.0306
   76MOL   H10824258   6.956   2.055   3.948 -0.8330 -1.2058 -2.5936
   76MOL   H10924259   7.112   2.068   4.128  0.1520  0.9413  0.4723
   76MOL   H11024260   7.362   2.124   4.073  1.4506  1.1644 -1.8433
   76MOL   H11124261   7.435   2.122   3.850  0.8354  2.7043  1.7730
   76MOL   H11224262   7.372   1.964   3.590  0.5033 -0.0440  0.4031
   76MOL   H11324263   7.485   2.092   3.622 -0.6959  2.7731 -0.2627
   76MOL   C11424264   7.424   2.081   3.407  0.1329  0.3944  0.2613
   76MOL   C11524265   7.288   2.041   3.325  0.2180  0.2163 -0.3729
   76MOL   C11624266   7.229   2.116   3.221 -0.2485  0.2822  0.1628
   76MOL  Cl11724267   7.312   2.263   3.166 -0.6759 -0.5004 -0.0621
   76MOL   C11824268   7.100   2.091   3.170 -0.0376 -0.4298  0.1536
   76MOL   C11924269   7.026   1.982   3.215 -0.0735  0.2136 -0.1292
   76MOL   C12024270   7.087   1.902   3.322  0.6235 -0.3995  0.3049
   76MOL   C12124271   7.211   1.927   3.365 -0.2901  0.2635 -0.5318
   76MOL   C12224272   7.542   2.007   3.349  0.3926  0.2877  0.4977
   76MOL   H12324273   7.441   2.185   3.377  1.1308  0.7407  1.9843
   76MOL   H12424274   7.055   2.160   3.100  0.1687  0.5069  0.9448
   76MOL   H12524275   6.927   1.967   3.175 -0.4226  1.6482  0.1677
   76MOL   H12624276   7.034   1.818   3.364  2.1981 -1.6121 -0.0671
   76MOL   H12724277   7.267   1.862   3.430 -1.7644  0.8339  1.3513
   76MOL   H12824278   7.543   2.015   3.240  2.4888 -1.9460  0.3156
   76MOL   H12924279   7.516   1.902   3.361  0.8692 -0.2613 -2.7654
   76MOL   C13024280   7.680   2.037   3.413 -0.2349  0.6401  0.9121
   76MOL   C13124281   7.718   2.184   3.390 -0.1319 -0.3666 -0.0282
   76MOL   C13224282   7.742   2.272   3.497  0.6396  0.2994 -0.0351
   76MOL  Cl13324283   7.735   2.227   3.671  0.4806 -0.1317  0.3357
   76MOL   C13424284   7.796   2.403   3.468 -0.9537  0.1282  0.2687
   76MOL   C13524285   7.827   2.448   3.342  0.5660  0.4010 -0.2688
   76MOL   C13624286   7.787   2.361   3.235  0.0226 -1.1075  0.8358
   76MOL   C13724287   7.739   2.234   3.261 -0.1828 -0.4173  0.5830
   76MOL   C13824288   7.792   1.940   3.381  0.2172 -0.2629 -0.2013
   76MOL   H13924289   7.652   2.024   3.517  1.5907 -2.7811  1.0540
   76MOL   H14024290   7.806   2.481   3.543 -1.9944  1.2051 -0.7029
   76MOL   H14124291   7.861   2.550   3.330  0.0747  0.6115  0.1047
   76MOL   H14224292   7.781   2.400   3.134 -1.8081  0.4581  1.5173
   76MOL   H14324293   7.721   2.167   3.178 -0.9667  1.2967 -0.6488
   76MOL   H14424294   7.885   1.968   3.431  0.6609  0.0109 -1.1691
   76MOL   H14524295   7.817   1.939   3.275  2.1904 -0.3106  0.2393
   76MOL   C14624296   7.765   1.795   3.436  0.0965 -0.0652 -0.3294
   76MOL   C14724297   7.723   1.802   3.581  0.4841  0.5168 -0.0924
   76MOL   C14824298   7.598   1.747   3.618 -0.0373 -0.7831 -0.0867
   76MOL  Cl14924299   7.501   1.650   3.507  0.1080  0.2638  0.3033
   76MOL   C15024300   7.558   1.760   3.749 -0.1848 -0.0909  0.6143
   76MOL   C15124301   7.639   1.834   3.842 -0.2997 -0.3704 -0.5180
   76MOL   C15224302   7.757   1.902   3.803 -0.3560  0.3840  0.3533
   76MOL   C15324303   7.807   1.874   3.674 -0.2368  0.4998  0.1732
   76MOL   C15424304   7.871   1.685   3.417  0.7014  0.5337 -0.0895
   76MOL   H15524305   7.676   1.772   3.378 -2.1394  1.3289  2.4476
   76MOL   H15624306   7.466   1.718   3.789 -1.0822  1.8186  0.6175
   76MOL   H15724307   7.599   1.856   3.939 -1.1141  0.9109 -1.1285
   76MOL   H15824308   7.810   1.965   3.873  1.0423  0.8288 -1.0888
   76MOL   H15924309   7.901   1.914   3.639  1.0032 -0.8134  1.8881
   76MOL   H16024310   7.845   1.583   3.442  0.3968  0.9788  1.4775
   76MOL   H16124311   7.949   1.720   3.485  0.7680 -1.7839  1.0619
   76MOL   C16224312   7.919   1.670   3.272 -0.4211 -0.1234 -0.4565
   76MOL   C16324313   7.816   1.645   3.160  0.4317  0.5229  0.2713
   76MOL   C16424314   7.806   1.721   3.036 -1.2715 -0.4480  0.1909
   76MOL  Cl16524315   7.924   1.833   3.001  0.2070 -0.0317 -0.1345
   76MOL   C16624316   7.718   1.684   2.929 -0.2825 -0.2904 -0.6074
   76MOL   C16724317   7.631   1.576   2.945  0.8802 -0.9029  0.1531
   76MOL   C16824318   7.629   1.509   3.073  0.8558 -0.4533  0.0896
   76MOL   C16924319   7.728   1.535   3.172 -0.1105 -0.3401  0.0335
   76MOL   C17024320   8.017   1.550   3.271 -0.0339 -0.5394  0.3524
   76MOL   H17124321   7.972   1.764   3.256 -0.8744  0.3313  0.6630
   76MOL   H17224322   7.731   1.737   2.835  1.1228  0.7257  0.1506
   76MOL   H17324323   7.556   1.551   2.872  1.3217 -1.8827  0.0239
   76MOL   H17424324   7.557   1.430   3.092  1.8105 -1.2318  0.4920
   76MOL   H17524325   7.731   1.481   3.265  0.2426  1.8103  1.3122
   76MOL   H17624326   8.036   1.531   3.165 -1.0864  2.1742 -0.3837
   76MOL   H17724327   7.965   1.469   3.322 -0.4738  0.3497  1.3347
   76MOL   C17824328   8.156   1.576   3.336  0.0933 -0.2110  0.3083
   76MOL   C17924329   8.221   1.709   3.299  0.3051 -0.2105  0.3357
   76MOL   C18024330   8.270   1.798   3.394 -0.2143 -0.0279  0.3964
   76MOL  Cl18124331   8.225   1.767   3.562 -0.4988  0.1052 -0.0573
   76MOL   C18224332   8.344   1.913   3.361 -0.0115 -0.0659 -0.2334
   76MOL   C18324333   8.376   1.927   3.221  0.1405 -0.1408 -0.1513
   76MOL   C18424334   8.325   1.836   3.123 -0.2348 -0.3326 -0.0432
   76MOL   C18524335   8.249   1.728   3.160 -0.3393  0.8329  0.5106
   76MOL   C18624336   8.246   1.454   3.312  0.2661 -0.7071  0.6330
   76MOL   H18724337   8.145   1.572   3.445  0.1994  1.5527  0.4040
   76MOL   H18824338   8.381   1.994   3.422 -0.7563  0.1421 -0.0502
   76MOL   H18924339   0.011   2.018   3.206 -0.6511  0.3326 -0.1762
   76MOL   H19024340   8.353   1.859   3.021 -1.3052  1.0858 -0.0235
   76MOL   H19124341   8.220   1.654   3.087 -0.3204  1.5555 -0.2439
   76MOL   H19224342   8.273   1.453   3.207  2.2820 -0.4994  1.1263
   76MOL   H19324343   8.181   1.366   3.320 -2.5180  1.1271 -0.7660
   76MOL   C19424344   8.367   1.433   3.403 -0.0450  0.2937 -0.6723
   76MOL   C19524345   0.069   1.524   3.371  0.8089 -0.2777 -0.9448
   76MOL   C19624346   0.144   1.595   3.476  0.1817 -0.6253  0.1541
   76MOL  Cl19724347   0.110   1.570   3.643  0.0245 -0.4247 -0.2128
   76MOL   C19824348   0.228   1.696   3.430  0.6001  0.6123  0.3819
   76MOL   C19924349   0.250   1.719   3.293 -0.1038  0.7281  0.7797
   76MOL   C20024350   0.194   1.641   3.197 -0.2633  0.2227  0.9619
   76MOL   C20124351   0.101   1.538   3.238  0.3085 -0.3619  0.4903
   76MOL   C20224352   8.416   1.290   3.401  0.0285 -0.3913 -0.8637
   76MOL   H20324353   8.346   1.467   3.505  2.3325  3.3023 -1.1239
   76MOL   H20424354   0.278   1.759   3.502  2.7526  0.3448 -0.8184
   76MOL   H20524355   0.320   1.795   3.259 -0.3320  0.9152  0.7218
   76MOL   H20624356   0.210   1.662   3.092 -1.2847 -0.5686  0.6422
   76MOL   H20724357   0.054   1.476   3.163  0.8063  1.5075 -1.4041
   76MOL   H20824358   0.097   1.303   3.437 -0.1319  0.0371 -0.5689
   76MOL   H20924359   0.016   1.256   3.300 -0.1605  1.7213 -1.6209
   76MOL   C21024360   8.351   1.188   3.496  0.0991 -0.1068  0.6716
   76MOL   C21124361   8.394   1.197   3.647 -0.7400  0.2764 -0.1949
   76MOL   C21224362   8.299   1.162   3.747  0.7734 -0.0740 -0.3842
   76MOL  Cl21324363   8.131   1.119   3.707 -0.6901 -0.2707  0.1090
   76MOL   C21424364   8.329   1.164   3.885  0.2773  0.4459  0.5312
   76MOL   C21524365   0.043   1.169   3.921  0.6023  0.0299  0.1595
   76MOL   C21624366   0.135   1.218   3.824 -0.2463  0.0070 -0.1539
   76MOL   C21724367   0.103   1.243   3.691  0.3886  0.1270 -0.0365
   76MOL   C21824368   8.387   1.050   3.451 -0.1585  0.3405 -0.2497
   76MOL   H21924369   8.243   1.201   3.497  0.1225  0.0864  0.7448
   76MOL   H22024370   8.253   1.129   3.953 -0.4956 -1.3039 -1.1815
   76MOL   H22124371   0.074   1.168   4.025  3.3123  1.6045 -0.5598
   76MOL   H22224372   0.237   1.247   3.848 -0.5640 -1.1185  2.7162
   76MOL   H22324373   0.173   1.286   3.620 -0.7448  1.6554 -0.2510
   76MOL   H22424374   8.360   0.979   3.529  1.1315 -0.1332 -0.2227
   76MOL   H22524375   0.075   1.041   3.444 -0.1290  1.3558 -1.1738
   76MOL   C22624376   8.316   0.997   3.327 -0.1429 -0.5018  0.5222
   76MOL   C22724377   8.170   0.976   3.369  0.1949 -0.3642 -0.2917
   76MOL   C22824378   8.058   1.047   3.303 -0.4131 -0.2364 -0.2198
   76MOL  Cl22924379   8.094   1.150   3.176  0.0723  0.0209  0.4468
   76MOL   C23024380   7.922   1.031   3.340 -0.7812  0.2673 -0.8235
   76MOL   C23124381   7.898   0.937   3.445 -0.2396  0.1211  0.0385
   76MOL   C23224382   8.001   0.863   3.504 -0.0979  0.1524  0.3850
   76MOL   C23324383   8.137   0.878   3.464  0.0255  0.7937  0.5417
   76MOL   C23424384   8.385   0.876   3.265 -0.0315  0.7834 -0.3739
   76MOL   H23524385   8.315   1.069   3.245  0.2181 -0.6454  0.3915
   76MOL   H23624386   7.846   1.081   3.282  1.2467  0.9888 -2.9963
   76MOL   H23724387   7.794   0.933   3.475  0.6249  0.0156  3.1445
   76MOL   H23824388   7.983   0.791   3.583  0.5381  1.9330  2.2067
   76MOL   H23924389   8.209   0.821   3.522  0.0905 -0.1196 -0.4276
   76MOL   H24024390   8.321   0.788   3.273  1.5765 -0.4615 -0.9505
   76MOL   H24124391   0.046   0.843   3.331 -2.7194 -1.7829  1.7964
   76MOL   C24224392   0.014   0.887   3.115  0.0477 -0.2305 -0.4488
   76MOL   C24324393   0.020   0.746   3.058 -0.2386 -0.6881 -0.1115
   76MOL   C24424394   8.351   0.699   2.964  0.1845 -0.2173  0.0626
   76MOL  Cl24524395   8.221   0.794   2.898  0.3322  0.0061 -0.2152
   76MOL   C24624396   8.360   0.571   2.908 -0.7953 -0.3724 -0.3688
   76MOL   C24724397   0.038   0.480   2.952  0.7085 -0.0160  0.3689
   76MOL   C24824398   0.125   0.527   3.053 -0.1184  0.4192  0.2482
   76MOL   C24924399   0.113   0.653   3.109  1.0966 -0.3633 -0.0691
   76MOL   C25024400   0.140   0.966   3.112 -0.3198  0.2115 -0.3145
   76MOL   H25124401   8.357   0.939   3.059 -0.4458 -2.0896 -1.5521
   76MOL   H25224402   8.293   0.542   2.828 -1.9867 -1.1047  0.8780
   76MOL   H25324403   0.045   0.388   2.896  0.4879 -0.5014  1.1233
   76MOL   H25424404   0.210   0.465   3.075 -0.7488  0.5171  3.1281
   76MOL   H25524405   0.190   0.677   3.181  1.9020 -0.2586 -0.9625
   76MOL   H25624406   0.221   0.898   3.138  0.2677  1.8403  2.3253
   76MOL   H25724407   0.143   1.042   3.190  0.5801  1.7146 -1.7812
   76MOL   C25824408   0.162   1.030   2.973 -0.2453  0.0894 -0.2279
   76MOL   C25924409   0.307   1.080   2.961  0.0669  0.9806  0.7877
   76MOL   C26024410   0.405   1.009   2.877 -0.6313  0.2709 -0.0817
   76MOL  Cl26124411   0.358   0.873   2.774  0.0545 -0.3802 -0.1377
   76MOL   C26224412   0.537   1.050   2.864 -0.4297 -0.1083 -0.3712
   76MOL   C26324413   0.579   1.154   2.950 -0.0830 -0.0019  0.3751
   76MOL   C26424414   0.494   1.219   3.032  0.2593 -0.4210 -0.0976
   76MOL   C26524415   0.356   1.186   3.037 -0.3856 -0.2917  0.7508
   76MOL   C26624416   0.049   1.129   2.929 -0.1562  1.4426 -0.1811
   76MOL   H26724417   0.161   0.949   2.900 -1.6711 -0.2194  0.1098
   76MOL   H26824418   0.609   0.989   2.811  0.4635 -0.6023  1.3836
   76MOL   H26924419   0.682   1.188   2.946 -0.9046  2.7637  1.6315
   76MOL   H27024420   0.527   1.298   3.097 -1.1925  0.5325 -0.4934
   76MOL   H27124421   0.303   1.252   3.104  1.6484  2.8815 -0.6309
   76MOL   H27224422   0.028   1.181   3.023 -2.6483  1.1764 -0.5513
   76MOL   H27324423   8.382   1.073   2.896 -0.2065  1.1391  0.4588
   76MOL   C27424424   0.086   1.239   2.832 -0.8207  0.3905 -0.5493
   76MOL   C27524425   8.412   1.358   2.840 -0.7048 -0.4948 -0.2927
   76MOL   C27624426   0.033   1.492   2.814  0.5876  0.2341  0.3983
   76MOL  Cl27724427   0.194   1.526   2.780  0.2270  0.0384  0.0472
   76MOL   C27824428   8.366   1.602   2.827  0.1709 -0.7352 -0.1248
   76MOL   C27924429   8.237   1.580   2.862  0.1745 -0.1922 -0.3913
   76MOL   C28024430   8.194   1.450   2.897  1.0504 -1.1500  0.1839
   76MOL   C28124431   8.277   1.344   2.886  0.2130  0.3789 -0.2364
   76MOL   C28224432   0.118   1.205   2.690  0.3168  0.5644 -0.1412
   76MOL   H28324433   0.182   1.278   2.868 -0.2276 -2.6537  1.2816
   76MOL   H28424434   8.405   1.702   2.810 -0.1497 -0.6514 -0.3886
   76MOL   H28524435   8.166   1.661   2.873  0.4345  0.1882 -1.4973
   76MOL   H28624436   8.093   1.433   2.930  0.9663  0.3591  0.7516
   76MOL   H28724437   8.229   1.250   2.908 -1.3024  0.9208 -1.1684
   76MOL   H28824438   0.217   1.160   2.699 -0.5874 -1.1382  1.4053
   76MOL   H28924439   0.141   1.288   2.623  0.4843  1.4850  1.0281
   76MOL   C29024440   0.020   1.114   2.607 -0.6741  0.0007  0.7489
   76MOL   C29124441   0.105   1.039   2.500  0.4932 -0.1135  0.2270
   76MOL   C29224442   0.113   0.897   2.510 -0.0645  0.0967 -0.4069
   76MOL  Cl29324443   0.013   0.807   2.616  0.1559  0.1612  0.2726
   76MOL   C29424444   0.188   0.827   2.423  0.4391  0.0654 -0.2171
   76MOL   C29524445   0.260   0.894   2.322 -0.4020  0.6005 -0.3995
   76MOL   C29624446   0.267   1.037   2.320  0.9444 -0.8293 -0.5522
   76MOL   C29724447   0.177   1.108   2.399  0.4605 -0.0477 -0.0227
   76MOL   C29824448   8.329   1.193   2.542 -0.4583  0.6335 -0.9236
   76MOL   H29924449   8.402   1.040   2.678  0.8597 -1.3436  0.2120
   76MOL   H30024450   0.197   0.720   2.433 -0.6322  0.1464  2.0391
   76MOL   H30124451   0.305   0.825   2.252  0.0021 -0.9173  1.3043
   76MOL   H30224452   0.324   1.088   2.243 -0.0787  0.9219 -0.1633
   76MOL   H30324453   0.171   1.215   2.384  0.0259  0.2543  2.1854
   76MOL   H30424454   8.357   1.249   2.452  2.6546 -1.3548 -1.2871
   76MOL   H30524455   8.297   1.274   2.607 -0.7686 -0.4051  0.2295
   76MOL   C30624456   8.201   1.110   2.516  0.2905  0.3612  0.1306
   76MOL   C30724457   8.114   1.180   2.409 -0.0217  0.4472  0.2193
   76MOL   C30824458   8.086   1.118   2.286 -0.3623 -0.5776  0.6195
   76MOL  Cl30924459   8.137   0.955   2.239  0.2270 -0.4183 -0.0950
   76MOL   C31024460   8.009   1.186   2.185 -0.3228 -0.2121 -0.2354
   76MOL   C31124461   7.965   1.313   2.208  0.1537 -0.6052  0.2110
   76MOL   C31224462   7.993   1.374   2.330  0.6347 -0.6256 -0.5229
   76MOL   C31324463   8.068   1.308   2.431  0.6638 -0.2994 -0.1089
   76MOL   C31424464   8.119   1.103   2.641 -0.0115  0.2780 -0.3531
   76MOL   H31524465   8.223   1.008   2.485  0.3248 -0.0917  1.6100
   76MOL   H31624466   7.988   1.127   2.097  1.0316 -1.9502  0.5521
   76MOL   H31724467   7.920   1.362   2.123  0.9792 -0.7139 -0.3030
   76MOL   H31824468   7.949   1.472   2.335 -1.6047 -1.5616 -1.4369
   76MOL   H31924469   8.084   1.368   2.520 -0.8887 -0.9566  0.6221
   76MOL   H32024470   8.037   1.033   2.627 -1.6943  2.0344  0.5066
   76MOL   H32124471   8.073   1.200   2.662  0.6908  0.6604 -0.5343
   76MOL   H32224472   8.175   1.073   2.730 -1.4734  2.8521  1.4977
   77MOL     C124473   6.001   2.504   4.548 -0.3731  0.4908 -0.2418
   77MOL     C224474   5.870   2.434   4.548 -0.1164  0.8612  0.4276
   77MOL     C324475   5.843   2.342   4.656 -0.3149 -0.0024 -0.0651
   77MOL    Cl424476   5.936   2.344   4.801  0.4510  0.3542 -0.2073
   77MOL     C524477   5.728   2.261   4.641 -0.9027  0.4253 -0.2728
   77MOL     C624478   5.640   2.273   4.529  0.0850  0.7110  0.3015
   77MOL     C724479   5.662   2.380   4.434 -0.3734  0.3707 -0.3149
   77MOL     C824480   5.780   2.464   4.447  0.0568 -0.1118 -0.1232
   77MOL     C924481   5.988   2.660   4.561 -0.3206  0.4769 -0.5747
   77MOL    H1024482   6.081   2.462   4.609 -0.2591  1.4228  0.2572
   77MOL    H1124483   5.690   2.200   4.721  3.1641 -0.5533  1.0280
   77MOL    H1224484   5.551   2.211   4.525 -0.1316  1.1098 -1.7494
   77MOL    H1324485   5.587   2.408   4.363  0.3359  0.1854 -1.1491
   77MOL    H1424486   5.798   2.542   4.375  1.1316 -0.0468  0.2106
   77MOL    H1524487   5.984   2.697   4.664 -1.9499  1.3183 -0.9343
   77MOL    H1624488   5.893   2.680   4.512 -0.8688 -2.1011 -0.6411
   77MOL    H1724489   6.033   2.482   4.446  0.2584 -0.4866  0.1550
   77MOL    C1824490   6.100   2.734   4.485 -0.0144  0.3982 -0.1640
   77MOL    C1924491   6.239   2.700   4.541  0.3223  0.0596  0.4432
   77MOL    C2024492   6.341   2.673   4.446 -0.1361  0.0556 -0.2597
   77MOL   Cl2124493   6.323   2.687   4.276 -0.0860 -0.4692 -0.0662
   77MOL    C2224494   6.469   2.647   4.498 -0.4889 -0.1284  0.2632
   77MOL    C2324495   6.492   2.654   4.638 -0.2741  0.1240  0.3438
   77MOL    C2424496   6.388   2.690   4.725 -0.3473 -0.0356  0.5833
   77MOL    C2524497   6.263   2.715   4.675  0.6280  0.8107 -0.1569
   77MOL    C2624498   6.076   2.886   4.497 -0.6600  0.8988 -0.0190
   77MOL    H2724499   6.072   2.703   4.385  1.6579 -3.0447  0.3380
   77MOL    H2824500   6.556   2.631   4.435  0.3547  0.1596  1.3483
   77MOL    H2924501   6.586   2.623   4.681 -1.1883 -1.3757  1.2822
   77MOL    H3024502   6.400   2.701   4.832 -2.5352  0.1536  0.8304
   77MOL    H3124503   6.179   2.734   4.742  1.9076 -1.1223  2.0696
   77MOL    H3224504   6.171   2.939   4.492 -0.1866  0.0066 -0.7132
   77MOL    H3324505   6.036   2.912   4.595 -1.6110  5.8165 -1.5718
   77MOL    C3424506   5.983   2.951   4.388  0.8356  0.4195 -0.1320
   77MOL    C3524507   6.071   2.994   4.275 -0.8996 -0.0808  0.0257
   77MOL    C3624508   6.073   2.919   4.155  0.4828  0.5367 -0.4795
   77MOL   Cl3724509   5.969   2.773   4.147  0.0972 -0.0170  0.0311
   77MOL    C3824510   6.163   2.951   4.056  0.3052 -0.0405  0.8762
   77MOL    C3924511   6.249   3.062   4.072  0.7696 -0.3574 -0.4118
   77MOL    C4024512   6.241   3.136   4.192  0.3549  0.3299  0.5155
   77MOL    C4124513   6.143   3.109   4.292  0.4027 -0.1975  0.0423
   77MOL    C4224514   5.886   3.060   4.440  0.4000  0.1347 -0.5886
   77MOL    H4324515   5.917   2.870   4.356  0.9920  0.1651  0.1914
   77MOL    H4424516   6.169   2.883   3.973 -1.2354 -0.6538  1.2527
   77MOL    H4524517   6.323   3.083   3.997  0.3484 -0.6166 -0.9034
   77MOL    H4624518   6.316   3.211   4.213 -0.3124  0.3422  3.0396
   77MOL    H4724519   6.139   3.168   4.383  0.2140  0.8701 -0.6459
   77MOL    H4824520   5.849   3.122   4.358 -0.0184  0.4565 -0.1620
   77MOL    H4924521   5.945   3.125   4.505 -0.6959 -0.6911  1.2820
   77MOL    C5024522   5.771   2.998   4.525  0.3208 -0.0354  0.5357
   77MOL    C5124523   5.664   2.915   4.448 -0.0496 -0.2764 -0.1101
   77MOL    C5224524   5.595   2.804   4.515 -0.4569 -0.1560  0.9484
   77MOL   Cl5324525   5.634   2.755   4.679 -0.0353 -0.2190 -0.0454
   77MOL    C5424526   5.494   2.735   4.448 -0.1699 -0.2055  0.5238
   77MOL    C5524527   5.453   2.773   4.316  0.1549 -0.3645 -0.0626
   77MOL    C5624528   5.513   2.881   4.254 -0.1064  0.3111  0.1167
   77MOL    C5724529   5.621   2.948   4.316 -0.3717 -0.5253  0.7096
   77MOL    C5824530   5.694   3.097   4.624  0.3814 -0.1296 -0.7077
   77MOL    H5924531   5.818   2.930   4.596  1.8940 -2.6305 -2.8457
   77MOL    H6024532   5.441   2.652   4.492 -2.4312  0.6080 -0.6112
   77MOL    H6124533   5.374   2.719   4.268  1.6516 -1.8772 -0.8487
   77MOL    H6224534   5.486   2.909   4.153 -0.8787  0.4042  0.3448
   77MOL    H6324535   5.666   3.036   4.271 -0.5001 -1.2453 -0.8603
   77MOL    H6424536   5.629   3.038   4.689 -2.2319  0.3108 -2.8090
   77MOL    H6524537   5.631   3.159   4.560 -0.4415 -1.4232 -1.1753
   77MOL    C6624538   5.786   3.174   4.727 -0.4904  0.1083 -1.3407
   77MOL    C6724539   5.887   3.076   4.801 -0.1353  0.0203 -0.7485
   77MOL    C6824540   6.027   3.106   4.796  0.4398 -0.1847 -0.1590
   77MOL   Cl6924541   6.086   3.229   4.688  0.0112  0.2400 -0.0153
   77MOL    C7024542   6.118   3.033   4.868  0.3934 -0.6988  0.0477
   77MOL    C7124543   6.072   2.917   4.939 -0.0348 -0.0551  1.2107
   77MOL    C7224544   5.941   2.879   4.930 -0.1872  0.0070 -0.3570
   77MOL    C7324545   5.844   2.955   4.861  0.6403  0.8859  0.6505
   77MOL    C7424546   5.698   3.260   4.822 -0.3677  0.3865  0.3664
   77MOL    H7524547   5.852   3.247   4.681  0.5319  0.1530  0.1833
   77MOL    H7624548   6.222   3.064   4.870 -0.0105  0.7667 -1.1341
   77MOL    H7724549   6.145   2.861   4.996  0.1879 -1.0658 -0.0737
   77MOL    H7824550   5.901   2.795   4.984 -0.4480  0.4257  0.1095
   77MOL    H7924551   5.739   2.932   4.854  0.8310  0.5947 -1.5295
   77MOL    H8024552   5.755   3.309   4.901 -1.4205 -0.1264  1.4540
   77MOL    H8124553   5.624   3.195   4.868 -0.7587  0.7932  0.3128
   77MOL    C8224554   5.629   3.380   4.756 -0.5462  0.0679 -0.0793
   77MOL    C8324555   5.721   3.504   4.742 -0.0596 -0.0304 -0.1223
   77MOL    C8424556   5.795   3.528   4.623  0.6981 -0.0586  0.2360
   77MOL   Cl8524557   5.786   3.411   4.493 -0.0376 -0.1674 -0.0933
   77MOL    C8624558   5.870   3.647   4.597 -0.1409  0.1272  0.0454
   77MOL    C8724559   5.871   3.746   4.694  0.5067 -0.0239 -0.0435
   77MOL    C8824560   5.801   3.734   4.813 -0.9518 -0.6005 -0.3902
   77MOL    C8924561   5.720   3.619   4.831  0.0023 -0.0337 -0.1227
   77MOL    C9024562   5.498   3.412   4.822  0.3221 -0.5777 -0.5525
   77MOL    H9124563   5.597   3.357   4.654  1.3342 -0.3669 -0.5869
   77MOL    H9224564   5.918   3.662   4.502  1.4039 -2.9037  0.2779
   77MOL    H9324565   5.935   3.832   4.679  2.0854 -1.0018  1.0655
   77MOL    H9424566   5.795   3.819   4.879 -1.7653 -0.8308 -0.1619
   77MOL    H9524567   5.666   3.616   4.925  0.0788 -1.5490 -0.1116
   77MOL    H9624568   5.461   3.508   4.787 -0.1311 -1.1976 -1.8148
   77MOL    H9724569   5.516   3.437   4.926 -0.7429 -0.2970 -0.4276
   77MOL    C9824570   5.383   3.301   4.813  0.7320  0.8528  0.3180
   77MOL    C9924571   5.363   3.247   4.670 -0.1417  0.0372  0.4543
   77MOL   C10024572   5.360   3.107   4.647  0.2130  0.1058 -0.4866
   77MOL  Cl10124573   5.370   2.997   4.772  0.4882 -0.1310 -0.1480
   77MOL   C10224574   5.333   3.060   4.514  0.4159  0.7013 -0.2016
   77MOL   C10324575   5.319   3.148   4.412  0.3201 -0.3462  0.7804
   77MOL   C10424576   5.324   3.286   4.434  0.0716 -0.0762 -0.7550
   77MOL   C10524577   5.339   3.334   4.564  0.4274  0.1701 -0.1695
   77MOL   C10624578   5.247   3.353   4.863  0.9883 -0.2943  0.4047
   77MOL   H10724579   5.414   3.219   4.878  0.1443  1.9509  2.0077
   77MOL   H10824580   5.325   2.954   4.496  2.9909  0.4222  0.1175
   77MOL   H10924581   5.309   3.101   4.315 -1.3181 -0.4063  0.9667
   77MOL   H11024582   5.322   3.355   4.351 -0.1369  1.3976  0.4475
   77MOL   H11124583   5.343   3.440   4.584  1.4516  0.5194 -2.1331
   77MOL   H11224584   5.163   3.284   4.852  0.1316  0.4843  1.8830
   77MOL   H11324585   5.227   3.444   4.805 -0.9477 -0.8465  0.1796
   77MOL   C11424586   5.235   3.391   5.016 -0.3710  0.0634  0.8672
   77MOL   C11524587   5.301   3.282   5.103 -0.1361 -0.2291 -0.2075
   77MOL   C11624588   5.399   3.318   5.193 -0.1711  0.2168  0.3344
   77MOL  Cl11724589   5.451   3.478   5.210  0.1010  0.0370  0.1762
   77MOL   C11824590   5.459   3.220   5.273 -0.6865  0.8597  0.1015
   77MOL   C11924591   5.419   3.084   5.263 -0.4428  0.1485  0.1930
   77MOL   C12024592   5.307   3.059   5.188  0.2399  0.7092  0.5009
   77MOL   C12124593   5.255   3.150   5.102  0.1999  0.1855 -0.5221
   77MOL   C12224594   5.090   3.422   5.056 -0.4503 -0.3648 -0.1460
   77MOL   H12324595   5.293   3.483   5.014  0.1207 -0.2591 -0.0698
   77MOL   H12424596   5.517   3.248   5.360 -1.4328 -4.1493  2.4091
   77MOL   H12524597   5.478   3.009   5.313  0.5520  0.4694 -0.4918
   77MOL   H12624598   5.270   2.958   5.183 -0.9373  1.2165 -1.5972
   77MOL   H12724599   5.173   3.117   5.039 -1.4279 -1.4451  2.3805
   77MOL   H12824600   5.077   3.422   5.164  2.2404  0.9552  0.2338
   77MOL   H12924601   5.034   3.340   5.012  0.1868 -0.3403 -1.0277
   77MOL   C13024602   5.046   3.560   5.000  0.8587 -0.2872 -0.4410
   77MOL   C13124603   5.134   3.679   5.037  0.5464 -0.1825  0.8106
   77MOL   C13224604   5.179   3.768   4.934  0.0182  0.1233  0.6201
   77MOL  Cl13324605   5.107   3.760   4.778 -0.1597  0.3935 -0.1779
   77MOL   C13424606   5.282   3.861   4.971  0.2428  0.3447  0.3335
   77MOL   C13524607   5.323   3.885   5.104 -0.5927 -0.3971  0.4169
   77MOL   C13624608   5.274   3.800   5.203  0.5252  0.0086 -0.0167
   77MOL   C13724609   5.190   3.693   5.166  0.0674  0.3172 -0.1936
   77MOL   C13824610   4.904   3.588   5.048  0.3281 -0.3377  0.0246
   77MOL   H13924611   5.047   3.552   4.892 -0.3861  2.0919 -0.6489
   77MOL   H14024612   5.324   3.926   4.895 -2.7695  0.0807 -1.5966
   77MOL   H14124613   5.392   3.964   5.131 -0.3455 -0.8263  1.0676
   77MOL   H14224614   5.300   3.807   5.308 -0.8849 -1.4664  0.4519
   77MOL   H14324615   5.150   3.634   5.247  1.4115  0.9568  0.9512
   77MOL   H14424616   4.888   3.695   5.061  0.7979 -0.3836  0.9682
   77MOL   H14524617   4.901   3.559   5.153  1.2979 -0.5714 -0.0135
   77MOL   C14624618   4.802   3.523   4.959 -0.1028 -0.1520 -0.7575
   77MOL   C14724619   4.805   3.592   4.821 -0.5622  0.1641 -0.1685
   77MOL   C14824620   4.840   3.509   4.712 -0.6053  0.4250 -0.0022
   77MOL  Cl14924621   4.873   3.341   4.731 -0.2317 -0.0772  0.0194
   77MOL   C15024622   4.842   3.566   4.586  0.0857 -0.3412  0.0911
   77MOL   C15124623   4.800   3.698   4.569  0.0854 -0.2874  0.0513
   77MOL   C15224624   4.763   3.782   4.672 -0.1804 -0.3032 -0.1946
   77MOL   C15324625   4.765   3.724   4.804  0.3505 -0.2959  0.4812
   77MOL   C15424626   4.656   3.550   5.016  0.0526 -0.4036  0.1024
   77MOL   H15524627   4.821   3.416   4.959 -0.9584 -0.3108 -0.5747
   77MOL   H15624628   4.869   3.507   4.499 -0.2590 -0.5043  0.0925
   77MOL   H15724629   4.791   3.731   4.466  0.0670 -0.0315  0.1334
   77MOL   H15824630   4.722   3.878   4.646 -0.9283 -0.6072 -0.1593
   77MOL   H15924631   4.742   3.790   4.886 -0.0687 -1.4719  1.3150
   77MOL   H16024632   4.576   3.559   4.943  0.5799  0.2744 -0.3908
   77MOL   H16124633   4.654   3.650   5.060 -2.7538 -0.5356  0.3797
   77MOL   C16224634   4.623   3.450   5.131  0.6446  0.9871 -0.2482
   77MOL   C16324635   4.599   3.308   5.085 -0.3227  0.6187 -0.2463
   77MOL   C16424636   4.680   3.203   5.120 -0.3408 -0.1882 -0.1576
   77MOL  Cl16524637   4.815   3.223   5.226 -0.1952 -0.5701 -0.2084
   77MOL   C16624638   4.649   3.077   5.064 -0.5830 -0.1371  0.3396
   77MOL   C16724639   4.537   3.057   4.987  0.4537 -0.3401 -1.0842
   77MOL   C16824640   4.460   3.161   4.953 -0.1981  0.0698  0.0788
   77MOL   C16924641   4.487   3.290   4.994  0.1448  0.4234 -0.1770
   77MOL   C17024642   4.510   3.507   5.224  0.3655  0.1146 -0.7222
   77MOL   H17124643   4.709   3.445   5.197  0.2827 -2.3394  0.0595
   77MOL   H17224644   4.720   3.000   5.090 -0.1542  0.2340  0.2733
   77MOL   H17324645   4.510   2.954   4.967 -0.5869 -0.8382  2.6226
   77MOL   H17424646   4.380   3.141   4.882 -0.5890  1.0107  0.2449
   77MOL   H17524647   4.426   3.369   4.953 -0.2293  0.2336  0.0129
   77MOL   H17624648   4.448   3.428   5.265  0.6835 -0.4425 -1.3162
   77MOL   H17724649   4.446   3.569   5.161  1.7624  1.3871 -0.9287
   77MOL   C17824650   4.562   3.589   5.346 -0.0096  0.2359 -0.4940
   77MOL   C17924651   4.611   3.487   5.463 -0.4771  0.0746 -0.4313
   77MOL   C18024652   4.742   3.491   5.510  0.1706  1.1533 -0.2328
   77MOL  Cl18124653   4.847   3.612   5.466 -0.0699  0.0868  0.3352
   77MOL   C18224654   4.785   3.391   5.599  0.5502 -0.1300 -0.4514
   77MOL   C18324655   4.699   3.290   5.645 -0.6122 -0.1738  0.9918
   77MOL   C18424656   4.566   3.292   5.604  0.0305  0.5833  0.7313
   77MOL   C18524657   4.521   3.390   5.516  0.0233  0.0517  0.1021
   77MOL   C18624658   4.443   3.669   5.407 -0.0050 -0.3494 -0.0818
   77MOL   H18724659   4.642   3.658   5.320  0.7850 -0.2522  0.5823
   77MOL   H18824660   4.888   3.395   5.631 -0.0569  0.9959  1.4281
   77MOL   H18924661   4.742   3.221   5.715  0.5902  1.3713  1.8068
   77MOL   H19024662   4.513   3.202   5.631 -0.4648  0.5001 -0.4565
   77MOL   H19124663   4.417   3.387   5.485  0.5940 -0.8905 -1.7820
   77MOL   H19224664   4.406   3.617   5.495  1.4485 -1.9248 -0.3695
   77MOL   H19324665   4.358   3.675   5.338  0.3937 -0.2021 -0.5620
   77MOL   C19424666   4.472   3.822   5.420 -0.1498 -0.2673  0.1199
   77MOL   C19524667   4.533   3.872   5.287  0.9972 -0.3339 -0.4475
   77MOL   C19624668   4.453   3.870   5.168 -0.0976 -0.1463 -0.0020
   77MOL  Cl19724669   4.283   3.849   5.177 -0.1543 -0.1325  0.2060
   77MOL   C19824670   4.509   3.908   5.039 -0.3765  0.1476  0.2757
   77MOL   C19924671   4.643   3.944   5.038  0.1173  0.0811 -0.2378
   77MOL   C20024672   4.710   3.964   5.161 -0.5927  0.2859  0.3168
   77MOL   C20124673   4.663   3.922   5.285  0.4850  0.5174 -0.2260
   77MOL   C20224674   4.546   3.852   5.554 -0.3907  0.0627 -0.3975
   77MOL   H20324675   4.383   3.886   5.419 -0.2766 -0.4444  0.1571
   77MOL   H20424676   4.451   3.920   4.949  1.4983  1.6698 -0.7718
   77MOL   H20524677   4.700   3.970   4.950  3.3079  0.7867  1.9702
   77MOL   H20624678   4.812   3.997   5.160 -1.3071  2.5431 -0.8246
   77MOL   H20724679   4.724   3.914   5.373  1.7567  0.1532 -1.1310
   77MOL   H20824680   4.591   3.951   5.552  0.2892 -0.2266  0.3308
   77MOL   H20924681   4.623   3.778   5.579 -1.1621  0.0898  2.2067
   77MOL   C21024682   4.457   3.864   5.682 -0.0894 -0.1074  0.9385
   77MOL   C21124683   4.545   3.928   5.792  0.5321  0.0977 -0.2395
   77MOL   C21224684   4.524   4.058   5.849  0.2000 -0.3533  0.0157
   77MOL  Cl21324685   4.389   4.154   5.800  0.2371  0.0045  0.2443
   77MOL   C21424686   4.604   4.107   5.954 -0.3544  0.0150  0.7866
   77MOL   C21524687   4.705   4.027   6.002  0.6021  0.2164 -0.9950
   77MOL   C21624688   4.724   3.898   5.947  0.0686 -0.2655 -0.8206
   77MOL   C21724689   4.643   3.846   5.847 -0.4422 -0.9070 -0.5269
   77MOL   C21824690   4.378   3.739   5.729  0.4753  0.5733  0.1779
   77MOL   H21924691   4.382   3.937   5.651  0.0401  0.1157  1.1406
   77MOL   H22024692   4.594   4.205   5.999 -0.0488  1.2474 -1.7774
   77MOL   H22124693   4.766   4.062   6.084 -0.4682  0.1883 -0.1768
   77MOL   H22224694   4.807   3.843   5.988 -0.1708  0.0381  0.0990
   77MOL   H22324695   4.665   3.750   5.803 -2.1448 -0.2660 -2.8657
   77MOL   H22424696   4.378   3.743   5.838 -0.1917  0.3786  0.1840
   77MOL   H22524697   4.438   3.649   5.711  2.4849  1.8328  0.5128
   77MOL   C22624698   4.227   3.730   5.675  0.2077 -0.1728  0.2888
   77MOL   C22724699   4.124   3.840   5.725  0.0472  0.1008  0.6398
   77MOL   C22824700   4.034   3.915   5.646 -0.0052 -0.2075 -0.6455
   77MOL  Cl22924701   4.039   3.909   5.470 -0.6017  0.0999 -0.0361
   77MOL   C23024702   3.934   3.993   5.705 -0.4452  0.0858 -0.2966
   77MOL   C23124703   3.921   4.006   5.843  0.3446  0.8737 -0.3030
   77MOL   C23224704   4.012   3.934   5.927  0.3141  0.3212  0.0852
   77MOL   C23324705   4.117   3.865   5.866  0.0671  0.7122 -0.7895
   77MOL   C23424706   4.171   3.595   5.675 -0.2589  0.9434  0.0169
   77MOL   H23524707   4.237   3.746   5.567 -0.1362 -0.7685  0.1697
   77MOL   H23624708   3.866   4.047   5.641 -1.9439  2.7008  3.3378
   77MOL   H23724709   3.837   4.056   5.889  0.6335  1.2069 -0.1299
   77MOL   H23824710   4.006   3.949   6.034  2.0241 -0.1390  0.2547
   77MOL   H23924711   4.194   3.818   5.925 -0.0740 -1.5021 -2.2858
   77MOL   H24024712   4.243   3.526   5.631 -0.7637  0.6399 -0.3294
   77MOL   H24124713   4.086   3.600   5.607 -0.1228 -0.2357 -0.2479
   77MOL   C24224714   4.135   3.522   5.804 -1.0986 -0.0226 -0.1978
   77MOL   C24324715   4.248   3.507   5.905  0.0366 -0.0147 -0.2816
   77MOL   C24424716   4.247   3.557   6.036  1.0951 -0.4481  0.5260
   77MOL  Cl24524717   4.099   3.623   6.102 -0.0130  0.0285 -0.0878
   77MOL   C24624718   4.360   3.552   6.126 -0.1338  0.8215 -0.8367
   77MOL   C24724719   4.479   3.485   6.084  0.0719  0.0765  0.0506
   77MOL   C24824720   4.479   3.426   5.958  0.2060 -0.1467 -0.1346
   77MOL   C24924721   4.367   3.435   5.874 -0.8113 -0.6461 -0.4027
   77MOL   C25024722   4.059   3.388   5.768 -0.3275 -1.0923 -0.0943
   77MOL   H25124723   4.061   3.591   5.845 -1.3676 -2.1352  3.0700
   77MOL   H25224724   4.358   3.590   6.227  0.8245 -0.0885 -0.4711
   77MOL   H25324725   4.562   3.473   6.152 -1.7796 -1.1809  2.1568
   77MOL   H25424726   4.571   3.377   5.930 -0.7830 -1.2491 -1.4798
   77MOL   H25524727   4.374   3.390   5.775  3.2333 -3.1122  0.8898
   77MOL   H25624728   4.070   3.319   5.851 -1.7881  1.0020  1.9236
   77MOL   H25724729   4.119   3.336   5.694 -0.0161 -1.0403  0.1189
   77MOL   C25824730   3.906   3.399   5.729  0.0507  0.3203 -0.4636
   77MOL   C25924731   3.814   3.416   5.848 -0.3644 -0.6632  0.1122
   77MOL   C26024732   3.692   3.493   5.843  0.2560 -0.3952  0.2112
   77MOL  Cl26124733   3.644   3.577   5.700 -0.4755  0.5204  0.0371
   77MOL   C26224734   3.616   3.509   5.963  0.2027 -1.0015 -0.3667
   77MOL   C26324735   3.650   3.431   6.071 -0.6804  0.0113 -0.0225
   77MOL   C26424736   3.758   3.352   6.076 -0.1011 -0.2212  0.3648
   77MOL   C26524737   3.838   3.341   5.964 -0.6787 -0.0435  0.3925
   77MOL   C26624738   3.862   3.287   5.628 -0.0428 -0.4138  0.5234
   77MOL   H26724739   3.903   3.488   5.665 -0.5108 -0.0316 -0.9453
   77MOL   H26824740   3.530   3.575   5.966  2.0662  1.4699  0.3386
   77MOL   H26924741   3.593   3.438   6.163  2.6180  2.5319  1.9370
   77MOL   H27024742   3.783   3.310   6.172  1.1563  0.4353  0.3345
   77MOL   H27124743   3.923   3.275   5.971  0.2235  0.7010 -2.7357
   77MOL   H27224744   3.754   3.292   5.634 -0.0791  1.0410 -0.9311
   77MOL   H27324745   3.879   3.188   5.670  0.9571 -1.4233 -2.0745
   77MOL   C27424746   3.905   3.302   5.478  0.2842  0.7030 -0.2127
   77MOL   C27524747   3.863   3.438   5.412 -0.6420  0.1240 -0.3337
   77MOL   C27624748   3.962   3.519   5.348 -0.1722 -0.4594 -0.0205
   77MOL  Cl27724749   4.137   3.484   5.346 -0.2323  0.0500 -0.2290
   77MOL   C27824750   3.926   3.644   5.290  0.3594  0.7105 -0.4872
   77MOL   C27924751   3.793   3.677   5.282 -0.0445  0.3040  0.0301
   77MOL   C28024752   3.689   3.596   5.335 -0.5174 -0.0312 -0.2382
   77MOL   C28124753   3.728   3.482   5.407  0.9038 -0.3950 -0.2656
   77MOL   C28224754   3.858   3.189   5.391 -0.1450 -0.6555 -0.1418
   77MOL   H28324755   4.014   3.310   5.476  0.3247  0.1640 -0.2502
   77MOL   H28424756   4.000   3.716   5.260 -0.0467  0.7873 -1.3419
   77MOL   H28524757   3.766   3.776   5.249 -2.0048 -0.0527  0.4542
   77MOL   H28624758   3.584   3.620   5.329  0.0398  2.5877 -0.1299
   77MOL   H28724759   3.656   3.417   5.456  0.7505 -0.3135 -0.3801
   77MOL   H28824760   3.873   3.207   5.285  0.2207 -2.6751 -0.4527
   77MOL   H28924761   3.751   3.174   5.410 -0.0543 -1.8030 -0.4606
   77MOL   C29024762   3.927   3.057   5.420 -0.1323  0.1174 -0.2334
   77MOL   C29124763   4.075   3.073   5.404 -0.6375 -0.0600 -0.7577
   77MOL   C29224764   4.163   3.067   5.515  0.2367  0.4120 -0.0395
   77MOL  Cl29324765   4.110   3.035   5.676 -0.1730 -0.2505 -0.0732
   77MOL   C29424766   4.298   3.081   5.503  0.3274  0.0452  1.1512
   77MOL   C29524767   4.352   3.127   5.379 -0.3715  0.5566 -0.2131
   77MOL   C29624768   4.271   3.127   5.264  0.1464  0.5134  0.3694
   77MOL   C29724769   4.133   3.102   5.277 -0.1597  0.3058 -0.1264
   77MOL   C29824770   3.871   2.946   5.324  0.2573 -0.2639 -0.9809
   77MOL   H29924771   3.898   3.036   5.523 -1.3898 -0.5880 -0.7258
   77MOL   H30024772   4.355   3.072   5.595 -0.0617 -0.9008  1.3030
   77MOL   H30124773   4.458   3.145   5.373  0.0484 -1.9720 -1.3155
   77MOL   H30224774   4.321   3.146   5.171  2.3247  2.1564  1.8342
   77MOL   H30324775   4.072   3.102   5.189 -1.0158 -2.8824  0.4019
   77MOL   H30424776   3.926   2.943   5.230 -0.1852  2.6704 -1.3952
   77MOL   H30524777   3.771   2.979   5.296 -0.5195 -1.5201  0.2055
   77MOL   C30624778   3.856   2.814   5.395  0.2334 -0.9364 -0.6633
   77MOL   C30724779   3.984   2.767   5.469  0.2592 -0.0478  0.4397
   77MOL   C30824780   3.980   2.717   5.606 -0.3470  0.3945  0.1029
   77MOL  Cl30924781   3.829   2.717   5.695 -0.1320  0.5193 -0.1520
   77MOL   C31024782   4.099   2.668   5.665 -0.1409  0.5864  0.3235
   77MOL   C31124783   4.219   2.674   5.591 -0.7147 -0.2857  0.2491
   77MOL   C31224784   4.217   2.719   5.462 -0.3297 -0.1882 -0.6139
   77MOL   C31324785   4.099   2.756   5.395 -0.4175  0.5332  0.5278
   77MOL   C31424786   3.796   2.710   5.300  0.3609  0.0110  0.2590
   77MOL   H31524787   3.796   2.851   5.478  1.7568  0.3605 -0.1300
   77MOL   H31624788   4.095   2.641   5.769  0.0487 -0.2631  0.1112
   77MOL   H31724789   4.302   2.629   5.644 -2.5552 -2.4933  1.3664
   77MOL   H31824790   4.302   2.717   5.395 -0.1939 -1.4268 -0.4200
   77MOL   H31924791   4.103   2.776   5.290  0.7302 -0.1217  0.4289
   77MOL   H32024792   3.870   2.684   5.223  1.7831  2.6307  0.6954
   77MOL   H32124793   3.700   2.745   5.263  0.3012 -0.4771 -0.0621
   77MOL   H32224794   3.769   2.622   5.358  1.4678  0.2294  1.1338
   78MOL     C124795   2.394   6.527   4.838  0.0030 -0.6895  0.5494
   78MOL     C224796   2.394   6.640   4.946 -0.0009 -0.8458 -0.2976
   78MOL     C324797   2.495   6.645   5.049  0.2192  0.6045 -0.4294
   78MOL    Cl424798   2.596   6.504   5.067  0.0016  0.3387  0.2545
   78MOL     C524799   2.500   6.747   5.148 -0.4115 -0.0987  0.2897
   78MOL     C624800   2.397   6.842   5.145  0.2649 -0.7269  0.4583
   78MOL     C724801   2.301   6.838   5.042 -0.2558 -0.0311  0.1223
   78MOL     C824802   2.293   6.737   4.942 -0.5522 -0.3074 -0.3486
   78MOL     C924803   2.519   6.528   4.747 -0.6905 -0.3576  0.9016
   78MOL    H1024804   2.371   6.433   4.888  1.1064 -0.6842  1.0818
   78MOL    H1124805   2.568   6.737   5.231  2.1020 -0.5295 -1.7688
   78MOL    H1224806   2.400   6.923   5.217 -1.7128  0.5910 -0.8842
   78MOL    H1324807   2.221   6.911   5.044 -0.9608 -0.8046  0.3888
   78MOL    H1424808   2.215   6.732   4.867  0.3202 -0.7575 -1.2402
   78MOL    H1524809   2.602   6.486   4.804  0.9676  0.3579 -0.9144
   78MOL    H1624810   2.529   6.631   4.713 -0.3594 -0.3937  0.8889
   78MOL    H1724811   2.309   6.550   4.774  0.4912  0.9849  0.4995
   78MOL    C1824812   2.522   6.431   4.618  0.1358 -0.2591 -0.0856
   78MOL    C1924813   2.443   6.298   4.626 -0.3416 -0.5848  0.4169
   78MOL    C2024814   2.376   6.246   4.514 -0.7592 -0.0931  0.6161
   78MOL   Cl2124815   2.375   6.322   4.354  0.2738 -0.0029 -0.0942
   78MOL    C2224816   2.307   6.122   4.522 -0.1345 -0.4434 -0.8587
   78MOL    C2324817   2.304   6.049   4.646  0.1320 -0.2757  0.1199
   78MOL    C2424818   2.380   6.096   4.752  0.7000 -0.3576 -0.6154
   78MOL    C2524819   2.447   6.223   4.743  0.3844  0.1918 -0.0561
   78MOL    C2624820   2.665   6.411   4.580 -0.1031  0.4615 -0.2546
   78MOL    H2724821   2.474   6.493   4.542  2.1859  1.5228  0.0195
   78MOL    H2824822   2.255   6.097   4.431  2.9582  0.7021 -3.0126
   78MOL    H2924823   2.258   5.951   4.644 -0.4462 -0.0029 -0.0788
   78MOL    H3024824   2.388   6.048   4.849  0.2567 -0.2491 -0.5260
   78MOL    H3124825   2.506   6.260   4.826 -2.1824  2.8580  0.6988
   78MOL    H3224826   2.656   6.368   4.481 -3.4267 -0.2064  0.2888
   78MOL    H3324827   2.708   6.334   4.644  1.7779  0.2065 -1.7817
   78MOL    C3424828   2.755   6.528   4.562  0.3176  0.0706  0.0318
   78MOL    C3524829   2.698   6.643   4.474 -0.2496  0.7214  0.4244
   78MOL    C3624830   2.709   6.780   4.518  0.5366 -0.0563 -0.3181
   78MOL   Cl3724831   2.766   6.825   4.673 -0.3724 -0.0271 -0.2980
   78MOL    C3824832   2.677   6.885   4.427  0.2925 -0.3548 -0.4496
   78MOL    C3924833   2.628   6.855   4.303 -0.5612 -0.1042  0.0559
   78MOL    C4024834   2.603   6.720   4.264 -0.1622  0.1217  0.0867
   78MOL    C4124835   2.636   6.609   4.349  0.1555 -0.2127 -0.1564
   78MOL    C4224836   2.896   6.489   4.506 -0.0605  0.3130 -0.3693
   78MOL    H4324837   2.782   6.574   4.658 -0.0172  2.7165 -1.1103
   78MOL    H4424838   2.703   6.989   4.443 -1.0875 -0.0956  0.1753
   78MOL    H4524839   2.592   6.939   4.244  2.1488  0.9394 -0.2136
   78MOL    H4624840   2.557   6.699   4.169  0.2245 -0.1391 -0.0459
   78MOL    H4724841   2.623   6.508   4.314  0.0572  0.4564 -2.1223
   78MOL    H4824842   2.969   6.570   4.502  1.0691 -0.7434 -1.4491
   78MOL    H4924843   2.880   6.453   4.405 -0.3188 -1.1616  0.1880
   78MOL    C5024844   2.983   6.395   4.589 -0.7694  0.1588  0.2732
   78MOL    C5124845   3.078   6.461   4.684 -0.3256 -0.6978  0.1134
   78MOL    C5224846   3.052   6.482   4.820 -0.3229  0.4611 -0.4745
   78MOL   Cl5324847   2.916   6.414   4.902 -0.2098  0.1817  0.2330
   78MOL    C5424848   3.137   6.559   4.906 -0.0461 -0.7053 -0.9023
   78MOL    C5524849   3.255   6.608   4.853  0.0959  0.3350  0.0822
   78MOL    C5624850   3.292   6.572   4.723 -0.2918 -0.2480 -0.8239
   78MOL    C5724851   3.200   6.515   4.635 -0.1706 -0.4075 -0.2409
   78MOL    C5824852   3.051   6.290   4.511  0.2480 -0.5278 -0.0424
   78MOL    H5924853   2.910   6.351   4.657 -2.0942 -0.4523 -1.5173
   78MOL    H6024854   3.110   6.586   5.007 -0.4559 -0.5266 -1.0605
   78MOL    H6124855   3.320   6.677   4.905 -0.0670  0.1086  0.5840
   78MOL    H6224856   3.387   6.608   4.687  1.8450 -2.8663  1.9428
   78MOL    H6324857   3.231   6.512   4.531  1.7463 -1.8907  0.3252
   78MOL    H6424858   3.106   6.227   4.581 -0.9211 -0.3807  1.0221
   78MOL    H6524859   3.123   6.341   4.447  2.9804 -1.1424  2.4667
   78MOL    C6624860   2.970   6.189   4.432 -0.6135  0.0710 -0.0880
   78MOL    C6724861   2.857   6.118   4.510 -0.8299  0.5732 -0.2684
   78MOL    C6824862   2.731   6.066   4.455  0.3366  0.2213 -1.2143
   78MOL   Cl6924863   2.694   6.081   4.286  0.0658 -0.2180 -0.2977
   78MOL    C7024864   2.642   5.996   4.537 -0.6072  0.6797 -0.5721
   78MOL    C7124865   2.672   5.978   4.670  0.2673 -0.4496 -0.8956
   78MOL    C7224866   2.786   6.043   4.726 -0.6016  0.9800 -0.2577
   78MOL    C7324867   2.879   6.103   4.649  0.0875 -0.5230  0.1185
   78MOL    C7424868   3.056   6.077   4.364 -0.2397 -0.5573 -0.1906
   78MOL    H7524869   2.931   6.246   4.348 -0.8236  1.7731  1.1305
   78MOL    H7624870   2.555   5.949   4.494  0.1392 -0.4587 -0.8718
   78MOL    H7724871   2.606   5.921   4.733  1.9300  1.2421  2.5078
   78MOL    H7824872   2.799   6.029   4.832 -1.7188  2.5181  0.1028
   78MOL    H7924873   2.960   6.146   4.707  0.4410  0.8861 -1.3581
   78MOL    H8024874   2.982   6.015   4.313 -0.4587  0.7268 -1.4581
   78MOL    H8124875   3.097   5.997   4.427 -1.9500  0.1428  1.8779
   78MOL    C8224876   3.165   6.118   4.263 -0.0919  0.1075 -1.0519
   78MOL    C8324877   3.103   6.183   4.134 -0.0577 -0.1365 -0.1479
   78MOL    C8424878   3.112   6.320   4.103  1.0625  0.5815 -0.0445
   78MOL   Cl8524879   3.187   6.434   4.208 -0.1723  0.0254  0.0645
   78MOL    C8624880   3.050   6.372   3.986 -0.0945  0.3998  0.2517
   78MOL    C8724881   2.969   6.279   3.904 -0.6810 -0.6347 -0.4012
   78MOL    C8824882   2.956   6.145   3.938  0.2886  0.4616 -0.0733
   78MOL    C8924883   3.028   6.098   4.045  0.7691 -0.2889  0.0096
   78MOL    C9024884   3.278   6.019   4.226  1.2710  0.8326  0.3814
   78MOL    H9124885   3.215   6.199   4.316 -2.0994  0.4153  0.4527
   78MOL    H9224886   3.055   6.477   3.964 -4.7771  0.2871 -1.9208
   78MOL    H9324887   2.928   6.318   3.812 -1.5494 -1.1636 -0.2407
   78MOL    H9424888   2.897   6.077   3.878 -0.1678  0.2457  0.6167
   78MOL    H9524889   3.020   5.995   4.075 -0.5113 -0.5954 -1.3021
   78MOL    H9624890   3.343   6.058   4.148  3.1199 -2.6932  0.0601
   78MOL    H9724891   3.236   5.933   4.172  0.9479  1.8301 -0.9848
   78MOL    C9824892   3.371   5.971   4.338  0.2039  0.6102  0.2335
   78MOL    C9924893   3.419   6.091   4.432 -0.6604 -0.3481 -0.0762
   78MOL   C10024894   3.372   6.106   4.566  0.5193 -0.3397  0.1849
   78MOL  Cl10124895   3.259   5.999   4.638  0.2418 -0.3637  0.4764
   78MOL   C10224896   3.421   6.214   4.642  0.7297  0.4758 -0.3776
   78MOL   C10324897   3.527   6.295   4.599 -0.1723 -1.0155  0.0656
   78MOL   C10424898   3.577   6.278   4.469  0.1382 -0.2688 -0.5333
   78MOL   C10524899   3.521   6.178   4.386  0.3754  0.1541 -0.6704
   78MOL   C10624900   3.488   5.886   4.278 -0.6986 -0.0918 -0.3446
   78MOL   H10724901   3.331   5.889   4.397 -0.1030  0.4862 -0.1448
   78MOL   H10824902   3.376   6.234   4.738  1.3701 -1.1448  0.2744
   78MOL   H10924903   3.584   6.355   4.669  0.3525  1.1884 -2.1962
   78MOL   H11024904   3.662   6.338   4.440  0.7049 -2.4158 -3.5136
   78MOL   H11124905   3.557   6.182   4.285  2.2021  1.6933  0.0022
   78MOL   H11224906   3.556   5.882   4.362 -1.2924  2.3941  0.3182
   78MOL   H11324907   3.541   5.947   4.205  1.1902 -1.7164 -0.3383
   78MOL   C11424908   3.461   5.753   4.203  0.0777  0.8202  0.1994
   78MOL   C11524909   3.400   5.650   4.295 -0.0035 -0.6546  0.1408
   78MOL   C11624910   3.270   5.590   4.262  0.1536  0.2017  0.4112
   78MOL  Cl11724911   3.180   5.642   4.120  0.1866  0.5291  0.1341
   78MOL   C11824912   3.222   5.496   4.349  0.6433  0.4766 -0.1296
   78MOL   C11924913   3.286   5.476   4.471  0.0151  0.6256 -0.3727
   78MOL   C12024914   3.410   5.535   4.499 -0.2274 -0.2640  0.0711
   78MOL   C12124915   3.469   5.623   4.412  0.7310 -0.4715 -0.5908
   78MOL   C12224916   3.588   5.698   4.135  0.8566  0.4204 -0.6143
   78MOL   H12324917   3.384   5.782   4.131 -0.3452 -1.1443 -0.1602
   78MOL   H12424918   3.125   5.458   4.320  1.3242 -0.7612 -0.8253
   78MOL   H12524919   3.238   5.419   4.549  0.8099  0.0937 -0.2685
   78MOL   H12624920   3.460   5.511   4.592 -0.8658  0.1422  0.5120
   78MOL   H12724921   3.563   5.672   4.434  1.3602 -1.1746 -1.6198
   78MOL   H12824922   3.588   5.589   4.124  0.5618  0.4147 -0.5670
   78MOL   H12924923   3.672   5.737   4.192  1.3082  1.0000 -1.6542
   78MOL   C13024924   3.602   5.745   3.990  0.4375  0.7649 -0.3361
   78MOL   C13124925   3.495   5.686   3.903  0.2002  0.2920 -0.2046
   78MOL   C13224926   3.396   5.761   3.837 -0.0731  0.0821  0.3642
   78MOL  Cl13324927   3.390   5.936   3.843  0.3730 -0.1242 -0.1265
   78MOL   C13424928   3.289   5.705   3.764  0.1420  0.1212  0.1089
   78MOL   C13524929   3.289   5.567   3.742 -0.9891  0.4965 -0.4169
   78MOL   C13624930   3.382   5.486   3.812  0.4801  0.2099  0.5995
   78MOL   C13724931   3.490   5.543   3.888 -0.1618 -0.7747 -0.4075
   78MOL   C13824932   3.740   5.710   3.937  0.2503 -0.1797  0.1806
   78MOL   H13924933   3.592   5.853   3.986 -2.7893  0.4826 -0.5660
   78MOL   H14024934   3.209   5.761   3.718  0.9856  1.3209  0.0932
   78MOL   H14124935   3.204   5.523   3.692  0.3301 -0.1018 -2.1876
   78MOL   H14224936   3.378   5.378   3.808  2.4131  0.1424 -0.9624
   78MOL   H14324937   3.558   5.470   3.928 -1.1739 -0.9475  1.0708
   78MOL   H14424938   3.751   5.728   3.830 -1.0720 -0.4858 -0.0112
   78MOL   H14524939   3.757   5.604   3.958  1.1415  0.1813  1.3191
   78MOL   C14624940   3.854   5.797   4.001 -0.4115  0.4156  0.3485
   78MOL   C14724941   3.847   5.944   3.958  0.5460 -0.1622 -0.2290
   78MOL   C14824942   3.823   6.048   4.054 -0.0088  0.0587 -0.0296
   78MOL  Cl14924943   3.785   6.025   4.220  0.1519 -0.1091 -0.1047
   78MOL   C15024944   3.827   6.180   4.006 -0.3058 -0.4740  0.0502
   78MOL   C15124945   3.850   6.212   3.874 -0.5415  0.5557  0.2061
   78MOL   C15224946   3.887   6.108   3.785  0.6839 -0.0053 -0.4206
   78MOL   C15324947   3.877   5.974   3.822 -1.0455  0.1020 -0.0566
   78MOL   C15424948   3.993   5.744   3.979 -0.4098 -0.7046 -0.2410
   78MOL   H15524949   3.847   5.794   4.110  0.3268  1.5186  0.4385
   78MOL   H15624950   3.816   6.259   4.078  2.0641 -0.8316  0.8344
   78MOL   H15724951   3.864   6.314   3.842 -0.4656  0.4743 -0.0231
   78MOL   H15824952   3.919   6.127   3.684 -1.6151  0.1157 -1.1666
   78MOL   H15924953   3.904   5.900   3.748  1.2378  1.7645 -0.9358
   78MOL   H16024954   4.011   5.722   3.874 -0.8226 -0.7955 -0.2929
   78MOL   H16124955   3.987   5.640   4.011  0.6908 -0.2693  1.4510
   78MOL   C16224956   4.115   5.811   4.047 -0.4195  0.1928  0.3054
   78MOL   C16324957   4.190   5.909   3.951 -1.0470  0.0335 -0.2623
   78MOL   C16424958   4.208   6.044   3.991 -0.1187 -0.2658 -0.8152
   78MOL  Cl16524959   4.169   6.094   4.154  0.0702  0.4153  0.3011
   78MOL   C16624960   4.265   6.140   3.908 -0.5617 -0.2800 -0.3622
   78MOL   C16724961   4.300   6.102   3.780 -0.3683  0.6876 -0.5632
   78MOL   C16824962   4.285   5.966   3.734  1.0771 -0.0808 -0.1678
   78MOL   C16924963   4.238   5.867   3.826  0.0924  0.2473  0.0658
   78MOL   C17024964   4.206   5.712   4.113 -0.3146  0.5521  0.2785
   78MOL   H17124965   4.068   5.872   4.124  1.5182 -0.2289  1.8286
   78MOL   H17224966   4.272   6.242   3.943  0.5734 -0.7519  0.8651
   78MOL   H17324967   4.353   6.172   3.717 -1.1831  2.4237  0.6466
   78MOL   H17424968   4.292   5.939   3.630 -2.1632 -0.3190 -0.3693
   78MOL   H17524969   4.216   5.770   3.784 -2.4635  1.7868 -2.4031
   78MOL   H17624970   4.306   5.753   4.124  0.1824 -0.8096  0.8448
   78MOL   H17724971   4.207   5.624   4.049  0.8072  2.4522 -2.4368
   78MOL   C17824972   4.159   5.660   4.254 -0.7325  0.3957 -0.1243
   78MOL   C17924973   4.176   5.771   4.358  0.5888 -0.3849 -0.8842
   78MOL   C18024974   4.067   5.838   4.423  0.4876 -0.2429  0.9605
   78MOL  Cl18124975   3.908   5.798   4.399  0.1218 -0.6678 -0.3178
   78MOL   C18224976   4.094   5.942   4.517 -0.3074  0.1464 -0.0431
   78MOL   C18324977   4.226   5.964   4.552 -0.0857 -0.2823  0.6131
   78MOL   C18424978   4.339   5.894   4.494 -0.2290  0.3267 -0.0960
   78MOL   C18524979   4.313   5.793   4.400  0.0748  0.1832  0.4307
   78MOL   C18624980   4.226   5.525   4.288  1.0085  0.3693 -0.4794
   78MOL   H18724981   4.051   5.654   4.248 -1.0665  3.9919  1.0790
   78MOL   H18824982   4.014   5.991   4.569 -2.7261 -1.7268 -1.8833
   78MOL   H18924983   4.247   6.043   4.623 -1.8835  0.9162 -0.1491
   78MOL   H19024984   4.442   5.922   4.511 -0.4323  0.1323  1.5639
   78MOL   H19124985   4.395   5.745   4.348 -0.4846  1.7145 -1.9951
   78MOL   H19224986   4.226   5.495   4.392 -1.0541  0.3813 -0.4557
   78MOL   H19324987   4.326   5.530   4.245  2.6094 -2.2901  2.7689
   78MOL   C19424988   4.153   5.404   4.217 -0.0909 -0.2119 -0.4504
   78MOL   C19524989   4.010   5.381   4.272  0.2635  0.6046  0.1635
   78MOL   C19624990   3.900   5.356   4.184 -0.0290  0.8574  0.0279
   78MOL  Cl19724991   3.914   5.348   4.008  0.2945 -0.1580 -0.3019
   78MOL   C19824992   3.772   5.327   4.245 -0.7698 -0.8878  0.4530
   78MOL   C19924993   3.748   5.329   4.385  0.1676  0.7955  0.9950
   78MOL   C20024994   3.856   5.366   4.460  0.2384  0.2655  0.1260
   78MOL   C20124995   3.984   5.386   4.414  0.1540 -0.5816 -0.6303
   78MOL   C20224996   4.238   5.273   4.228  0.0439  0.1972  0.8336
   78MOL   H20324997   4.147   5.434   4.113  1.8827  0.3935 -0.4133
   78MOL   H20424998   3.694   5.308   4.173 -0.7038  0.2010  0.0848
   78MOL   H20524999   3.650   5.314   4.429 -0.1167 -0.6229 -0.0852
   78MOL   H20625000   3.847   5.390   4.565  0.3835  0.5500  0.0751
   78MOL   H20725001   4.058   5.404   4.491 -0.3262 -1.0363 -0.0513
   78MOL   H20825002   4.171   5.187   4.219  1.8428 -1.0912 -0.8527
   78MOL   H20925003   4.278   5.261   4.328 -0.3039  0.2472  0.9792
   78MOL   C21025004   4.344   5.270   4.108 -0.1654  0.8097 -0.4300
   78MOL   C21125005   4.274   5.257   3.969  0.0585 -0.5678 -0.1236
   78MOL   C21225006   4.263   5.362   3.875 -0.1723  0.3828 -0.0429
   78MOL  Cl21325007   4.375   5.498   3.875  0.3821 -0.2473  0.1028
   78MOL   C21425008   4.187   5.346   3.761 -1.0608  0.5143 -0.0731
   78MOL   C21525009   4.111   5.231   3.737  0.6005 -0.0309 -0.4778
   78MOL   C21625010   4.111   5.120   3.832 -0.0531  0.4489  0.0161
   78MOL   C21725011   4.187   5.140   3.956  0.2738 -0.0724 -0.5376
   78MOL   C21825012   4.452   5.160   4.127 -0.7519  0.3254  0.7550
   78MOL   H21925013   4.388   5.370   4.113 -0.7022  1.0119  0.4160
   78MOL   H22025014   4.185   5.428   3.690  0.4925  0.6006 -0.0283
   78MOL   H22125015   4.042   5.232   3.654  0.2221  1.4345 -0.1564
   78MOL   H22225016   4.042   5.040   3.810 -0.2272  0.5384  0.2333
   78MOL   H22325017   4.191   5.061   4.029 -0.6547  0.2483 -0.1329
   78MOL   H22425018   4.460   5.100   4.036  0.2524 -1.0272  1.7081
   78MOL   H22525019   4.416   5.089   4.201 -3.0441 -0.1607 -0.7628
   78MOL   C22625020   4.586   5.215   4.182 -0.4523  0.5730  0.3880
   78MOL   C22725021   4.574   5.269   4.322 -0.2287  0.0828 -0.4496
   78MOL   C22825022   4.593   5.182   4.435 -0.3344 -0.0641  0.2620
   78MOL  Cl22925023   4.585   5.014   4.407 -0.0802  0.1253 -0.3028
   78MOL   C23025024   4.596   5.230   4.567  0.1607  0.0076 -0.0667
   78MOL   C23125025   4.569   5.367   4.589 -0.5728 -0.1793  0.5452
   78MOL   C23225026   4.542   5.454   4.478 -0.0213  0.3612  0.5355
   78MOL   C23325027   4.556   5.411   4.345 -0.6873  0.1669  0.1745
   78MOL   C23425028   4.653   5.309   4.070  0.7165  0.1795  0.0596
   78MOL   H23525029   4.654   5.130   4.168 -0.7912  0.6230 -1.7489
   78MOL   H23625030   4.613   5.161   4.648  1.0950 -0.2664 -0.4897
   78MOL   H23725031   4.568   5.411   4.688  1.4530 -0.7701  0.8446
   78MOL   H23825032   4.521   5.559   4.494 -1.2582  0.1265  0.4326
   78MOL   H23925033   4.534   5.486   4.270 -1.4350 -0.7293 -0.5184
   78MOL   H24025034   4.590   5.397   4.056 -0.8082 -0.8229  0.5220
   78MOL   H24125035   4.659   5.251   3.978 -0.0862  0.3323 -0.0952
   78MOL   C24225036   4.797   5.367   4.110 -0.2987  0.3003  0.3533
   78MOL   C24325037   4.831   5.496   4.044 -0.3302 -0.7474 -0.3584
   78MOL   C24425038   4.836   5.615   4.123  0.2492  0.0458  0.0931
   78MOL  Cl24525039   4.808   5.616   4.296 -0.1302 -0.2552 -0.1153
   78MOL   C24625040   4.883   5.730   4.055 -0.2150 -0.5068  1.0064
   78MOL   C24725041   4.911   5.735   3.918  0.2218 -0.3099 -0.2875
   78MOL   C24825042   4.909   5.619   3.844 -0.1200 -0.3110 -0.4131
   78MOL   C24925043   4.869   5.504   3.912 -0.8555  0.2325  0.6755
   78MOL   C25025044   4.906   5.256   4.086  0.0816 -0.2571  0.5926
   78MOL   H25125045   4.785   5.383   4.217 -0.2915  1.7888  0.1390
   78MOL   H25225046   4.884   5.823   4.109 -2.6888  0.4822 -0.6120
   78MOL   H25325047   4.930   5.825   3.862 -1.6124  0.3452  0.0928
   78MOL   H25425048   4.937   5.624   3.739  1.9806 -0.0695  0.1221
   78MOL   H25525049   4.867   5.414   3.852  4.3137  0.8485 -0.7056
   78MOL   H25625050   4.944   5.253   3.984  1.4563  1.3745  1.0280
   78MOL   H25725051   4.864   5.158   4.107 -1.1507  0.4084  1.2979
   78MOL   C25825052   5.027   5.263   4.177 -0.9848 -0.1382  0.4491
   78MOL   C25925053   5.135   5.166   4.117  0.4703  0.7457  0.0850
   78MOL   C26025054   5.220   5.203   4.006 -0.0520  0.1600 -0.8179
   78MOL  Cl26125055   5.213   5.360   3.944  0.2540 -0.1944  0.0238
   78MOL   C26225056   5.322   5.114   3.961  0.5309 -0.5718 -0.3892
   78MOL   C26325057   5.330   4.987   4.029  0.0613 -0.0871  0.2256
   78MOL   C26425058   5.242   4.948   4.129  0.2890 -0.4522  0.2287
   78MOL   C26525059   5.146   5.039   4.174  0.3645 -0.4579  0.2155
   78MOL   C26625060   4.991   5.248   4.329 -0.8572 -0.2241  0.5971
   78MOL   H26725061   5.070   5.364   4.180  2.2886 -1.4109 -0.9962
   78MOL   H26825062   5.378   5.132   3.871  0.7271  2.6122  0.3000
   78MOL   H26925063   5.406   4.915   4.000 -1.4087 -0.7401 -2.1737
   78MOL   H27025064   5.247   4.851   4.176  1.9538 -0.0972  0.8166
   78MOL   H27125065   5.074   5.011   4.250  1.0234 -0.5627  0.8160
   78MOL   H27225066   4.938   5.153   4.333  0.1581 -0.8565 -0.8354
   78MOL   H27325067   4.904   5.306   4.363 -0.9152  0.1730 -0.2214
   78MOL   C27425068   5.111   5.245   4.432 -0.1929  0.0851  0.1528
   78MOL   C27525069   5.076   5.155   4.551  0.0690  0.1600 -0.1339
   78MOL   C27625070   5.160   5.048   4.589  0.4907 -0.1233 -0.5321
   78MOL  Cl27725071   5.306   5.010   4.506 -0.0955  0.0732 -0.0847
   78MOL   C27825072   5.128   4.971   4.704  0.2609 -0.2540  0.0722
   78MOL   C27925073   5.012   5.003   4.777  0.3170 -0.2589  0.0737
   78MOL   C28025074   4.931   5.109   4.739  0.4428 -0.2694  0.4650
   78MOL   C28125075   4.962   5.182   4.627  0.8870 -0.2228  0.5824
   78MOL   C28225076   5.136   5.388   4.482  0.7484  0.9225  0.1695
   78MOL   H28325077   5.202   5.218   4.378 -0.2249  1.4872 -0.6486
   78MOL   H28425078   5.184   4.879   4.714 -3.7865 -2.8520  0.0619
   78MOL   H28525079   4.981   4.940   4.859  0.7537 -0.1443  0.3255
   78MOL   H28625080   4.841   5.120   4.798  0.0499  2.6837 -0.5776
   78MOL   H28725081   4.903   5.271   4.609 -0.9010 -1.4120  0.5043
   78MOL   H28825082   5.146   5.390   4.590 -1.2920  0.8350  0.3721
   78MOL   H28925083   5.045   5.443   4.463 -0.0098 -0.6921 -1.0525
   78MOL   C29025084   5.262   5.456   4.424  0.4262 -0.4350 -0.4043
   78MOL   C29125085   5.395   5.403   4.469  0.3656  0.0420  0.3245
   78MOL   C29225086   5.486   5.349   4.378  0.8573  0.7702 -0.3732
   78MOL  Cl29325087   5.461   5.361   4.209  0.1385  0.4163 -0.0634
   78MOL   C29425088   5.597   5.276   4.426  0.4851 -0.3400 -0.1583
   78MOL   C29525089   5.619   5.284   4.570 -0.1209 -0.2088 -0.1258
   78MOL   C29625090   5.532   5.340   4.662  0.2006 -0.5889 -0.0934
   78MOL   C29725091   5.417   5.396   4.610  1.0104 -0.3232 -0.1114
   78MOL   C29825092   5.248   5.606   4.454 -0.6522  0.0690 -0.2179
   78MOL   H29925093   5.259   5.442   4.316  2.5128  0.9783 -0.6751
   78MOL   H30025094   5.670   5.235   4.359 -0.1673 -1.2295 -0.3342
   78MOL   H30125095   5.705   5.240   4.617  1.2602  1.6408 -0.8813
   78MOL   H30225096   5.538   5.323   4.768 -1.9452 -0.7240  0.0273
   78MOL   H30325097   5.344   5.428   4.682 -0.1857 -0.2297 -1.3322
   78MOL   H30425098   5.283   5.634   4.553 -2.1865  1.2702  0.0003
   78MOL   H30525099   5.141   5.626   4.455 -0.3478  1.7841  0.1478
   78MOL   C30625100   5.323   5.703   4.353  0.0696  0.2643  0.0935
   78MOL   C30725101   5.376   5.833   4.417 -0.1278 -1.0705 -0.5824
   78MOL   C30825102   5.501   5.896   4.388 -0.1899  0.3810 -0.4628
   78MOL  Cl30925103   5.621   5.825   4.278 -0.0314  0.2952  0.5449
   78MOL   C31025104   5.531   6.025   4.436 -1.0203  0.5318  0.5467
   78MOL   C31125105   5.438   6.095   4.518 -1.0488 -0.2900 -0.1486
   78MOL   C31225106   5.320   6.024   4.553 -0.1081  1.1345  0.3897
   78MOL   C31325107   5.289   5.903   4.502 -0.0845 -0.2435  0.0148
   78MOL   C31425108   5.248   5.731   4.226 -0.2138 -0.0943  0.6152
   78MOL   H31525109   5.418   5.651   4.335 -0.5222 -0.7394 -0.1770
   78MOL   H31625110   5.626   6.073   4.416 -0.6564 -0.7006 -0.8739
   78MOL   H31725111   5.458   6.194   4.555 -0.0399 -0.4854 -0.1367
   78MOL   H31825112   5.249   6.068   4.622 -1.0291 -2.3322  1.7236
   78MOL   H31925113   5.189   5.865   4.519 -0.5709  0.3024 -1.5455
   78MOL   H32025114   5.226   5.636   4.178 -0.7878 -0.3930  1.4460
   78MOL   H32125115   5.305   5.796   4.159  0.1501 -2.1702 -1.1166
   78MOL   H32225116   5.157   5.786   4.251 -1.2779 -2.0166  1.0430
   79MOL     C125117   5.746   5.505   6.030 -0.4638 -0.7357  0.7733
   79MOL     C225118   5.755   5.611   5.919 -0.1835 -0.2973  0.5591
   79MOL     C325119   5.678   5.728   5.908 -0.0507 -0.3873 -0.8881
   79MOL    Cl425120   5.543   5.739   6.017  0.5096  0.0075  0.1366
   79MOL     C525121   5.701   5.824   5.812 -0.0702  0.2358 -0.4665
   79MOL     C625122   5.796   5.804   5.710  0.0697  0.0014  0.0497
   79MOL     C725123   5.875   5.690   5.716  0.5088 -0.0365  0.4747
   79MOL     C825124   5.856   5.592   5.824 -0.1563 -0.7096  0.1982
   79MOL     C925125   5.825   5.546   6.156  0.5931 -0.1611  0.1927
   79MOL    H1025126   5.640   5.490   6.053 -0.2853 -0.0174  2.1074
   79MOL    H1125127   5.641   5.914   5.817 -1.9927 -1.0879  1.4224
   79MOL    H1225128   5.804   5.870   5.625  2.7177  0.0519  0.3051
   79MOL    H1325129   5.952   5.674   5.642 -2.3151 -1.0319 -2.3494
   79MOL    H1425130   5.920   5.504   5.819  3.2040  1.5627  1.3035
   79MOL    H1525131   5.797   5.487   6.243 -2.1115 -0.5780 -0.9310
   79MOL    H1625132   5.789   5.648   6.174  1.3985  0.1942 -0.1606
   79MOL    H1725133   5.767   5.411   5.980  2.5467 -0.6540  1.8080
   79MOL    C1825134   5.982   5.547   6.149 -0.1534  0.0223  0.1016
   79MOL    C1925135   6.042   5.411   6.107 -0.0567 -0.3505 -0.3262
   79MOL    C2025136   6.127   5.395   5.996 -1.2860  0.1445 -0.1624
   79MOL   Cl2125137   6.178   5.514   5.891  0.4930 -0.3470  0.1427
   79MOL    C2225138   6.185   5.264   5.969  0.9596 -0.0841 -0.0352
   79MOL    C2325139   6.145   5.151   6.043  0.0280 -0.4480  0.2206
   79MOL    C2425140   6.057   5.166   6.153 -0.0449 -0.7241 -1.1452
   79MOL    C2525141   6.015   5.296   6.187 -0.2494 -0.5390 -0.1358
   79MOL    C2625142   6.049   5.601   6.277  0.2193  0.2098  0.2194
   79MOL    H2725143   6.007   5.627   6.080 -0.1518  1.7284  2.0302
   79MOL    H2825144   6.240   5.253   5.876  0.1707  3.4600 -0.9898
   79MOL    H2925145   6.179   5.050   6.022 -1.4455 -1.3755  2.1702
   79MOL    H3025146   6.029   5.078   6.209  3.7186 -1.2190  0.1163
   79MOL    H3125147   5.942   5.290   6.266  0.8628 -3.3645  0.7187
   79MOL    H3225148   6.152   5.568   6.261 -0.1003 -0.6415 -0.1186
   79MOL    H3325149   6.016   5.540   6.362 -1.4734  1.4138  0.4478
   79MOL    C3425150   6.040   5.755   6.294  0.3574  0.5114 -0.8039
   79MOL    C3525151   6.108   5.827   6.175 -0.1578  0.3637 -0.4083
   79MOL    C3625152   6.036   5.915   6.088  0.1822 -0.4112 -0.2239
   79MOL   Cl3725153   5.877   5.974   6.131  0.1455 -0.0997  0.3387
   79MOL    C3825154   6.101   5.975   5.982 -0.7679 -0.7978  0.7429
   79MOL    C3925155   6.232   5.945   5.959 -0.5010  0.4895  0.0414
   79MOL    C4025156   6.313   5.864   6.040 -0.1211 -0.7479 -1.1413
   79MOL    C4125157   6.242   5.796   6.142 -0.3707 -0.1240  0.5941
   79MOL    C4225158   6.095   5.792   6.437  0.4605 -0.2668 -0.4279
   79MOL    H4325159   5.937   5.790   6.295  0.1024 -0.2513 -0.7846
   79MOL    H4425160   6.043   6.045   5.924 -0.9660  0.3392  2.2645
   79MOL    H4525161   6.269   5.989   5.868  0.0229 -2.2789 -1.1224
   79MOL    H4625162   6.417   5.852   6.013 -0.3621 -1.3211 -1.8229
   79MOL    H4725163   6.297   5.730   6.208  0.7967 -0.8333 -1.0448
   79MOL    H4825164   6.103   5.900   6.445  0.9308 -0.2228 -1.4063
   79MOL    H4925165   6.198   5.758   6.448  0.1183 -1.1234  0.1886
   79MOL    C5025166   6.000   5.752   6.556  0.5402  0.4084  0.1060
   79MOL    C5125167   5.865   5.833   6.548  0.1016  0.8008  0.6219
   79MOL    C5225168   5.745   5.769   6.579 -0.2648  0.6060 -0.9618
   79MOL   Cl5325169   5.728   5.602   6.600  0.1697 -0.0654 -0.1519
   79MOL    C5425170   5.626   5.842   6.591 -0.1423 -0.5843  0.5594
   79MOL    C5525171   5.627   5.981   6.569  1.0951 -0.6805  0.0930
   79MOL    C5625172   5.741   6.046   6.529 -0.5862  0.0954  0.2020
   79MOL    C5725173   5.864   5.976   6.518 -0.6057  0.2887 -0.5324
   79MOL    C5825174   6.048   5.773   6.703 -0.7983  0.4038  0.3495
   79MOL    H5925175   5.985   5.645   6.550 -1.0573  0.6043  0.3763
   79MOL    H6025176   5.533   5.787   6.599 -1.3303  0.8816 -2.3209
   79MOL    H6125177   5.540   6.041   6.593  0.2316 -2.5642  1.7859
   79MOL    H6225178   5.746   6.151   6.505  1.0211 -0.2036 -0.8459
   79MOL    H6325179   5.959   6.028   6.511  0.6242 -1.3413  3.0535
   79MOL    H6425180   5.973   5.746   6.778  1.2623 -1.4937  1.7679
   79MOL    H6525181   6.057   5.881   6.716 -0.8370 -0.0135  4.3555
   79MOL    C6625182   6.177   5.697   6.734 -0.2133 -0.6259  0.0504
   79MOL    C6725183   6.156   5.543   6.710  0.1262 -0.6194 -0.4320
   79MOL    C6825184   6.230   5.469   6.613 -0.5101 -0.4190  0.6258
   79MOL   Cl6925185   6.364   5.544   6.533  0.1812  0.4304  0.4860
   79MOL    C7025186   6.210   5.339   6.586 -0.4951 -0.2210  0.8846
   79MOL    C7125187   6.109   5.265   6.647  0.3881 -0.4433 -0.0731
   79MOL    C7225188   6.030   5.329   6.743 -1.1770  0.1053  0.1193
   79MOL    C7325189   6.053   5.469   6.767 -0.2396  0.1277  0.6674
   79MOL    C7425190   6.230   5.710   6.881 -0.0873  0.0674 -0.2813
   79MOL    H7525191   6.260   5.726   6.670  1.0170  0.1716  1.9389
   79MOL    H7625192   6.271   5.285   6.515 -1.7359 -1.5078  0.7709
   79MOL    H7725193   6.111   5.157   6.638  1.4725 -0.5518  1.2683
   79MOL    H7825194   5.954   5.268   6.789 -1.8593  0.8079 -0.0671
   79MOL    H7925195   5.977   5.508   6.833  1.1188  1.7042  1.3359
   79MOL    H8025196   6.323   5.653   6.882 -0.7071 -0.9656 -0.3553
   79MOL    H8125197   6.163   5.661   6.952 -2.5054  2.2953 -0.9534
   79MOL    C8225198   6.251   5.847   6.929 -0.5072  0.0552 -0.7569
   79MOL    C8325199   6.342   5.929   6.829 -0.4155  0.0702 -0.0075
   79MOL    C8425200   6.303   6.047   6.766  0.0470  0.3449  0.2301
   79MOL   Cl8525201   6.146   6.120   6.796 -0.2118 -0.0623 -0.2746
   79MOL    C8625202   6.389   6.103   6.665 -0.2637 -0.0010 -0.3468
   79MOL    C8725203   6.510   6.031   6.626 -0.5567 -0.0949 -0.0098
   79MOL    C8825204   6.552   5.919   6.699  0.2503  0.3367 -0.1459
   79MOL    C8925205   6.462   5.868   6.791  0.2296  0.1212 -0.0133
   79MOL    C9025206   6.280   5.861   7.080  0.4879  0.6326 -0.6015
   79MOL    H9125207   6.150   5.888   6.919 -0.8506 -0.4775  0.4769
   79MOL    H9225208   6.353   6.186   6.606  0.1045  0.0046 -0.5643
   79MOL    H9325209   6.574   6.064   6.545 -1.2526  0.5487 -0.3013
   79MOL    H9425210   6.647   5.869   6.681 -0.1999 -0.8450  0.7315
   79MOL    H9525211   6.484   5.778   6.847 -1.0920 -1.3992 -1.8824
   79MOL    H9625212   6.368   5.802   7.107  0.2101  0.1245 -0.8036
   79MOL    H9725213   6.196   5.815   7.131  1.1818 -0.2873 -0.2806
   79MOL    C9825214   6.295   6.002   7.140  0.5117  0.0242 -0.9723
   79MOL    C9925215   6.364   5.985   7.279 -0.1640  0.7233  0.6139
   79MOL   C10025216   6.505   5.998   7.287  0.7080 -0.3310 -0.4266
   79MOL  Cl10125217   6.600   6.057   7.155 -0.0950 -0.0719  0.3111
   79MOL   C10225218   6.570   5.972   7.409 -0.0428  0.1607  0.4402
   79MOL   C10325219   6.496   5.911   7.514 -0.4157  0.4094 -0.5561
   79MOL   C10425220   6.358   5.886   7.508 -0.1102  0.4286  0.5455
   79MOL   C10525221   6.290   5.932   7.392 -0.2413  0.2405  0.5005
   79MOL   C10625222   6.155   6.075   7.156 -0.5767 -0.0413  0.0916
   79MOL   H10725223   6.364   6.054   7.075  0.0950  1.3995 -0.3303
   79MOL   H10825224   6.678   5.972   7.410 -0.0222  2.6230  0.8938
   79MOL   H10925225   6.542   5.866   7.601  0.0414 -0.5147 -1.2668
   79MOL   H11025226   6.304   5.828   7.581  0.3023 -0.6848 -0.0177
   79MOL   H11125227   6.182   5.923   7.398 -0.3521  1.7037  0.9375
   79MOL   H11225228   6.080   6.014   7.207 -0.2768  0.1615  0.7729
   79MOL   H11325229   6.111   6.100   7.059 -0.7413  1.5348  0.5588
   79MOL   C11425230   6.163   6.209   7.236 -0.3610  0.4120 -0.0696
   79MOL   C11525231   6.021   6.254   7.263 -0.3548 -0.7933  0.0461
   79MOL   C11625232   5.953   6.226   7.387 -0.0494 -0.0086 -0.2473
   79MOL  Cl11725233   6.034   6.141   7.517 -0.0881  0.3214  0.1636
   79MOL   C11825234   5.813   6.255   7.393 -0.1632  0.6182 -0.6438
   79MOL   C11925235   5.749   6.323   7.283 -0.6797  0.1613 -0.9614
   79MOL   C12025236   5.827   6.363   7.174 -0.3538 -0.4556 -0.0910
   79MOL   C12125237   5.953   6.316   7.159 -0.4600 -1.1390  0.1159
   79MOL   C12225238   6.252   6.312   7.167 -0.7033 -0.1626  0.5608
   79MOL   H12325239   6.217   6.182   7.327  2.0103  1.1984 -1.2179
   79MOL   H12425240   5.754   6.227   7.479 -1.5954  0.0634 -1.7845
   79MOL   H12525241   5.643   6.342   7.279 -1.1443 -2.0542 -0.1908
   79MOL   H12625242   5.776   6.415   7.094  0.6833  1.0636  0.1957
   79MOL   H12725243   6.014   6.334   7.072  0.9085  1.8928  1.6418
   79MOL   H12825244   6.215   6.311   7.065 -0.6080 -0.4047  0.5285
   79MOL   H12925245   6.355   6.281   7.150 -0.5212 -0.3728  1.9544
   79MOL   C13025246   6.256   6.457   7.219  0.4571  0.9358 -0.0384
   79MOL   C13125247   6.346   6.546   7.129 -0.3983  0.3727  0.1753
   79MOL   C13225248   6.291   6.599   7.009 -0.3921 -0.1867 -0.7269
   79MOL  Cl13325249   6.126   6.551   6.963 -0.1833 -0.5424 -0.0441
   79MOL   C13425250   6.370   6.676   6.917 -0.7002  0.2299  0.3835
   79MOL   C13525251   6.501   6.699   6.943  0.3355  0.4625 -0.5845
   79MOL   C13625252   6.557   6.638   7.056 -0.1592 -0.1913  0.1746
   79MOL   C13725253   6.483   6.566   7.152 -0.0092  0.3972  0.4418
   79MOL   C13825254   6.284   6.469   7.374 -0.0210 -0.9021  0.1225
   79MOL   H13925255   6.155   6.490   7.198  1.0364 -0.4076 -5.7387
   79MOL   H14025256   6.324   6.714   6.827 -2.3236 -2.7634 -0.1270
   79MOL   H14125257   6.573   6.745   6.877  0.4785  0.6010 -0.3367
   79MOL   H14225258   6.661   6.665   7.068 -0.2966 -0.5358  2.3615
   79MOL   H14325259   6.536   6.523   7.235 -2.0291 -0.4786  1.3168
   79MOL   H14425260   6.385   6.507   7.389 -1.0417  1.5027  1.1103
   79MOL   H14525261   6.279   6.367   7.414 -0.5974 -0.6243  0.7823
   79MOL   C14625262   6.190   6.554   7.456  0.2987  0.3288 -0.1612
   79MOL   C14725263   6.179   6.700   7.403 -0.2590 -1.0372  0.0233
   79MOL   C14825264   6.064   6.759   7.350  0.0583 -0.8657 -0.4578
   79MOL  Cl14925265   5.917   6.670   7.347  0.0162  0.1955  0.0571
   79MOL   C15025266   6.057   6.895   7.309  0.7780  0.3194 -0.4836
   79MOL   C15125267   6.167   6.973   7.317 -0.2793  0.2437 -0.1157
   79MOL   C15225268   6.282   6.923   7.370 -0.1977  0.0357  0.4352
   79MOL   C15325269   6.288   6.788   7.406  0.2259  0.2148 -0.3682
   79MOL   C15425270   6.196   6.535   7.613 -0.1833 -0.7475  0.4243
   79MOL   H15525271   6.094   6.506   7.441  0.2665  0.3760 -0.1028
   79MOL   H15625272   5.963   6.933   7.273  0.1213  0.1984  1.0666
   79MOL   H15725273   6.174   7.070   7.270 -0.9170  0.2300 -0.2431
   79MOL   H15825274   6.374   6.980   7.369  0.1165 -0.4731  0.3972
   79MOL   H15925275   6.387   6.754   7.430  0.2112 -0.1550 -0.8411
   79MOL   H16025276   6.175   6.432   7.640 -0.4008 -0.8031  0.0398
   79MOL   H16125277   6.112   6.598   7.644 -1.0834 -2.0144  0.5875
   79MOL   C16225278   6.321   6.575   7.692  0.2138 -0.5570 -0.3046
   79MOL   C16325279   6.445   6.482   7.672 -0.1761  0.5024  0.3500
   79MOL   C16425280   6.574   6.536   7.640 -1.0386  0.4967  1.0310
   79MOL  Cl16525281   6.586   6.705   7.601 -0.2686 -0.3342 -0.0583
   79MOL   C16625282   6.684   6.452   7.640 -0.4747 -0.4579 -0.0690
   79MOL   C16725283   6.681   6.320   7.679 -0.1381  0.3400  0.3164
   79MOL   C16825284   6.555   6.261   7.715 -0.8395 -0.1443 -0.5761
   79MOL   C16925285   6.442   6.340   7.709  0.4570 -0.4399 -0.3792
   79MOL   C17025286   6.289   6.590   7.848 -0.6657  0.2467  0.4420
   79MOL   H17125287   6.335   6.676   7.652  0.7146 -0.4747  0.0660
   79MOL   H17225288   6.774   6.503   7.609  1.0778 -2.7330  0.5340
   79MOL   H17325289   6.772   6.262   7.681  0.3340  1.0821  0.5650
   79MOL   H17425290   6.552   6.162   7.758 -0.4790  1.1772  2.5798
   79MOL   H17525291   6.354   6.295   7.753 -0.1686  0.9784 -0.1522
   79MOL   H17625292   6.287   6.489   7.887 -1.6132 -1.0491 -2.7944
   79MOL   H17725293   6.195   6.644   7.858 -1.6714 -1.1869 -1.1323
   79MOL   C17825294   6.391   6.675   7.932  0.3309  0.1492  0.3886
   79MOL   C17925295   6.393   6.652   8.077 -0.5026 -0.1551  0.1399
   79MOL   C18025296   6.510   6.674   8.156  0.0805 -0.5261 -0.3272
   79MOL  Cl18125297   6.668   6.697   8.092 -0.0200 -0.3880  0.3232
   79MOL   C18225298   6.504   6.664   8.296  0.3350 -0.1379  0.1119
   79MOL   C18325299   6.384   6.632   8.358 -0.0607 -0.3912  0.2999
   79MOL   C18425300   6.272   6.598   8.279  0.5685 -0.0461  0.3986
   79MOL   C18525301   6.272   6.625   8.146  0.5333  0.0051 -0.0267
   79MOL   C18625302   6.395   6.818   7.888 -0.3579  0.3320  0.3605
   79MOL   H18725303   6.487   6.638   7.896 -0.5703  0.2480 -2.2168
   79MOL   H18825304   6.588   6.701   8.353  0.4264  1.0885 -0.7940
   79MOL   H18925305   6.380   6.618   0.045 -0.9287 -1.7738  0.1033
   79MOL   H19025306   6.182   6.569   8.330  0.8422 -2.4445 -0.4185
   79MOL   H19125307   6.181   6.604   8.091  1.4075 -3.6098 -0.2315
   79MOL   H19225308   6.404   6.825   7.779  0.5603  0.1793  0.4163
   79MOL   H19325309   6.497   6.846   7.915 -0.4510 -0.7030  1.8498
   79MOL   C19425310   6.290   6.917   7.952 -0.1141 -0.2014  0.5208
   79MOL   C19525311   6.151   6.897   7.893  0.0864 -0.2392 -0.5464
   79MOL   C19625312   6.044   6.876   7.983  0.1698  0.3541 -0.2127
   79MOL  Cl19725313   6.069   6.878   8.156 -0.0996  0.0210 -0.4682
   79MOL   C19825314   5.908   6.875   7.943  0.1876  0.6091 -0.6428
   79MOL   C19925315   5.883   6.886   7.810  0.2257 -0.6003  0.2082
   79MOL   C20025316   5.985   6.898   7.710  0.1313  1.2841 -1.0037
   79MOL   C20125317   6.122   6.897   7.752 -0.0247  0.8741 -0.1593
   79MOL   C20225318   6.327   7.058   7.916 -0.3477 -0.6117  0.1204
   79MOL   H20325319   6.287   6.899   8.059 -4.4837 -0.7002  0.4229
   79MOL   H20425320   5.830   6.881   8.017  1.7926  0.0171  1.1477
   79MOL   H20525321   5.778   6.885   7.783  0.1463  0.5275  0.4396
   79MOL   H20625322   5.961   6.908   7.605  0.9580 -0.9677 -1.4166
   79MOL   H20725323   6.203   6.904   7.681  0.6991 -0.9650  0.4375
   79MOL   H20825324   6.235   7.112   7.942 -0.5548 -1.1801  0.5814
   79MOL   H20925325   6.336   7.072   7.809  0.3881  4.2768  0.6739
   79MOL   C21025326   6.448   7.121   7.981 -0.2776  0.1728 -0.0941
   79MOL   C21125327   6.483   7.092   8.125  0.4204  0.4325  0.1081
   79MOL   C21225328   6.619   7.087   8.166 -0.7060  0.6803  0.0310
   79MOL  Cl21325329   6.760   7.082   8.059  0.1159  0.0124  0.2862
   79MOL   C21425330   6.650   7.061   8.299 -0.0486  0.1207 -0.3053
   79MOL   C21525331   6.557   7.055   8.401 -0.3937 -0.0983 -0.1879
   79MOL   C21625332   6.423   7.069   8.360  0.0607 -0.0287  0.6834
   79MOL   C21725333   6.384   7.075   8.223 -0.3238 -0.9633 -0.3275
   79MOL   C21825334   6.452   7.269   7.947 -0.0560 -0.2599  0.4971
   79MOL   H21925335   6.521   7.065   7.921  0.7332  1.6087 -0.2270
   79MOL   H22025336   6.754   7.053   8.325  0.3269  1.2045 -1.4249
   79MOL   H22125337   6.579   7.036   0.084  1.0084 -2.8164 -0.9274
   79MOL   H22225338   6.345   7.061   0.013 -0.2655 -1.5818  0.2025
   79MOL   H22325339   6.279   7.087   8.200  0.0968 -0.7748 -2.1595
   79MOL   H22425340   6.528   7.322   8.004  1.2258 -1.0466 -0.4601
   79MOL   H22525341   6.358   7.315   7.978  0.3493  0.2754  0.9404
   79MOL   C22625342   6.477   7.310   7.793 -0.3580  0.6751 -0.4194
   79MOL   C22725343   6.620   7.280   7.738 -0.0660  0.1861  0.0690
   79MOL   C22825344   6.637   7.193   7.631 -0.0636  0.3932 -0.4802
   79MOL  Cl22925345   6.503   7.116   7.543 -0.0156  0.1889 -0.1778
   79MOL   C23025346   6.771   7.172   7.587  0.6372  0.6019  0.6994
   79MOL   C23125347   6.882   7.230   7.655 -0.0473  0.7184 -0.5282
   79MOL   C23225348   6.856   7.312   7.764 -0.7399  0.3287 -0.7104
   79MOL   C23325349   6.726   7.342   7.803 -0.1774  0.5620 -0.0302
   79MOL   C23425350   6.438   7.456   7.767 -0.2507  0.2452  0.1072
   79MOL   H23525351   6.392   7.256   7.751 -1.6013  3.6670 -1.8875
   79MOL   H23625352   6.778   7.112   7.497 -0.5064 -0.0413  1.0416
   79MOL   H23725353   6.984   7.219   7.623  0.6149  3.5073  0.4799
   79MOL   H23825354   6.937   7.356   7.819 -1.0339 -1.7680  1.5012
   79MOL   H23925355   6.707   7.397   7.894 -3.8489 -1.7697  0.6868
   79MOL   H24025356   6.520   7.522   7.793  1.8622 -3.2310  2.9030
   79MOL   H24125357   6.352   7.484   7.828 -0.4894  1.2465 -0.6814
   79MOL   C24225358   6.392   7.477   7.626 -0.3565 -0.6958  0.1422
   79MOL   C24325359   6.383   7.628   7.588 -0.6584  0.0025  0.1049
   79MOL   C24425360   6.458   7.684   7.484  0.5248 -0.4453 -0.7271
   79MOL  Cl24525361   6.586   7.604   7.398  0.1373  0.3984  0.7562
   79MOL   C24625362   6.434   7.816   7.439  0.6360  0.1333 -0.0667
   79MOL   C24725363   6.325   7.887   7.495 -0.1529 -0.6246  0.7735
   79MOL   C24825364   6.277   7.846   7.618 -0.0259 -0.5256  0.8982
   79MOL   C24925365   6.295   7.710   7.661  0.1088 -0.0888 -0.4460
   79MOL   C25025366   6.251   7.410   7.600  0.3604 -0.1518  0.5303
   79MOL   H25125367   6.461   7.422   7.561 -0.2052 -0.4429  0.0845
   79MOL   H25225368   6.480   7.860   7.352  0.7098  2.6863  1.2307
   79MOL   H25325369   6.290   7.981   7.456 -0.5740  0.0594  2.7001
   79MOL   H25425370   6.191   7.901   7.652  0.8942 -0.4701  3.2796
   79MOL   H25525371   6.254   7.684   7.758  0.8017 -0.2224 -0.1829
   79MOL   H25625372   6.180   7.423   7.682 -0.4939 -1.7047  0.0648
   79MOL   H25725373   6.267   7.303   7.596 -0.6273 -0.2877 -0.1594
   79MOL   C25825374   6.152   7.454   7.489  0.6986  0.5812 -0.2655
   79MOL   C25925375   6.009   7.394   7.502 -0.6001  0.1993 -0.5057
   79MOL   C26025376   5.893   7.473   7.521  0.1290 -0.4172  0.3207
   79MOL  Cl26125377   5.908   7.642   7.543 -0.3171 -0.1264  0.1859
   79MOL   C26225378   5.762   7.416   7.513  0.3413  0.3717 -0.8049
   79MOL   C26325379   5.745   7.280   7.485 -0.0891  0.4531 -0.4098
   79MOL   C26425380   5.858   7.198   7.468  0.1306 -0.6414 -0.0223
   79MOL   C26525381   5.987   7.257   7.470  0.1966 -1.2173  0.1103
   79MOL   C26625382   6.214   7.430   7.348 -0.5656 -0.7213 -0.0252
   79MOL   H26725383   6.147   7.563   7.496  0.4408  0.4614  1.7454
   79MOL   H26825384   5.669   7.468   7.526  0.2254 -0.3721  1.7777
   79MOL   H26925385   5.645   7.240   7.495 -0.1998  0.9956  0.6767
   79MOL   H27025386   5.862   7.093   7.443 -1.6587 -0.2768 -2.0026
   79MOL   H27125387   6.062   7.182   7.450 -0.1139 -0.8810 -2.4008
   79MOL   H27225388   6.227   7.322   7.338 -0.3204 -0.7898  0.9440
   79MOL   H27325389   6.313   7.475   7.349 -1.3881  1.1449  0.2679
   79MOL   C27425390   6.136   7.494   7.223 -1.1021  0.0050  1.0170
   79MOL   C27525391   6.179   7.427   7.095  0.0577 -0.1341 -0.4139
   79MOL   C27625392   6.096   7.340   7.018 -0.2438  0.0166  0.7413
   79MOL  Cl27725393   5.928   7.312   7.060 -0.1636 -0.0100 -0.3277
   79MOL   C27825394   6.144   7.282   6.899  0.2220 -0.3964 -0.4240
   79MOL   C27925395   6.270   7.317   6.851 -0.4554  0.4169 -0.0053
   79MOL   C28025396   6.357   7.404   6.927 -0.0073  0.4886 -1.1656
   79MOL   C28125397   6.311   7.455   7.049  0.4297  0.1471  0.1000
   79MOL   C28225398   6.143   7.650   7.206  0.3257 -0.0172 -0.3428
   79MOL   H28325399   6.030   7.472   7.238 -1.2631 -0.0046 -0.0964
   79MOL   H28425400   6.084   7.220   6.834 -2.7037 -2.2869  3.8560
   79MOL   H28525401   6.316   7.288   6.757 -0.3442  0.1467  0.1298
   79MOL   H28625402   6.455   7.434   6.892  0.4801 -0.9294 -1.0613
   79MOL   H28725403   6.373   7.534   7.088  0.4067  1.6850 -2.8505
   79MOL   H28825404   6.251   7.669   7.207 -0.2554  3.8261 -1.9310
   79MOL   H28925405   6.123   7.705   7.297  0.8939  2.0306 -1.4187
   79MOL   C29025406   6.061   7.715   7.097  0.0229 -0.2628 -0.3979
   79MOL   C29125407   6.118   7.853   7.064 -1.4707 -0.4985  0.1603
   79MOL   C29225408   6.217   7.869   6.959  0.3388  0.0911  0.0387
   79MOL  Cl29325409   6.293   7.739   6.873 -0.1113  0.2328  0.2731
   79MOL   C29425410   6.264   7.999   6.939  0.3704 -0.8080 -0.6900
   79MOL   C29525411   6.210   8.110   7.003  0.4986  0.1632 -0.1573
   79MOL   C29625412   6.111   8.097   7.103  0.5921 -0.2709 -0.7433
   79MOL   C29725413   6.065   7.967   7.132  0.2361  0.0290 -0.0375
   79MOL   C29825414   5.912   7.716   7.132  0.3332 -0.2509  0.0611
   79MOL   H29925415   6.065   7.653   7.007  1.1410  1.5814 -1.6599
   79MOL   H30025416   6.344   8.016   6.868 -0.9238 -2.3529 -2.6000
   79MOL   H30125417   6.246   8.208   6.977 -1.1969  0.7641 -0.2406
   79MOL   H30225418   6.076   8.182   7.159  0.6885  0.1010 -1.2470
   79MOL   H30325419   5.983   7.973   7.202 -1.5315  2.7043 -2.2489
   79MOL   H30425420   5.902   7.773   7.225 -0.8634 -1.0143  0.4115
   79MOL   H30525421   5.887   7.613   7.156  0.6987 -0.4318 -0.3453
   79MOL   C30625422   5.807   7.774   7.039 -0.8061  0.0910  0.0735
   79MOL   C30725423   5.678   7.813   7.106 -0.4339  0.0851 -0.2787
   79MOL   C30825424   5.598   7.726   7.183 -0.1073 -0.8225 -0.3375
   79MOL  Cl30925425   5.632   7.564   7.191 -0.0213 -0.1355  0.2111
   79MOL   C31025426   5.476   7.776   7.246 -0.2235 -0.0303 -0.0506
   79MOL   C31125427   5.429   7.907   7.223  0.0016 -0.0241 -0.1735
   79MOL   C31225428   5.508   7.996   7.145 -0.1076  0.0890  0.0073
   79MOL   C31325429   5.631   7.944   7.088  0.9535 -0.1153 -0.0062
   79MOL   C31425430   5.783   7.676   6.916 -0.5483  0.6895  0.1797
   79MOL   H31525431   5.857   7.862   6.999  0.6373 -0.2864  0.9933
   79MOL   H31625432   5.421   7.713   7.314 -1.7154 -0.9898 -2.0994
   79MOL   H31725433   5.333   7.936   7.262  0.8144 -2.1309  3.6670
   79MOL   H31825434   5.476   8.099   7.133  2.0148  0.7750  0.1618
   79MOL   H31925435   5.693   8.013   7.033 -1.1992  2.1494  0.2708
   79MOL   H32025436   5.733   7.582   6.940  0.5234  0.5163  1.7992
   79MOL   H32125437   5.877   7.640   6.873 -0.5096  0.3790  0.5180
   79MOL   H32225438   5.737   7.724   6.830  0.9335  0.0863 -0.9881
   80MOL     C125439   4.384   7.445   2.115  0.3774  0.1636  0.2492
   80MOL     C225440   4.488   7.555   2.154 -0.2061 -0.4780 -0.0434
   80MOL     C325441   4.477   7.640   2.266 -0.3241 -0.0564 -0.3514
   80MOL    Cl425442   4.336   7.646   2.364 -0.1227  0.4270 -0.3035
   80MOL     C525443   4.586   7.722   2.302  0.5188  0.0618 -0.8256
   80MOL     C625444   4.704   7.725   2.225 -0.0212 -0.4321  0.2766
   80MOL     C725445   4.710   7.635   2.118 -0.4913 -1.5252 -0.1582
   80MOL     C825446   4.604   7.559   2.082  0.7060 -0.1346 -0.2216
   80MOL     C925447   4.426   7.316   2.189 -0.2151 -0.2201  0.4284
   80MOL    H1025448   4.285   7.479   2.145  0.7761  0.8573  0.7882
   80MOL    H1125449   4.573   7.780   2.392 -1.5782  0.2351 -1.2134
   80MOL    H1225450   4.790   7.788   2.239 -0.3267  0.2561 -0.8494
   80MOL    H1325451   4.786   7.634   2.041  0.6154 -1.0683  0.9127
   80MOL    H1425452   4.605   7.494   1.996  0.3449 -0.1927 -0.1814
   80MOL    H1525453   4.435   7.324   2.297 -1.0041 -1.5797  0.6044
   80MOL    H1625454   4.528   7.285   2.165 -0.2748 -0.4476  0.4701
   80MOL    H1725455   4.383   7.422   2.008  1.3118  0.8133  0.0909
   80MOL    C1825456   4.344   7.188   2.144  0.4954  0.0180  0.3716
   80MOL    C1925457   4.187   7.208   2.168  0.6287  0.1828 -0.3612
   80MOL    C2025458   4.102   7.160   2.070  0.6505 -0.5884 -0.1506
   80MOL   Cl2125459   4.154   7.058   1.938 -0.3180 -0.1824  0.0938
   80MOL    C2225460   3.965   7.192   2.075  0.1126  0.2905  0.4938
   80MOL    C2325461   3.911   7.263   2.187  0.1925 -0.1159  0.4976
   80MOL    C2425462   3.994   7.294   2.293 -0.5581 -0.5510  0.2385
   80MOL    C2525463   4.132   7.276   2.283  0.0394  0.6854 -0.3724
   80MOL    C2625464   4.407   7.066   2.221 -0.2537 -0.0486 -0.6410
   80MOL    H2725465   4.361   7.186   2.036 -0.4312  0.5472  0.2084
   80MOL    H2825466   3.904   7.149   1.998  1.2586  1.6666 -1.2287
   80MOL    H2925467   3.805   7.282   2.196 -0.4301 -3.0245  0.0207
   80MOL    H3025468   3.959   7.335   2.387 -1.1035  0.8647 -0.5492
   80MOL    H3125469   4.189   7.308   2.369  0.7357 -0.7900 -0.2755
   80MOL    H3225470   4.336   6.985   2.243 -0.5623  0.0066 -1.4145
   80MOL    H3325471   4.442   7.101   2.317 -0.4686 -3.4646  0.7748
   80MOL    C3425472   4.526   7.002   2.151 -0.1124  0.1989 -0.2538
   80MOL    C3525473   4.485   6.900   2.049 -0.1719  0.2197 -0.1554
   80MOL    C3625474   4.522   6.913   1.910 -0.4267 -0.5892  0.8064
   80MOL   Cl3725475   4.594   7.063   1.852 -0.0401  0.0891 -0.5044
   80MOL    C3825476   4.494   6.819   1.814 -0.5579  0.3942 -0.2300
   80MOL    C3925477   4.423   6.703   1.858 -0.4010  0.2898  0.6284
   80MOL    C4025478   4.384   6.687   1.990 -1.1018 -0.2249 -0.9801
   80MOL    C4125479   4.424   6.780   2.086 -0.0941  0.1695 -0.4629
   80MOL    C4225480   4.631   6.939   2.251 -0.0950 -0.0031  0.5464
   80MOL    H4325481   4.578   7.089   2.111 -0.5863  1.6696  2.2428
   80MOL    H4425482   4.537   6.819   1.715 -3.7917 -1.1339 -1.7053
   80MOL    H4525483   4.411   6.624   1.786 -0.5404  0.1913  0.7602
   80MOL    H4625484   4.346   6.589   2.013  0.8679 -1.0020 -1.0222
   80MOL    H4725485   4.401   6.764   2.190  0.3226  1.6079 -0.1294
   80MOL    H4825486   4.650   6.839   2.213  0.9650 -0.1211  1.3720
   80MOL    H4925487   4.584   6.921   2.347 -2.8518  1.4393 -0.4762
   80MOL    C5025488   4.771   7.016   2.262 -0.0177 -0.0293  0.5227
   80MOL    C5125489   4.845   7.015   2.131  0.3440  0.7317 -0.2507
   80MOL    C5225490   4.884   7.141   2.076 -0.6453 -0.0831  0.3556
   80MOL   Cl5325491   4.838   7.289   2.158 -0.2186  0.5812  0.0569
   80MOL    C5425492   4.938   7.147   1.944 -0.4138  0.2477 -0.3089
   80MOL    C5525493   4.967   7.030   1.870  0.4161  0.3773 -0.2471
   80MOL    C5625494   4.939   6.902   1.928  0.8570  0.5830  0.0181
   80MOL    C5725495   4.875   6.896   2.056  0.2844  0.2237 -0.1593
   80MOL    C5825496   4.871   6.974   2.373  0.3830 -0.2389  0.2761
   80MOL    H5925497   4.732   7.112   2.295  0.8613  0.1510  1.0696
   80MOL    H6025498   4.955   7.247   1.908  0.1956  0.5677  0.8509
   80MOL    H6125499   5.005   7.032   1.769  0.8507 -1.1009 -0.1165
   80MOL    H6225500   4.957   6.814   1.869 -0.8436  1.7183 -2.2515
   80MOL    H6325501   4.840   6.796   2.078 -1.0726  0.6361 -0.3782
   80MOL    H6425502   4.956   7.037   2.343 -1.0978  1.1966 -0.9938
   80MOL    H6525503   4.906   6.872   2.358 -0.7051 -0.4524 -0.8267
   80MOL    C6625504   4.830   7.017   2.516  0.1162 -0.5891 -0.1854
   80MOL    C6725505   4.799   7.166   2.531  0.2962  0.5571 -0.2331
   80MOL    C6825506   4.669   7.210   2.558  0.0845  0.4217  0.2070
   80MOL   Cl6925507   4.532   7.099   2.573 -0.3216 -0.1790 -0.2960
   80MOL    C7025508   4.639   7.348   2.558  0.9411  0.1625 -1.6752
   80MOL    C7125509   4.737   7.443   2.535  0.1247  0.1145  0.1924
   80MOL    C7225510   4.868   7.402   2.513  0.2737  0.4843 -0.7426
   80MOL    C7325511   4.898   7.264   2.506 -0.4330  0.0627 -1.0846
   80MOL    C7425512   4.944   6.973   2.613  0.0290 -0.6439 -0.3160
   80MOL    H7525513   4.753   6.942   2.539  1.1857 -1.9908 -1.0734
   80MOL    H7625514   4.540   7.383   2.582  0.8490 -1.2306  0.0844
   80MOL    H7725515   4.715   7.548   2.538  1.6289  0.5078 -1.7632
   80MOL    H7825516   4.939   7.481   2.494 -0.2528  0.2914 -3.8315
   80MOL    H7925517   4.999   7.237   2.480 -0.3626  0.3380 -1.1004
   80MOL    H8025518   4.910   6.988   2.716 -0.0454 -0.5986 -0.3467
   80MOL    H8125519   5.019   7.049   2.596  1.4001 -1.9002  0.0116
   80MOL    C8225520   5.013   6.836   2.596  0.4611  0.8380 -0.1188
   80MOL    C8325521   4.916   6.712   2.597  0.1121  0.5337  0.2725
   80MOL    C8425522   4.935   6.600   2.512 -0.0387  0.0370  0.1359
   80MOL   Cl8525523   5.065   6.590   2.399  0.3089 -0.4168 -0.4561
   80MOL    C8625524   4.858   6.484   2.533  0.3528 -0.7128 -0.0170
   80MOL    C8725525   4.762   6.480   2.639  0.3001  0.2420 -0.8046
   80MOL    C8825526   4.735   6.596   2.722 -0.5018  0.2552 -0.0520
   80MOL    C8925527   4.823   6.711   2.696  0.2954  0.1971  0.9288
   80MOL    C9025528   5.130   6.815   2.700 -0.1820 -0.0247  0.3322
   80MOL    H9125529   5.065   6.835   2.500 -1.7290  0.7976 -1.3298
   80MOL    H9225530   4.875   6.391   2.480 -2.7838 -1.8367  0.8207
   80MOL    H9325531   4.713   6.385   2.652 -2.8192  1.5883 -2.2482
   80MOL    H9425532   4.655   6.595   2.795  1.2960  2.9318  2.0376
   80MOL    H9525533   4.802   6.800   2.754  1.1083  0.9757  0.0377
   80MOL    H9625534   5.170   6.713   2.706  1.5618  0.4358 -2.5773
   80MOL    H9725535   5.082   6.832   2.797 -0.6473  1.1057 -0.0912
   80MOL    C9825536   5.242   6.927   2.697  0.0421 -0.1264  0.1558
   80MOL    C9925537   5.296   6.951   2.561  0.1505 -0.1320  0.2104
   80MOL   C10025538   5.304   7.082   2.506  0.2920 -0.0283 -0.1435
   80MOL  Cl10125539   5.277   7.221   2.607 -0.1805  0.0417 -0.3649
   80MOL   C10225540   5.318   7.092   2.368  0.5961 -0.2020 -1.0727
   80MOL   C10325541   5.346   6.982   2.282 -0.6577  0.4029 -0.3341
   80MOL   C10425542   5.348   6.854   2.343 -0.7368 -0.7475 -0.6886
   80MOL   C10525543   5.329   6.838   2.479 -0.2211 -0.4221  0.0506
   80MOL   C10625544   5.356   6.896   2.797 -0.6486  0.3433  0.8502
   80MOL   H10725545   5.194   7.019   2.731  1.7131  1.1623 -0.9013
   80MOL   H10825546   5.324   7.187   2.319 -0.2672  0.2169 -0.3784
   80MOL   H10925547   5.366   7.001   2.177  1.3378 -0.8396 -0.2063
   80MOL   H11025548   5.362   6.766   2.282  1.6662 -0.5640 -0.4393
   80MOL   H11125549   5.326   6.745   2.535 -1.3793  0.3233  1.2735
   80MOL   H11225550   5.436   6.969   2.788 -1.4891  1.2171  0.4662
   80MOL   H11325551   5.405   6.803   2.768 -2.5497 -0.0589 -1.1218
   80MOL   C11425552   5.318   6.896   2.950 -0.6171  0.2851 -0.3659
   80MOL   C11525553   5.294   7.037   3.005 -0.8140 -0.6969 -0.5353
   80MOL   C11625554   5.163   7.085   3.039 -0.1886  0.2895 -0.4435
   80MOL  Cl11725555   5.035   6.967   3.040 -0.1094  0.0800 -0.0574
   80MOL   C11825556   5.135   7.220   3.062 -0.0781 -0.5427  0.2372
   80MOL   C11925557   5.238   7.314   3.067 -0.5143 -0.1130  0.3010
   80MOL   C12025558   5.370   7.265   3.052  0.2278 -0.4280 -0.2447
   80MOL   C12125559   5.401   7.133   3.009 -0.4545 -1.0456 -0.2022
   80MOL   C12225560   5.430   6.835   3.031  0.0484  0.4546 -0.0333
   80MOL   H12325561   5.228   6.836   2.953 -1.4577  1.4364 -2.0379
   80MOL   H12425562   5.037   7.261   3.085  1.4910  2.5944  1.5959
   80MOL   H12525563   5.220   7.420   3.069 -0.6374 -0.1412  0.7756
   80MOL   H12625564   5.451   7.335   3.068  0.7270 -1.0843  0.1168
   80MOL   H12725565   5.503   7.108   2.986 -0.6903 -2.4860  0.3151
   80MOL   H12825566   5.414   6.851   3.138  1.1537  3.0815 -0.2111
   80MOL   H12925567   5.524   6.888   3.016 -0.0839  0.7995  0.3442
   80MOL   C13025568   5.467   6.683   3.014 -0.5790  0.0274 -0.2301
   80MOL   C13125569   5.340   6.598   3.007 -0.1398 -0.4502 -0.8452
   80MOL   C13225570   5.303   6.523   2.890 -0.4978 -0.3094  0.3630
   80MOL  Cl13325571   5.408   6.524   2.751 -0.6206  0.1667  0.0821
   80MOL   C13425572   5.175   6.455   2.887  0.1629  0.5418 -0.4929
   80MOL   C13525573   5.100   6.439   3.008 -1.0480  0.1068  0.5314
   80MOL   C13625574   5.138   6.513   3.121 -0.0473 -0.1695  0.8418
   80MOL   C13725575   5.252   6.598   3.122 -0.3800 -0.1421  0.5998
   80MOL   C13825576   5.572   6.635   3.117  0.4079  0.3348 -0.3038
   80MOL   H13925577   5.525   6.671   2.922  0.5802  0.3881  0.4525
   80MOL   H14025578   5.130   6.416   2.797  0.6460  0.0157 -0.5055
   80MOL   H14125579   5.014   6.373   3.006 -0.0422 -1.2672  1.3251
   80MOL   H14225580   5.064   6.506   3.200 -1.3846  0.6534 -0.3077
   80MOL   H14325581   5.280   6.657   3.208  2.6167  1.5409 -1.4424
   80MOL   H14425582   5.584   6.527   3.106  0.1386  0.1199  1.3669
   80MOL   H14525583   5.528   6.646   3.217  0.6115 -1.2612 -0.0149
   80MOL   C14625584   5.710   6.707   3.107 -0.0183  0.3722  0.5782
   80MOL   C14725585   5.776   6.682   2.968  0.3472  0.0794  0.1578
   80MOL   C14825586   5.801   6.784   2.875 -0.3711  0.0791  0.1968
   80MOL  Cl14925587   5.763   6.948   2.906  0.3143  0.1502 -0.3918
   80MOL   C15025588   5.869   6.753   2.751 -0.5261  0.2738  0.2106
   80MOL   C15125589   5.916   6.624   2.728  0.5747  0.4069  0.3526
   80MOL   C15225590   5.889   6.528   2.821  0.2254  0.1065 -0.0208
   80MOL   C15325591   5.819   6.554   2.934 -0.5073 -0.3252 -0.7871
   80MOL   C15425592   5.813   6.664   3.217  1.1786 -0.1959 -0.1816
   80MOL   H15525593   5.705   6.815   3.119 -0.8919  0.6186 -1.7950
   80MOL   H15625594   5.888   6.839   2.689  2.5357 -0.3825  0.1790
   80MOL   H15725595   5.977   6.604   2.641  2.4221  0.8423  1.5173
   80MOL   H15825596   5.929   6.428   2.811 -0.9048 -0.3521 -0.0218
   80MOL   H15925597   5.797   6.472   3.000  0.3269  0.0412 -0.0425
   80MOL   H16025598   5.910   6.691   3.176  1.2743 -0.7455 -0.3193
   80MOL   H16125599   5.823   6.558   3.236 -0.1021 -0.3420 -0.2384
   80MOL   C16225600   5.801   6.740   3.358 -0.6405 -0.3426 -0.0374
   80MOL   C16325601   5.774   6.888   3.342  0.1143  1.1607 -0.1769
   80MOL   C16425602   5.654   6.944   3.395 -0.3099  0.1254  0.2522
   80MOL  Cl16525603   5.538   6.860   3.490 -0.2804  0.0971  0.2306
   80MOL   C16625604   5.623   7.075   3.370 -0.3856  0.8732 -0.1572
   80MOL   C16725605   5.708   7.157   3.291  0.6284 -0.4268 -0.6723
   80MOL   C16825606   5.826   7.105   3.237 -0.0799 -0.4906  0.3880
   80MOL   C16925607   5.855   6.969   3.261  0.3273  0.5089 -0.6916
   80MOL   C17025608   5.933   6.716   3.435  0.9288  0.6545  0.0198
   80MOL   H17125609   5.715   6.703   3.414 -0.1086  0.0378  1.0295
   80MOL   H17225610   5.544   7.125   3.424  0.1610  1.2494  0.2909
   80MOL   H17325611   5.678   7.257   3.262  1.1116  0.0754  0.5151
   80MOL   H17425612   5.888   7.164   3.171 -0.0086 -2.4959 -1.4119
   80MOL   H17525613   5.941   6.927   3.210  1.1178  1.3873 -0.1077
   80MOL   H17625614   5.943   6.788   3.516 -0.0431  1.1628 -0.3082
   80MOL   H17725615   6.015   6.751   3.373  0.5782 -2.0537 -2.0388
   80MOL   C17825616   5.949   6.575   3.493 -1.1366 -0.1218 -0.0416
   80MOL   C17925617   5.851   6.549   3.598 -0.1801  0.6919 -0.3877
   80MOL   C18025618   5.742   6.456   3.576 -0.0757  0.6979  0.6813
   80MOL  Cl18125619   5.732   6.352   3.445 -0.5029  0.1894  0.0450
   80MOL   C18225620   5.635   6.460   3.671  0.0642 -0.2313 -0.0268
   80MOL   C18325621   5.645   6.549   3.783 -0.4901  0.3823  0.5478
   80MOL   C18425622   5.754   6.629   3.800  0.1195  0.2238 -0.1231
   80MOL   C18525623   5.860   6.632   3.710  0.4546  0.5114 -0.6359
   80MOL   C18625624   6.101   6.546   3.530 -0.2678 -0.4437  0.6667
   80MOL   H18725625   5.915   6.511   3.412  0.1806 -1.0967  0.1551
   80MOL   H18825626   5.550   6.394   3.670 -0.0408 -0.1469  2.1317
   80MOL   H18925627   5.563   6.545   3.853 -1.2021  3.2078 -0.0660
   80MOL   H19025628   5.760   6.687   3.891 -0.0504  0.5096 -0.2943
   80MOL   H19125629   5.941   6.701   3.728  0.3498  0.2621  0.7846
   80MOL   H19225630   6.098   6.470   3.608  1.8300  1.3537  2.5525
   80MOL   H19325631   6.145   6.628   3.587  0.7753 -2.0062  2.1759
   80MOL   C19425632   6.179   6.489   3.412  0.1390 -0.3316  0.3759
   80MOL   C19525633   6.104   6.376   3.341  0.0024 -0.1966 -0.2402
   80MOL   C19625634   6.076   6.385   3.203  0.2782  0.0490 -0.3515
   80MOL  Cl19725635   6.137   6.512   3.100  0.1581 -0.1124  0.3091
   80MOL   C19825636   5.992   6.285   3.146 -0.0176  0.2969 -0.1079
   80MOL   C19925637   5.940   6.184   3.225 -0.2239 -0.1297  0.5696
   80MOL   C20025638   5.968   6.172   3.360 -0.1780  0.0041 -0.3203
   80MOL   C20125639   6.053   6.273   3.422  0.2447  0.9901  0.5617
   80MOL   C20225640   6.314   6.451   3.450  0.1045  0.1040  0.1459
   80MOL   H20325641   6.188   6.565   3.334  1.1196 -0.0661  0.7508
   80MOL   H20425642   5.962   6.299   3.043  0.1927 -0.0545 -0.2140
   80MOL   H20525643   5.874   6.114   3.175  0.2464  0.2399 -0.5744
   80MOL   H20625644   5.927   6.097   3.425  2.1092 -1.4127 -0.4639
   80MOL   H20725645   6.064   6.266   3.529 -2.7169 -1.5868  0.7737
   80MOL   H20825646   6.313   6.363   3.513  0.6235 -0.3655 -0.4995
   80MOL   H20925647   6.361   6.525   3.515  2.7688 -0.6159 -0.9009
   80MOL   C21025648   6.407   6.420   3.327 -0.1739 -0.5399  0.2010
   80MOL   C21125649   6.487   6.290   3.346  0.7180 -0.0033 -0.1010
   80MOL   C21225650   6.459   6.171   3.273  0.0982  0.1989  0.3999
   80MOL  Cl21325651   6.323   6.155   3.166  0.1350  0.1903  0.1097
   80MOL   C21425652   6.540   6.059   3.285 -0.2448  0.3284 -0.6226
   80MOL   C21525653   6.650   6.057   3.373  0.0507 -0.3105 -0.7035
   80MOL   C21625654   6.685   6.174   3.445 -0.0645  0.1830  1.0542
   80MOL   C21725655   6.603   6.283   3.427  0.8188  0.2105 -0.0398
   80MOL   C21825656   6.497   6.538   3.293  0.1145  0.2161 -0.1231
   80MOL   H21925657   6.350   6.406   3.235 -2.4233 -1.1769  1.6440
   80MOL   H22025658   6.518   5.975   3.220 -2.3108 -0.5772  1.1807
   80MOL   H22125659   6.725   5.980   3.381  1.0116  0.4094 -2.4729
   80MOL   H22225660   6.774   6.173   3.507 -0.0158 -0.3152  0.9762
   80MOL   H22325661   6.628   6.368   3.489 -1.7399  0.5459  0.6010
   80MOL   H22425662   6.588   6.529   3.352  1.4232 -0.2603 -2.1793
   80MOL   H22525663   6.455   6.630   3.335 -0.4058  0.2287 -0.6567
   80MOL   C22625664   6.522   6.578   3.147 -0.3478  0.4301  0.4021
   80MOL   C22725665   6.603   6.473   3.067 -0.7719 -0.5482 -0.1586
   80MOL   C22825666   6.560   6.432   2.937 -0.3601  0.6812  0.6642
   80MOL  Cl22925667   6.417   6.491   2.868 -0.0034 -0.5164 -0.1145
   80MOL   C23025668   6.640   6.340   2.864  0.3638 -0.8341  0.2558
   80MOL   C23125669   6.761   6.286   2.919  0.6353 -0.5604 -0.8337
   80MOL   C23225670   6.804   6.335   3.044  0.0833 -0.8523 -1.2126
   80MOL   C23325671   6.722   6.420   3.125 -0.0300 -0.5283 -0.0044
   80MOL   C23425672   6.600   6.713   3.141  0.3279 -0.5984  0.6390
   80MOL   H23525673   6.424   6.592   3.102  1.4833  1.3862 -3.4587
   80MOL   H23625674   6.603   6.307   2.768  1.8663 -0.2237 -0.5585
   80MOL   H23725675   6.808   6.207   2.862  0.0009 -1.8037  0.3175
   80MOL   H23825676   6.892   6.285   3.083 -0.5761 -1.0105  0.1318
   80MOL   H23925677   6.751   6.446   3.226  0.1662 -2.8337  0.5656
   80MOL   H24025678   6.644   6.717   3.041 -1.4783  0.0944 -0.1575
   80MOL   H24125679   6.686   6.724   3.207 -0.8208  0.9015  1.9093
   80MOL   C24225680   6.519   6.840   3.143  0.3184 -0.7329 -0.8442
   80MOL   C24325681   6.413   6.835   3.040 -0.2664  0.3347  0.1867
   80MOL   C24425682   6.272   6.855   3.071 -0.2607 -0.1523 -1.0143
   80MOL  Cl24525683   6.216   6.898   3.223 -0.0492  0.3267  0.1775
   80MOL   C24625684   6.174   6.852   2.973  0.4860 -0.0721 -0.7498
   80MOL   C24725685   6.213   6.834   2.838  0.1760  0.4546 -0.6597
   80MOL   C24825686   6.346   6.836   2.805 -0.1782  0.1070  0.2248
   80MOL   C24925687   6.445   6.828   2.903  0.1042  0.5261 -0.3448
   80MOL   C25025688   6.618   6.964   3.125 -0.2994 -0.2077 -0.4867
   80MOL   H25125689   6.472   6.839   3.242 -1.3964 -2.2002 -1.6424
   80MOL   H25225690   6.071   6.878   2.991  0.4030 -0.2099 -1.0203
   80MOL   H25325691   6.138   6.856   2.763  0.0263 -0.2001 -0.7083
   80MOL   H25425692   6.371   6.829   2.701  3.0342  1.4425  0.8737
   80MOL   H25525693   6.547   6.816   2.871  0.2927  0.0818  0.4202
   80MOL   H25625694   6.697   6.938   3.055  0.3568  0.0631  0.1377
   80MOL   H25725695   6.667   6.980   3.222 -2.3801  1.1295  0.3761
   80MOL   C25825696   6.559   7.099   3.087  0.0056 -0.4998 -0.0118
   80MOL   C25925697   6.665   7.187   3.018 -0.1911  1.4230 -0.1134
   80MOL   C26025698   6.663   7.224   2.883  0.6790  0.2739  0.0941
   80MOL  Cl26125699   6.543   7.155   2.779 -0.1319  0.1149  0.2767
   80MOL   C26225700   6.751   7.326   2.834 -0.6807 -0.6079  0.0710
   80MOL   C26325701   6.853   7.375   2.912 -0.1483  0.1459 -0.4244
   80MOL   C26425702   6.874   7.315   3.039 -0.5305 -0.1410 -0.0767
   80MOL   C26525703   6.773   7.229   3.098 -0.2109  0.3884  0.4009
   80MOL   C26625704   6.484   7.173   3.201  0.5948  0.3617  0.4821
   80MOL   H26725705   6.483   7.073   3.013 -1.2875 -0.2381  1.2113
   80MOL   H26825706   6.741   7.342   2.727 -2.5565  0.4319  0.3665
   80MOL   H26925707   6.912   7.452   2.866  0.1823  1.6535  2.4025
   80MOL   H27025708   6.962   7.346   3.093 -2.0242  2.0384  1.1735
   80MOL   H27125709   6.791   7.204   3.201  3.1790  0.8773 -0.0000
   80MOL   H27225710   6.557   7.224   3.263  1.4289  1.0612 -1.0590
   80MOL   H27325711   6.426   7.102   3.261 -0.7358  1.3438  0.3894
   80MOL   C27425712   6.389   7.294   3.164 -0.4584 -0.9594  0.2794
   80MOL   C27525713   6.372   7.388   3.285  0.2973  0.8927  0.0853
   80MOL   C27625714   6.457   7.499   3.298  0.2228 -0.4381 -0.2534
   80MOL  Cl27725715   6.600   7.519   3.204  0.1038  0.0405  0.0073
   80MOL   C27825716   6.445   7.582   3.412 -0.3207 -0.3213  0.2354
   80MOL   C27925717   6.322   7.580   3.486  1.1853  0.7357 -0.6773
   80MOL   C28025718   6.239   7.461   3.481  0.1019 -0.1511 -0.0940
   80MOL   C28125719   6.269   7.365   3.380  0.1497  0.3138  0.6797
   80MOL   C28225720   6.252   7.236   3.102 -0.5854  0.9241  0.1721
   80MOL   H28325721   6.439   7.355   3.089 -3.0057 -1.5453 -1.9772
   80MOL   H28425722   6.499   7.672   3.436 -0.3316  0.1182 -1.3423
   80MOL   H28525723   6.301   7.659   3.556  2.2425  1.2026 -0.8828
   80MOL   H28625724   6.147   7.450   3.536  0.4820  2.9916  1.3057
   80MOL   H28725725   6.205   7.281   3.360 -0.5909  1.0379 -0.0130
   80MOL   H28825726   6.170   7.207   3.168 -1.4277 -1.3872 -1.7952
   80MOL   H28925727   6.284   7.140   3.060 -0.7105  0.7288  0.5251
   80MOL   C29025728   6.192   7.314   2.989 -0.0701  0.3551 -0.0819
   80MOL   C29125729   6.143   7.450   3.051 -0.5341 -0.2461  0.1359
   80MOL   C29225730   6.214   7.574   3.029  0.1863 -0.6388 -0.1180
   80MOL  Cl29325731   6.367   7.583   2.944  0.4589  0.2217  0.8409
   80MOL   C29425732   6.155   7.699   3.073  0.0495 -0.5101 -0.1082
   80MOL   C29525733   6.033   7.703   3.146 -0.5524  0.6238 -0.5331
   80MOL   C29625734   5.968   7.579   3.175  0.4068  0.1389  0.1717
   80MOL   C29725735   6.021   7.453   3.123  0.3304 -0.0488 -0.0073
   80MOL   C29825736   6.078   7.234   2.915  0.2345 -0.3210  0.5801
   80MOL   H29925737   6.274   7.331   2.920 -0.6794  0.6011 -0.7505
   80MOL   H30025738   6.206   7.791   3.049 -0.3480  0.0184  1.0589
   80MOL   H30125739   5.990   7.797   3.176 -0.3104  0.8834 -0.9916
   80MOL   H30225740   5.875   7.589   3.229  0.7154  1.3685  0.4899
   80MOL   H30325741   5.969   7.361   3.145 -0.2504  0.2230 -0.2307
   80MOL   H30425742   5.997   7.197   2.978 -1.1082 -0.9055 -1.4587
   80MOL   H30525743   6.127   7.149   2.867  2.5880  2.2393 -1.6746
   80MOL   C30625744   6.006   7.313   2.811 -0.2890 -0.3657 -0.1420
   80MOL   C30725745   5.889   7.238   2.747  0.1139 -0.6974 -0.1886
   80MOL   C30825746   5.755   7.264   2.796  0.2652  0.2826 -0.1802
   80MOL  Cl30925747   5.715   7.351   2.931  0.4747  0.4421  0.0716
   80MOL   C31025748   5.649   7.192   2.727 -0.1633  0.7486 -0.4244
   80MOL   C31125749   5.672   7.103   2.618 -0.2616  0.0975 -0.4438
   80MOL   C31225750   5.810   7.076   2.580  0.3351  0.0986 -0.4305
   80MOL   C31325751   5.915   7.146   2.642 -0.5915 -0.2791 -0.0742
   80MOL   C31425752   6.092   7.377   2.696  0.3869 -0.1214 -0.2276
   80MOL   H31525753   5.958   7.397   2.861  0.6000  0.9236 -1.4205
   80MOL   H31625754   5.546   7.208   2.756 -0.1791  1.7399 -1.0279
   80MOL   H31725755   5.583   7.056   2.578 -2.0983  1.2889  2.0199
   80MOL   H31825756   5.833   7.016   2.494 -0.1965 -0.5265 -0.1399
   80MOL   H31925757   6.014   7.121   2.609 -0.7416  0.6858 -1.3259
   80MOL   H32025758   6.035   7.444   2.632 -0.6640 -0.6640  0.1253
   80MOL   H32125759   6.144   7.300   2.639  0.5442 -0.1737 -0.0156
   80MOL   H32225760   6.177   7.433   2.736 -1.0236  0.4138  2.1286
   81MOL     C125761   0.427   5.791   0.353 -0.5287  0.7150 -0.0542
   81MOL     C225762   0.525   5.903   0.360  0.0548 -0.3735 -0.2557
   81MOL     C325763   0.524   6.008   0.266 -0.7965 -0.3401  0.2317
   81MOL    Cl425764   0.414   6.009   0.130  0.2045 -0.1074 -0.4815
   81MOL     C525765   0.616   6.114   0.278 -0.2559 -0.4685 -0.2447
   81MOL     C625766   0.704   6.126   0.389  0.3547 -0.2880  0.3090
   81MOL     C725767   0.711   6.013   0.477  0.5699 -0.2199  0.0689
   81MOL     C825768   0.621   5.906   0.459 -0.1674  0.1523 -0.7074
   81MOL     C925769   0.304   5.827   0.437  0.1157  0.3895  0.0766
   81MOL    H1025770   0.393   5.772   0.252 -1.0042 -3.5027  0.8022
   81MOL    H1125771   0.620   6.187   0.198  3.7636  1.2904  1.4135
   81MOL    H1225772   0.762   6.217   0.392 -1.5822  0.9862 -0.0625
   81MOL    H1325773   0.779   6.014   0.560  0.7185 -1.0062 -0.0430
   81MOL    H1425774   0.638   5.827   0.530 -0.5693 -1.3993 -2.3128
   81MOL    H1525775   0.259   5.913   0.388 -0.1602  0.3015  0.1735
   81MOL    H1625776   0.337   5.846   0.539  0.2335  0.0440  0.1046
   81MOL    H1725777   0.465   5.695   0.389 -1.8350  0.1173 -0.2141
   81MOL    C1825778   0.184   5.723   0.435 -0.0285 -0.7398  0.3871
   81MOL    C1925779   0.061   5.789   0.503 -0.0339  0.4474  0.5951
   81MOL    C2025780   8.368   5.824   0.426  0.1939 -0.6056 -0.1718
   81MOL   Cl2125781   8.353   5.797   0.255  0.2142  0.0030 -0.4658
   81MOL    C2225782   8.258   5.871   0.494 -0.1631 -0.3652 -0.1327
   81MOL    C2325783   8.254   5.892   0.639 -0.6903 -0.1018 -0.3841
   81MOL    C2425784   8.369   5.868   0.711 -0.3145  0.0900  0.1415
   81MOL    C2525785   0.062   5.818   0.645 -0.7279  0.3223  0.8977
   81MOL    C2625786   0.218   5.588   0.508 -0.4870 -0.3278 -0.1647
   81MOL    H2725787   0.166   5.687   0.334 -1.2974  1.5529 -0.2516
   81MOL    H2825788   8.167   5.890   0.438 -0.4106 -1.8379 -0.2680
   81MOL    H2925789   8.166   5.920   0.695 -0.2872 -1.3794  0.9234
   81MOL    H3025790   8.367   5.889   0.817  2.6804  0.9422  0.0763
   81MOL    H3125791   0.155   5.817   0.701 -1.3609 -0.9102  1.9576
   81MOL    H3225792   0.239   5.628   0.608 -1.5643  0.2571 -0.1607
   81MOL    H3325793   0.307   5.544   0.464  0.9238  2.1006  0.1344
   81MOL    C3425794   0.103   5.491   0.519  0.2141 -0.2617 -1.1129
   81MOL    C3525795   0.115   5.370   0.610 -0.5993  0.0867  0.3172
   81MOL    C3625796   0.007   5.297   0.679  0.4849 -0.0425  0.9283
   81MOL   Cl3725797   8.264   5.357   0.664 -0.6933  0.0980 -0.0132
   81MOL    C3825798   0.030   5.185   0.762 -0.4588  0.1209  0.2841
   81MOL    C3925799   0.161   5.154   0.797  0.5212  0.0050  0.6020
   81MOL    C4025800   0.270   5.218   0.739 -0.8726 -0.2108  0.2139
   81MOL    C4125801   0.249   5.324   0.647 -0.0468  0.5036  0.3633
   81MOL    C4225802   0.058   5.445   0.376 -0.0654  0.6594 -0.3911
   81MOL    H4325803   0.017   5.543   0.561  1.2538  1.0660 -0.5932
   81MOL    H4425804   8.361   5.148   0.811 -0.9717  1.0955  0.0874
   81MOL    H4525805   0.175   5.086   0.880  0.6234  1.6721  1.9813
   81MOL    H4625806   0.367   5.180   0.769 -1.7022 -3.5944 -1.1576
   81MOL    H4725807   0.337   5.373   0.608  0.8147 -0.1177  1.5021
   81MOL    H4825808   0.021   5.537   0.331  1.0452  0.0852 -2.5430
   81MOL    H4925809   8.394   5.379   0.396  0.1976  0.3281 -0.3582
   81MOL    C5025810   0.162   5.360   0.299  0.4155  0.6237  0.1410
   81MOL    C5125811   0.256   5.446   0.211 -0.4719  0.2427 -0.2762
   81MOL    C5225812   0.396   5.437   0.220 -0.4791  0.6432  0.0492
   81MOL   Cl5325813   0.479   5.352   0.346 -0.0921  0.2820  0.0463
   81MOL    C5425814   0.481   5.512   0.134  0.1346  0.4177  0.2089
   81MOL    C5525815   0.423   5.581   0.030  0.3925 -0.7639 -0.0913
   81MOL    C5625816   0.280   5.594   0.015  0.0802 -0.4026  0.1217
   81MOL    C5725817   0.197   5.517   0.103 -0.1544  0.1537  0.0684
   81MOL    C5825818   0.085   5.246   0.220 -0.1507 -0.0343 -0.1245
   81MOL    H5925819   0.223   5.299   0.367  0.8112  0.9098  0.0417
   81MOL    H6025820   0.589   5.510   0.146  0.1336  1.1890  0.3711
   81MOL    H6125821   0.487   5.634   8.382  0.7985 -0.7933  0.2673
   81MOL    H6225822   0.238   5.652   8.354 -0.4949 -1.1869 -0.1424
   81MOL    H6325823   0.089   5.515   0.091  0.0184  1.4533 -1.9742
   81MOL    H6425824   8.419   5.297   0.178  0.0578  0.4823  0.0612
   81MOL    H6525825   0.060   5.175   0.299  3.1876 -0.2017  0.8729
   81MOL    C6625826   0.171   5.174   0.112 -0.1366  0.3192 -0.3051
   81MOL    C6725827   0.075   5.098   0.022 -0.2406  0.0234 -0.1120
   81MOL    C6825828   0.071   5.106   8.303 -0.0336 -0.6079 -0.1531
   81MOL   Cl6925829   0.189   5.184   8.216 -0.5109 -0.2302 -0.0195
   81MOL    C7025830   8.388   5.047   8.230 -0.1584  0.4754 -0.5440
   81MOL    C7125831   8.290   4.969   8.301  0.3343 -1.0468 -0.4661
   81MOL    C7225832   8.306   4.946   0.023  1.1879  0.1682  0.1400
   81MOL    C7325833   8.410   5.004   0.085 -0.6808 -0.8661  0.2293
   81MOL    C7425834   0.277   5.078   0.160  0.7935 -0.0326  0.3648
   81MOL    H7525835   0.213   5.253   0.051 -1.4753  1.9021  0.7659
   81MOL    H7625836   8.372   5.074   8.127  0.1715  0.3235 -0.6366
   81MOL    H7725837   8.206   4.920   8.253  0.3936 -0.8320 -0.7919
   81MOL    H7825838   8.251   4.875   0.082  1.2317 -1.2430 -1.4644
   81MOL    H7925839   8.413   4.996   0.192 -0.0101  0.8888  0.3390
   81MOL    H8025840   0.232   4.982   0.185 -0.7315  0.2807 -1.1115
   81MOL    H8125841   0.316   5.114   0.256  1.5858 -0.1760  0.1032
   81MOL    C8225842   0.396   5.049   0.072  0.4237 -0.4990  0.6587
   81MOL    C8325843   0.486   4.931   0.126 -0.7060 -0.3583 -0.7451
   81MOL    C8425844   0.499   4.803   0.065 -0.3500  0.1627  0.1665
   81MOL   Cl8525845   0.402   4.756   8.351  0.3498 -0.2809  0.1003
   81MOL    C8625846   0.582   4.703   0.121  0.9725  0.4272 -0.2951
   81MOL    C8725847   0.653   4.726   0.243 -0.1462 -0.3156 -0.1936
   81MOL    C8825848   0.649   4.853   0.292  0.0249 -0.1817 -0.1752
   81MOL    C8925849   0.569   4.957   0.238 -0.0735  0.3141 -0.1783
   81MOL    C9025850   0.487   5.175   0.012 -0.1055 -0.3984 -0.4932
   81MOL    H9125851   0.340   5.005   8.410  2.9673  2.1427 -2.6010
   81MOL    H9225852   0.580   4.601   0.085 -2.2276 -0.2726  1.6688
   81MOL    H9325853   0.726   4.649   0.261 -0.6456 -0.4975  1.1054
   81MOL    H9425854   0.728   4.878   0.361  0.3586 -1.7432  0.0388
   81MOL    H9525855   0.585   5.054   0.282 -0.4099 -0.5868  1.9705
   81MOL    H9625856   0.542   5.202   0.102  0.1736 -3.9206  0.4939
   81MOL    H9725857   0.419   5.256   8.405 -0.4136 -0.8596 -1.0955
   81MOL    C9825858   0.589   5.131   8.325  0.0063  0.0541 -0.6274
   81MOL    C9925859   0.679   5.248   8.293 -0.2807  0.2715 -0.2390
   81MOL   C10025860   0.823   5.243   8.314  0.1997 -0.4598  0.4099
   81MOL  Cl10125861   0.890   5.107   8.400  0.2727  0.1683 -0.1747
   81MOL   C10225862   0.910   5.347   8.266 -0.1607 -0.5489 -0.3338
   81MOL   C10325863   0.847   5.463   8.214 -0.2457 -0.3105 -0.2012
   81MOL   C10425864   0.709   5.478   8.207 -0.1322  0.2337  0.2138
   81MOL   C10525865   0.619   5.366   8.241 -0.1738 -0.4700  0.4863
   81MOL   C10625866   0.519   5.081   8.197  0.0444  0.1475  0.1420
   81MOL   H10725867   0.641   5.049   8.373  0.0956 -0.5700 -1.7718
   81MOL   H10825868   1.017   5.341   8.278 -0.0481 -0.1697 -1.1232
   81MOL   H10925869   0.905   5.553   8.198  0.2494 -0.1115  2.4002
   81MOL   H11025870   0.658   5.570   8.182  0.3341 -0.2080 -2.5267
   81MOL   H11125871   0.514   5.375   8.216  0.5861  1.1000 -2.3959
   81MOL   H11225872   0.480   5.172   8.151 -1.3970 -1.0153 -0.9816
   81MOL   H11325873   0.431   5.025   8.228 -1.1793  1.1520 -1.4630
   81MOL   C11425874   0.600   5.008   8.091 -0.5720 -0.0838 -0.7671
   81MOL   C11525875   0.503   4.973   7.975 -0.6456 -0.5995  0.2506
   81MOL   C11625876   0.499   5.049   7.854  0.1263 -0.2456  0.1388
   81MOL  Cl11725877   0.607   5.178   7.835 -0.2916  0.2794  0.0161
   81MOL   C11825878   0.401   5.019   7.751 -0.0652  1.2165  1.1346
   81MOL   C11925879   0.319   4.908   7.770 -0.2633 -0.8275  0.7940
   81MOL   C12025880   0.315   4.839   7.893  1.0502 -0.1170  0.7078
   81MOL   C12125881   0.400   4.868   7.998  0.3616 -0.6367  0.2021
   81MOL   C12225882   0.675   4.886   8.141  0.0728 -0.3578 -0.4605
   81MOL   H12325883   0.675   5.081   8.060 -0.3961  0.8599  1.7556
   81MOL   H12425884   0.401   5.076   7.658  0.9072 -0.4230  0.0986
   81MOL   H12525885   0.244   4.886   7.694 -3.4000 -0.3212  3.6230
   81MOL   H12625886   0.234   4.771   7.915  1.7138  0.2854  4.7757
   81MOL   H12725887   0.394   4.810   8.089  2.2231  0.8234  1.2958
   81MOL   H12825888   0.609   4.814   8.189 -1.7363  2.5519  1.5766
   81MOL   H12925889   0.737   4.921   8.224  0.9992 -0.0641 -1.2639
   81MOL   C13025890   0.756   4.800   8.056 -0.0828  0.0312  0.0313
   81MOL   C13125891   0.840   4.704   8.141  0.2391  0.5932 -0.4557
   81MOL   C13225892   0.816   4.563   8.152 -0.1857  0.0971 -0.0959
   81MOL  Cl13325893   0.680   4.487   8.090  0.4197  0.3549  0.1217
   81MOL   C13425894   0.904   4.483   8.230 -0.1781 -0.0902 -0.3884
   81MOL   C13525895   0.994   4.539   8.316 -0.2830  0.1984 -0.2020
   81MOL   C13625896   1.016   4.679   8.309 -0.1620 -0.6351 -0.1032
   81MOL   C13725897   0.943   4.758   8.219  0.4652 -0.2802 -1.1352
   81MOL   C13825898   0.837   4.880   7.947 -0.3297  0.0951  0.8663
   81MOL   H13925899   0.696   4.739   7.989  0.9330  1.3459 -2.1393
   81MOL   H14025900   0.895   4.377   8.215  2.2355 -0.4744  0.6710
   81MOL   H14125901   1.057   4.468   8.367 -0.2507 -0.3497 -0.9920
   81MOL   H14225902   1.092   4.719   8.374 -0.9379 -0.2387  0.5582
   81MOL   H14325903   0.982   4.859   8.215 -2.5269  0.9789  0.0509
   81MOL   H14425904   0.924   4.925   7.995  1.0415 -2.0406  0.4653
   81MOL   H14525905   0.779   4.959   7.901  1.2023  0.0845 -1.1352
   81MOL   C14625906   0.891   4.800   7.832 -0.2159 -0.1391  0.2623
   81MOL   C14725907   1.026   4.727   7.868 -0.8635  0.4801 -0.2183
   81MOL   C14825908   1.037   4.585   7.856  0.0117 -0.5905  0.1629
   81MOL  Cl14925909   0.904   4.484   7.814  0.0522  0.4057 -0.1926
   81MOL   C15025910   1.163   4.532   7.877  0.0366  0.4458 -0.2504
   81MOL   C15125911   1.278   4.608   7.902  0.4493 -0.4840 -0.1225
   81MOL   C15225912   1.273   4.745   7.905 -0.0073  0.3533 -0.2663
   81MOL   C15325913   1.144   4.804   7.886  0.6977 -0.2864 -0.5762
   81MOL   C15425914   0.914   4.886   7.704  0.4928  0.3130 -0.5421
   81MOL   H15525915   0.808   4.737   7.797 -1.1075  0.8645  0.5651
   81MOL   H15625916   1.190   4.427   7.876  0.0224  0.3523 -4.9980
   81MOL   H15725917   1.372   4.555   7.905 -0.0452 -1.3083  1.1627
   81MOL   H15825918   1.367   4.797   7.905  0.3144 -0.2021  1.5610
   81MOL   H15925919   1.152   4.912   7.881 -1.4111 -0.1230 -0.5517
   81MOL   H16025920   0.945   4.985   7.740 -0.4454  0.5609 -0.4217
   81MOL   H16125921   0.819   4.919   7.664  0.6788  0.8063 -0.5923
   81MOL   C16225922   1.014   4.843   7.588  0.0539 -0.1160  0.3759
   81MOL   C16325923   1.018   4.957   7.486 -0.5251  0.1116 -0.4415
   81MOL   C16425924   1.095   5.075   7.504 -0.1282  0.1349  0.3058
   81MOL  Cl16525925   1.197   5.098   7.643  0.2486  0.0503 -0.2273
   81MOL   C16625926   1.088   5.175   7.408 -0.3720 -0.3025 -0.0029
   81MOL   C16725927   1.011   5.154   7.290  0.1657  0.2855 -0.5910
   81MOL   C16825928   0.954   5.035   7.260 -0.4657  0.0942 -0.3888
   81MOL   C16925929   0.950   4.938   7.358  0.2488  0.3804 -0.3911
   81MOL   C17025930   0.997   4.705   7.518  0.3785  0.1280 -0.3905
   81MOL   H17125931   1.111   4.846   7.638  0.7113 -2.4386 -0.6894
   81MOL   H17225932   1.130   5.273   7.419 -1.4591  0.2199 -0.4986
   81MOL   H17325933   1.009   5.238   7.222 -1.1318 -0.9590 -2.1135
   81MOL   H17425934   0.901   5.031   7.167  0.6224  4.1055 -1.2818
   81MOL   H17525935   0.885   4.853   7.345  0.3357  0.5358 -1.8196
   81MOL   H17625936   0.897   4.696   7.476  0.5585  1.0507 -1.0324
   81MOL   H17725937   0.994   4.626   7.594 -2.2332 -0.1316 -0.7097
   81MOL   C17825938   1.115   4.649   7.427 -0.3510  0.0708  0.1160
   81MOL   C17925939   1.073   4.506   7.401 -0.8807  1.3843  0.1439
   81MOL   C18025940   0.992   4.471   7.292 -0.1549 -0.1043  0.2794
   81MOL  Cl18125941   0.936   4.594   7.181 -0.2341 -0.0417  0.3249
   81MOL   C18225942   0.956   4.338   7.268  0.6987  0.0296  0.1145
   81MOL   C18325943   1.006   4.239   7.360 -0.0034  0.0491  0.0822
   81MOL   C18425944   1.063   4.279   7.484  0.0670 -0.3076 -0.5396
   81MOL   C18525945   1.103   4.412   7.504  0.3566 -0.4758 -0.1730
   81MOL   C18625946   1.252   4.676   7.487 -0.2790 -0.7666 -0.1403
   81MOL   H18725947   1.104   4.712   7.338  3.9330  1.5721  0.5346
   81MOL   H18825948   0.901   4.307   7.181 -0.4738  1.6987  0.2371
   81MOL   H18925949   0.997   4.134   7.337  0.2358  0.0435  0.0078
   81MOL   H19025950   1.086   4.203   7.557  0.8424  0.6299  0.1997
   81MOL   H19125951   1.156   4.439   7.595 -0.3778 -2.9517  1.0306
   81MOL   H19225952   1.240   4.645   7.591  0.2430 -1.5585 -0.3067
   81MOL   H19325953   1.277   4.782   7.488  1.4519 -1.1643 -0.5156
   81MOL   C19425954   1.376   4.600   7.424 -0.5415 -0.2739 -0.3109
   81MOL   C19525955   1.482   4.585   7.530  0.3388 -0.4618  0.2138
   81MOL   C19625956   1.536   4.460   7.558 -0.3359  0.2089  0.5261
   81MOL  Cl19725957   1.506   4.316   7.468  0.0840 -0.5049  0.0669
   81MOL   C19825958   1.646   4.440   7.642  0.5134 -0.1170 -0.2022
   81MOL   C19925959   1.687   4.550   7.724  1.0640  0.0084 -0.1021
   81MOL   C20025960   1.625   4.673   7.709  0.0678  0.0117  0.1770
   81MOL   C20125961   1.533   4.693   7.606 -0.1826  0.6147 -0.0028
   81MOL   C20225962   1.424   4.669   7.296  0.6488  0.3695  0.3948
   81MOL   H20325963   1.350   4.496   7.403 -0.3327  0.0621 -2.3499
   81MOL   H20425964   1.706   4.350   7.642  0.8361  0.0963 -0.5101
   81MOL   H20525965   1.771   4.546   7.791  0.1938 -0.5359  0.9767
   81MOL   H20625966   1.654   4.754   7.775  0.8880 -1.1562  1.2872
   81MOL   H20725967   1.483   4.789   7.603 -2.6848 -0.5961  1.1571
   81MOL   H20825968   1.498   4.744   7.323  0.2540  0.5715  0.9269
   81MOL   H20925969   1.345   4.729   7.252 -0.1071 -0.3921  0.7101
   81MOL   C21025970   1.469   4.568   7.193  0.0221 -0.4672 -1.2827
   81MOL   C21125971   1.568   4.625   7.099 -0.1906 -0.0721  0.1242
   81MOL   C21225972   1.707   4.592   7.104  0.4063  0.0702 -0.0816
   81MOL  Cl21325973   1.776   4.489   7.227  0.1589 -0.1954 -0.1056
   81MOL   C21425974   1.795   4.644   7.009  0.2417  0.3401  0.5974
   81MOL   C21525975   1.746   4.731   6.910  0.0932  0.8304  0.2257
   81MOL   C21625976   1.604   4.760   6.900 -0.8003  0.0730 -0.3262
   81MOL   C21725977   1.519   4.707   6.995  0.1779  0.0270  0.3785
   81MOL   C21825978   1.350   4.492   7.132  0.3613  0.4770  0.2490
   81MOL   H21925979   1.520   4.486   7.243  1.2269  0.8105 -0.3815
   81MOL   H22025980   1.898   4.616   7.025  0.4015 -0.2942 -1.3168
   81MOL   H22125981   1.809   4.768   6.830 -0.6891 -0.3137 -0.9527
   81MOL   H22225982   1.564   4.813   6.815 -0.6353  0.5257 -0.1261
   81MOL   H22325983   1.414   4.734   6.992  0.0005 -0.6256  0.4700
   81MOL   H22425984   1.309   4.571   7.069  0.0007  0.8170  0.9197
   81MOL   H22525985   1.267   4.476   7.201 -0.2340 -2.6583 -1.1015
   81MOL   C22625986   1.378   4.365   7.049  0.5417  0.3101 -0.0125
   81MOL   C22725987   1.285   4.367   6.925  0.2467  0.8750  0.2967
   81MOL   C22825988   1.337   4.389   6.793 -0.3445  0.3413 -0.3900
   81MOL  Cl22925989   1.500   4.428   6.771 -0.2401  0.4895 -0.2040
   81MOL   C23025990   1.250   4.383   6.679 -0.2299 -0.2099  0.4772
   81MOL   C23125991   1.119   4.347   6.698  0.4382  0.1202 -0.3719
   81MOL   C23225992   1.065   4.319   6.824 -0.1220  0.0342  0.2355
   81MOL   C23325993   1.141   4.344   6.938 -1.0172 -0.0362  0.0019
   81MOL   C23425994   1.350   4.241   7.142  0.0134  0.3756 -0.4313
   81MOL   H23525995   1.484   4.366   7.022  0.7791  0.3032  0.9096
   81MOL   H23625996   1.299   4.399   6.584 -0.0295 -0.6698  0.5022
   81MOL   H23725997   1.063   4.336   6.606  0.9552 -3.1742 -0.3713
   81MOL   H23825998   0.959   4.310   6.839 -0.4237 -0.1970 -1.8621
   81MOL   H23925999   1.099   4.335   7.037 -0.3087  0.2478  0.3319
   81MOL   H24026000   1.265   4.260   7.208  0.2337 -0.5597  0.1215
   81MOL   H24126001   1.431   4.227   7.213 -1.3656  0.1303  1.1155
   81MOL   C24226002   1.327   4.104   7.069  0.2468  0.2087  0.4056
   81MOL   C24326003   1.261   4.010   7.169  0.1507  0.3038 -0.6278
   81MOL   C24426004   1.129   3.964   7.147  0.8177  0.4525  0.4380
   81MOL  Cl24526005   1.039   4.006   7.004  0.0001 -0.0623  0.1355
   81MOL   C24626006   1.063   3.891   7.250  0.4036 -0.2565  0.2161
   81MOL   C24726007   1.124   3.873   7.379  0.4581  0.3833  0.6135
   81MOL   C24826008   1.254   3.907   7.397  0.2544  0.1767  0.2151
   81MOL   C24926009   1.323   3.977   7.297  0.5737  0.1645 -0.1481
   81MOL   C25026010   1.455   4.051   7.009 -0.3716  0.5408  0.9035
   81MOL   H25126011   1.265   4.126   6.983  1.3308  0.7399 -0.2434
   81MOL   H25226012   0.967   3.842   7.240 -0.0999  0.4506  1.4402
   81MOL   H25326013   1.067   3.829   7.459  0.7970  1.8003  1.6444
   81MOL   H25426014   1.301   3.898   7.494 -0.7501  0.2364  0.7154
   81MOL   H25526015   1.415   4.027   7.327  1.3258 -1.9672  1.2105
   81MOL   H25626016   1.502   3.981   7.078  0.4599  0.8876  0.7015
   81MOL   H25726017   1.525   4.135   7.005  0.6298 -0.3311 -0.8644
   81MOL   C25826018   1.450   4.003   6.862 -0.0300  0.5241 -0.4461
   81MOL   C25926019   1.337   3.895   6.847  0.1368  0.0478  0.6223
   81MOL   C26026020   1.229   3.900   6.753  0.4037  0.2957  0.1938
   81MOL  Cl26126021   1.215   4.026   6.640  0.2243  0.3050 -0.1553
   81MOL   C26226022   1.126   3.801   6.759 -0.0593 -0.4994 -0.3163
   81MOL   C26326023   1.129   3.705   6.858 -0.4225 -0.1880 -0.7050
   81MOL   C26426024   1.238   3.703   6.949 -0.1861  0.1665  0.2622
   81MOL   C26526025   1.348   3.788   6.935  0.4800 -0.3477 -0.2973
   81MOL   C26626026   1.592   3.955   6.819  0.0992 -0.1691 -1.0815
   81MOL   H26726027   1.427   4.092   6.803  1.3459  0.3881 -1.2156
   81MOL   H26826028   1.042   3.803   6.691 -0.4933 -0.1791  0.2214
   81MOL   H26926029   1.052   3.629   6.859 -2.9758  2.2986 -0.5023
   81MOL   H27026030   1.254   3.625   7.022 -1.3387 -0.2563  0.0809
   81MOL   H27126031   1.422   3.788   7.013 -0.5150 -2.0508  0.6851
   81MOL   H27226032   1.606   3.879   6.896 -2.4195  1.7946  1.4091
   81MOL   H27326033   1.673   4.027   6.832  0.3584 -1.0002  2.4698
   81MOL   C27426034   1.611   3.884   6.679  0.7377  0.3185  0.1463
   81MOL   C27526035   1.740   3.808   6.676 -0.1061 -0.2220  1.1196
   81MOL   C27626036   1.745   3.672   6.712  0.4115 -0.0667  0.0258
   81MOL  Cl27726037   1.607   3.572   6.749  0.5946 -0.3438  0.2731
   81MOL   C27826038   1.865   3.607   6.703 -0.3373 -0.2143 -0.1410
   81MOL   C27926039   1.987   3.664   6.679  0.1382  0.1432  1.1429
   81MOL   C28026040   1.986   3.801   6.647  0.9150 -0.4994  0.0327
   81MOL   C28126041   1.857   3.868   6.641 -0.1348  0.0670 -0.3038
   81MOL   C28226042   1.586   4.006   6.574 -0.1060  0.3845 -0.7815
   81MOL   H28326043   1.529   3.812   6.674  0.7461  0.2636  0.7845
   81MOL   H28426044   1.851   3.502   6.724 -2.9502  0.1887  0.3284
   81MOL   H28526045   2.075   3.603   6.663  0.7858  1.2884  0.2104
   81MOL   H28626046   2.079   3.849   6.620  1.8227 -1.1674  1.9174
   81MOL   H28726047   1.854   3.969   6.604 -0.4104  0.6134  1.2138
   81MOL   H28826048   1.665   4.079   6.591 -0.2030  0.7107 -1.6975
   81MOL   H28926049   1.489   4.049   6.601 -0.4699 -2.0242  2.0227
   81MOL   C29026050   1.600   3.968   6.424  0.2364  1.3881  0.3209
   81MOL   C29126051   1.582   4.103   6.349  0.1715  0.1351 -0.1864
   81MOL   C29226052   1.682   4.189   6.312 -0.1236 -0.0148  0.4015
   81MOL  Cl29326053   1.855   4.142   6.335 -0.2671 -0.0785  0.5137
   81MOL   C29426054   1.665   4.313   6.248  0.1731  0.7954  0.7684
   81MOL   C29526055   1.534   4.357   6.224 -0.8491 -0.6146 -0.5043
   81MOL   C29626056   1.426   4.280   6.268  0.5006 -0.6542 -0.0071
   81MOL   C29726057   1.451   4.153   6.323  0.3903 -0.7740 -0.5729
   81MOL   C29826058   1.488   3.872   6.382 -0.4415 -0.2185  0.0005
   81MOL   H29926059   1.695   3.924   6.395 -0.7185 -0.6532  0.1607
   81MOL   H30026060   1.740   4.383   6.213 -2.8133  2.6815 -2.2104
   81MOL   H30126061   1.528   4.456   6.183  1.3700  0.3985  1.4946
   81MOL   H30226062   1.322   4.308   6.262  0.6388 -0.1934 -0.2794
   81MOL   H30326063   1.365   4.100   6.361 -0.5116 -0.5191 -2.2394
   81MOL   H30426064   1.453   3.885   6.279  2.6275  2.4295 -0.7807
   81MOL   H30526065   1.398   3.884   6.442 -1.6512  0.0135 -1.8095
   81MOL   C30626066   1.529   3.726   6.380 -0.0538 -0.2242  0.2818
   81MOL   C30726067   1.589   3.659   6.259  0.3155 -0.2161 -0.0505
   81MOL   C30826068   1.525   3.655   6.130  0.0274 -0.3530 -0.1314
   81MOL  Cl30926069   1.361   3.704   6.113 -0.4241 -0.3939  0.0458
   81MOL   C31026070   1.606   3.609   6.020 -0.2885  0.0176  0.6497
   81MOL   C31126071   1.742   3.570   6.035  0.0449  0.1596  0.0887
   81MOL   C31226072   1.794   3.565   6.163 -0.0251 -0.1465  0.0406
   81MOL   C31326073   1.725   3.610   6.274  0.4884 -0.4899 -0.2163
   81MOL   C31426074   1.404   3.645   6.436 -0.3539  0.6653  0.0288
   81MOL   H31526075   1.602   3.707   6.459  0.3767 -0.0767 -0.0787
   81MOL   H31626076   1.560   3.599   5.923 -0.7446 -1.1002  0.9818
   81MOL   H31726077   1.793   3.533   5.948  1.5875 -0.0509  1.0719
   81MOL   H31826078   1.898   3.537   6.170  0.0689  0.7082  2.7632
   81MOL   H31926079   1.778   3.615   6.368 -0.3328 -1.2352  0.2948
   81MOL   H32026080   1.437   3.545   6.466 -2.0770  0.3744  1.0246
   81MOL   H32126081   1.321   3.629   6.367 -1.4624  2.8531  0.8101
   81MOL   H32226082   1.360   3.689   6.525  2.7199 -1.5303  2.7467
   82MOL     C126083   0.142   3.095   8.184 -0.2371  0.5331  0.0250
   82MOL     C226084   0.087   2.976   8.265 -0.2196 -0.0361 -0.3759
   82MOL     C326085   0.091   2.846   8.206  0.2200  0.8294 -0.2017
   82MOL    Cl426086   0.167   2.810   8.063 -0.0696  0.4393 -0.0826
   82MOL     C526087   0.035   2.739   8.279 -0.0809 -0.0343 -1.2947
   82MOL     C626088   8.407   2.754   8.412  0.0680 -0.2784 -0.0633
   82MOL     C726089   8.402   2.880   0.048 -0.6494 -0.3981 -0.2099
   82MOL     C826090   0.032   2.989   8.393 -0.4761  0.7006 -0.4359
   82MOL     C926091   0.031   3.135   8.088 -1.2154 -0.7066  0.8112
   82MOL    H1026092   0.166   3.180   8.248  0.6326 -0.3152  0.8348
   82MOL    H1126093   0.051   2.640   8.237  2.0217  0.2471 -1.2466
   82MOL    H1226094   8.365   2.675   0.052 -1.9052 -0.2168 -1.3145
   82MOL    H1326095   8.351   2.888   0.143  3.3584  1.9639  1.9084
   82MOL    H1426096   0.035   3.087   0.018 -0.4044  0.0954  0.8717
   82MOL    H1526097   8.363   3.164   8.143 -1.2670  3.7115 -1.3761
   82MOL    H1626098   0.009   3.046   8.029  0.0759 -0.0338 -0.7387
   82MOL    H1726099   0.224   3.054   8.125  0.1210 -1.3826  1.7947
   82MOL    C1826100   0.075   3.243   7.979  0.6352  0.1680  0.5961
   82MOL    C1926101   0.121   3.371   8.044  0.1771  0.7817 -0.4473
   82MOL    C2026102   0.249   3.424   8.009  0.2501  0.3011 -0.4409
   82MOL   Cl2126103   0.346   3.355   7.886 -0.1801 -0.2531  0.6738
   82MOL    C2226104   0.293   3.548   8.067  0.7727 -0.4796 -0.7502
   82MOL    C2326105   0.214   3.620   8.159  0.1378 -0.2994 -0.1704
   82MOL    C2426106   0.084   3.568   8.192  0.3959 -0.2158 -0.4532
   82MOL    C2526107   0.038   3.446   8.128  0.0789  0.1414  0.5262
   82MOL    C2626108   8.372   3.263   7.887  0.3016 -0.1308 -0.2858
   82MOL    H2726109   0.151   3.195   7.917  0.7235 -2.2679  2.4864
   82MOL    H2826110   0.385   3.597   8.041  1.2195 -0.7551  0.2697
   82MOL    H2926111   0.252   3.706   8.211  1.0886  0.5003 -2.1440
   82MOL    H3026112   0.023   3.625   8.261  1.3655 -0.0863  0.3043
   82MOL    H3126113   8.357   3.413   8.141 -0.5848  1.4579 -1.1879
   82MOL    H3226114   8.297   3.296   7.959  0.7239 -2.2850  1.2063
   82MOL    H3326115   8.346   3.161   7.859  2.2493 -1.6347  3.0516
   82MOL    C3426116   8.384   3.359   7.769  0.2226 -0.3975  0.2622
   82MOL    C3526117   8.349   3.506   7.802  0.5107 -0.1304  0.7310
   82MOL    C3626118   0.010   3.607   7.749  0.1277 -0.3606  0.0209
   82MOL   Cl3726119   0.153   3.565   7.662 -0.1188 -0.1490 -0.3099
   82MOL    C3826120   8.404   3.740   7.778  0.5133 -0.3316  0.0313
   82MOL    C3926121   8.294   3.777   7.850 -0.2183  0.6179 -0.5623
   82MOL    C4026122   8.209   3.676   7.907 -0.9379  0.7839 -0.1571
   82MOL    C4126123   8.234   3.539   7.878 -0.3665 -0.5434  0.6706
   82MOL    C4226124   8.300   3.310   7.644  0.1183 -0.5926 -0.1586
   82MOL    H4326125   0.067   3.346   7.739 -0.1682 -2.1175 -0.4098
   82MOL    H4426126   0.048   3.823   7.750 -0.3790  0.7677  1.1970
   82MOL    H4526127   8.282   3.878   7.887  2.1236  0.3090  1.1760
   82MOL    H4626128   8.128   3.697   7.974  0.3489  0.2673  1.6041
   82MOL    H4726129   8.167   3.459   7.906 -1.1314 -0.8475 -1.8988
   82MOL    H4826130   8.337   3.383   7.571 -0.6091  0.7449  0.7871
   82MOL    H4926131   8.196   3.322   7.673  0.1992 -0.4218  0.0637
   82MOL    C5026132   8.335   3.163   7.594  0.2601 -0.5661  0.3216
   82MOL    C5126133   0.055   3.121   7.612 -0.0681 -0.2923  0.2120
   82MOL    C5226134   0.089   2.997   7.681  0.0422  0.2012 -0.3282
   82MOL   Cl5326135   8.393   2.897   7.754  0.1357 -0.0545  0.1104
   82MOL    C5426136   0.220   2.953   7.681 -0.5713  0.0495 -0.4823
   82MOL    C5526137   0.329   3.031   7.636  0.1105 -0.0009  0.6515
   82MOL    C5626138   0.300   3.150   7.572  0.7325  0.4891 -0.0568
   82MOL    C5726139   0.166   3.194   7.564  1.0615 -0.0127  0.1378
   82MOL    C5826140   8.301   3.135   7.447  0.3801  0.2434 -0.4701
   82MOL    H5926141   8.264   3.100   7.648  0.2608 -0.1536  0.8019
   82MOL    H6026142   0.241   2.861   7.733 -1.6708  0.7021  1.1813
   82MOL    H6126143   0.426   2.985   7.648  0.2852  0.0866 -0.3822
   82MOL    H6226144   0.373   3.213   7.523  0.0450  1.7332  0.4933
   82MOL    H6326145   0.139   3.281   7.507  0.9034  0.9698  1.6938
   82MOL    H6426146   8.351   3.042   7.418 -0.6273 -0.7046  0.7576
   82MOL    H6526147   8.348   3.216   7.392  0.6947  1.8916  2.1267
   82MOL    C6626148   8.147   3.113   7.422  0.1145  0.0981 -0.3888
   82MOL    C6726149   8.068   3.018   7.513 -0.2593 -0.1283  0.1234
   82MOL    C6826150   7.934   3.052   7.544  0.1086  0.4457 -0.6901
   82MOL   Cl6926151   7.855   3.197   7.501 -0.5340  0.2290 -0.0766
   82MOL    C7026152   7.865   2.963   7.627 -0.0153  0.7979  0.0828
   82MOL    C7126153   7.920   2.836   7.657  0.0587  0.6177 -0.3562
   82MOL    C7226154   8.050   2.805   7.613  0.3669  0.3238 -0.4717
   82MOL    C7326155   8.127   2.894   7.542  0.0400 -0.3001 -0.0077
   82MOL    C7426156   8.121   3.074   7.277 -0.6034  0.0711 -0.0537
   82MOL    H7526157   8.104   3.212   7.434 -1.9260 -0.9271  0.9610
   82MOL    H7626158   7.765   2.995   7.652 -0.6560 -0.1485 -1.2600
   82MOL    H7726159   7.872   2.758   7.715 -0.1842  0.1347 -1.1830
   82MOL    H7826160   8.088   2.707   7.637 -0.5974  0.2010  0.6460
   82MOL    H7926161   8.223   2.862   7.504  0.2060  0.7638 -0.5124
   82MOL    H8026162   8.016   3.046   7.271 -0.9325  0.7628  2.1124
   82MOL    H8126163   8.183   2.985   7.274 -0.6856  0.0479 -1.6664
   82MOL    C8226164   8.163   3.167   7.163  0.4639 -0.5952 -0.1160
   82MOL    C8326165   8.086   3.300   7.168  0.5773  0.2105 -0.1299
   82MOL    C8426166   7.946   3.309   7.160 -0.6499 -0.2898  0.5054
   82MOL   Cl8526167   7.839   3.187   7.097 -0.1766 -0.4252  0.4037
   82MOL    C8626168   7.888   3.433   7.192 -0.6006 -0.0649  0.3563
   82MOL    C8726169   7.962   3.540   7.231  0.3848 -0.2954 -0.5859
   82MOL    C8826170   8.103   3.534   7.236  0.6961 -0.7328 -0.2313
   82MOL    C8926171   8.162   3.418   7.197 -0.1385  0.0632 -0.1096
   82MOL    C9026172   8.150   3.103   7.020 -0.2119  0.4337 -0.0543
   82MOL    H9126173   8.268   3.187   7.188  0.8019 -0.6802 -1.4576
   82MOL    H9226174   7.780   3.443   7.186 -0.8175 -1.8226  1.2180
   82MOL    H9326175   7.906   3.630   7.252  0.7080 -0.1834 -0.1891
   82MOL    H9426176   8.159   3.620   7.271  0.2362  0.2097 -1.7619
   82MOL    H9526177   8.268   3.404   7.212  0.1077  0.3135 -1.5174
   82MOL    H9626178   8.145   3.179   6.942  1.3865  1.8432  1.1608
   82MOL    H9726179   8.058   3.045   7.023 -0.7660  1.1888 -1.7898
   82MOL    C9826180   8.275   3.017   6.981 -0.0198  0.0701 -0.5509
   82MOL    C9926181   8.403   3.089   6.941 -0.5859  0.1676 -0.2244
   82MOL   C10026182   0.101   3.078   7.017 -0.4597 -0.4910 -0.2789
   82MOL  Cl10126183   0.110   3.014   7.178  0.2454 -0.2113  0.0940
   82MOL   C10226184   0.226   3.133   6.964 -0.2927  0.0374  0.5785
   82MOL   C10326185   0.228   3.179   6.831  0.1008  0.3623 -0.3528
   82MOL   C10426186   0.109   3.199   6.760 -0.2117 -0.6476 -0.0403
   82MOL   C10526187   8.406   3.158   6.816 -0.3931 -0.0440  0.6584
   82MOL   C10626188   8.230   2.921   6.868 -0.5495 -0.3100 -1.1687
   82MOL   H10726189   8.300   2.949   7.062 -0.1471 -0.9392 -1.3409
   82MOL   H10826190   0.309   3.120   7.032  1.0573 -1.0493 -1.2332
   82MOL   H10926191   0.320   3.204   6.780  0.1106 -0.9208 -0.9936
   82MOL   H11026192   0.092   3.224   6.656 -3.4160 -2.9667 -0.1626
   82MOL   H11126193   8.317   3.166   6.755 -1.8425  0.7594  2.8057
   82MOL   H11226194   8.190   2.972   6.780  0.4878 -1.6990 -2.4844
   82MOL   H11326195   8.144   2.865   6.907  1.2490 -3.4624 -1.5140
   82MOL   C11426196   8.330   2.802   6.843 -0.1867  0.1029  0.4934
   82MOL   C11526197   0.004   2.830   6.729  0.2272  0.4653 -0.2478
   82MOL   C11626198   0.144   2.811   6.738  0.1006  0.0594 -0.3221
   82MOL  Cl11726199   0.217   2.757   6.886  0.1475 -0.1999  0.0294
   82MOL   C11826200   0.226   2.836   6.623  0.4794  0.4379  0.5202
   82MOL   C11926201   0.163   2.873   6.499 -0.2069 -0.2624  0.6813
   82MOL   C12026202   0.023   2.873   6.492 -0.0217  0.0664  0.6854
   82MOL   C12126203   8.365   2.851   6.605 -0.1727 -0.2814  0.1262
   82MOL   C12226204   8.261   2.677   6.811 -0.4652 -0.3939  0.2836
   82MOL   H12326205   8.387   2.779   6.933  2.7286 -0.9915 -1.5407
   82MOL   H12426206   0.333   2.848   6.633  0.4313 -0.7404  2.6933
   82MOL   H12526207   0.228   2.889   6.414 -0.8380 -2.7287 -0.2924
   82MOL   H12626208   8.397   2.884   6.396  1.8270 -1.3020 -0.4119
   82MOL   H12726209   8.257   2.850   6.609 -0.2346 -0.0457 -1.2846
   82MOL   H12826210   8.310   2.615   6.735 -2.3947  1.6843 -2.7735
   82MOL   H12926211   8.175   2.701   6.747 -0.1027 -1.7266 -0.7301
   82MOL   C13026212   8.224   2.590   6.930 -0.5155  0.0268  0.3079
   82MOL   C13126213   8.346   2.542   7.002  0.1471  1.2879  0.1581
   82MOL   C13226214   8.374   2.570   7.141 -0.1628  0.4547 -0.0064
   82MOL  Cl13326215   8.282   2.690   7.229 -0.2083  0.1665  0.2777
   82MOL   C13426216   0.057   2.492   7.207  0.3313 -0.5182  0.0980
   82MOL   C13526217   0.138   2.402   7.135  0.1996  0.1240  0.2773
   82MOL   C13626218   0.121   2.395   7.000 -0.4251 -0.5478 -0.0825
   82MOL   C13726219   0.025   2.469   6.930 -0.2544 -0.1346 -0.3691
   82MOL   C13826220   8.121   2.480   6.897  0.1482 -0.0465 -0.6523
   82MOL   H13926221   8.170   2.656   6.997 -1.3429  0.3318 -0.6523
   82MOL   H14026222   0.078   2.514   7.310 -1.3140 -0.9850  0.5485
   82MOL   H14126223   0.216   2.347   7.185 -0.1911 -0.9851 -0.3207
   82MOL   H14226224   0.191   2.347   6.933  0.2940  1.6317 -0.9179
   82MOL   H14326225   0.013   2.469   6.823 -1.4575  3.6265 -0.3118
   82MOL   H14426226   8.130   2.410   6.980  0.2187  0.3341 -0.3412
   82MOL   H14526227   8.155   2.435   6.803  4.0848  1.1821  0.0741
   82MOL   C14626228   7.977   2.532   6.890 -0.2332 -0.2497 -0.7607
   82MOL   C14726229   7.921   2.624   7.000 -0.7382  0.1899  0.6885
   82MOL   C14826230   7.848   2.744   6.975  0.1467 -0.2601  0.7306
   82MOL  Cl14926231   7.792   2.782   6.818 -0.2688  0.2187 -0.0640
   82MOL   C15026232   7.799   2.814   7.084  0.2850 -0.0548  0.0385
   82MOL   C15126233   7.814   2.766   7.218 -0.2377  0.0835 -0.6300
   82MOL   C15226234   7.889   2.653   7.244  0.4542 -0.2119 -0.1489
   82MOL   C15326235   7.942   2.585   7.135 -0.0088 -0.2721  0.4222
   82MOL   C15426236   7.888   2.408   6.862 -0.2258  0.8234  0.0258
   82MOL   H15526237   7.975   2.603   6.808 -0.4486  1.1148  0.3962
   82MOL   H15626238   7.734   2.899   7.067  0.9707  0.7104  1.1915
   82MOL   H15726239   7.762   2.808   7.303 -1.2283  0.0135 -1.1860
   82MOL   H15826240   7.902   2.607   7.341 -0.7737  0.2859  0.2542
   82MOL   H15926241   7.992   2.490   7.147  0.3864  0.0135  1.0784
   82MOL   H16026242   7.785   2.440   6.870 -0.7412 -0.2017 -2.0300
   82MOL   H16126243   7.896   2.342   6.948  0.7605  0.0276 -0.6521
   82MOL   C16226244   7.905   2.338   6.729 -0.0854  0.1565  0.8919
   82MOL   C16326245   7.910   2.436   6.609  0.6327  0.0003  0.0029
   82MOL   C16426246   8.010   2.430   6.510  0.5873  0.5146  0.2283
   82MOL  Cl16526247   8.148   2.324   6.521 -0.0099  0.1801 -0.1362
   82MOL   C16626248   8.001   2.503   6.393  0.7038  0.5532 -0.8836
   82MOL   C16726249   7.890   2.593   6.372 -0.0772 -0.1810  0.0710
   82MOL   C16826250   7.789   2.603   6.471 -0.3518  0.6650 -0.4353
   82MOL   C16926251   7.800   2.525   6.585  1.1080  0.6076 -0.7926
   82MOL   C17026252   7.796   2.236   6.702  0.2807 -0.4791 -0.4240
   82MOL   H17126253   7.999   2.282   6.731 -0.1034  0.1027  0.4748
   82MOL   H17226254   8.085   2.499   6.325  0.4964 -1.3888 -1.0336
   82MOL   H17326255   7.884   2.650   6.280 -1.2166  2.4664  1.7126
   82MOL   H17426256   7.694   2.652   6.456 -0.4382  0.8035  0.5130
   82MOL   H17526257   7.718   2.525   6.655  0.7993  1.7800 -1.1512
   82MOL   H17626258   7.812   2.186   6.606  1.0253  0.4158 -0.7804
   82MOL   H17726259   7.702   2.291   6.701  0.3573 -0.3321  0.6164
   82MOL   C17826260   7.790   2.115   6.797  0.2367  0.3376  1.0852
   82MOL   C17926261   7.925   2.047   6.807 -0.1326 -0.0808 -0.0722
   82MOL   C18026262   7.973   1.992   6.927 -0.2149 -0.5687  0.3697
   82MOL  Cl18126263   7.870   2.004   7.068 -0.2703  0.2564  0.2495
   82MOL   C18226264   8.091   1.919   6.940 -0.8111 -0.8060  0.3803
   82MOL   C18326265   8.168   1.907   6.826  0.7154  0.5363  0.4905
   82MOL   C18426266   8.128   1.965   6.703 -0.0945 -0.5455 -0.4407
   82MOL   C18526267   8.004   2.030   6.689 -0.9481  0.4329  0.1123
   82MOL   C18626268   7.684   2.006   6.756  0.2912 -0.3402 -0.0968
   82MOL   H18726269   7.756   2.154   6.893  2.1245 -0.8354  2.2587
   82MOL   H18826270   8.120   1.879   7.036 -2.8305 -1.7329  0.6288
   82MOL   H18926271   8.263   1.856   6.833  1.6304  2.4621  2.9238
   82MOL   H19026272   8.183   1.952   6.612  2.5802 -0.2185  1.0847
   82MOL   H19126273   7.983   2.061   6.588 -2.4355  0.5819  0.4622
   82MOL   H19226274   7.725   1.908   6.782  0.8980  0.6444  2.9380
   82MOL   H19326275   7.689   1.987   6.649  0.3683 -2.1761  0.2224
   82MOL   C19426276   7.538   2.015   6.805  0.0981 -0.0559  0.4753
   82MOL   C19526277   7.485   1.869   6.807 -0.5493  0.0867  0.1695
   82MOL   C19626278   7.466   1.794   6.927  0.0664  0.7083 -0.5659
   82MOL  Cl19726279   7.508   1.851   7.090 -0.2635 -0.2470  0.4328
   82MOL   C19826280   7.411   1.664   6.923  0.8216 -0.0454 -0.0235
   82MOL   C19926281   7.393   1.598   6.801 -0.0550  0.1916  0.2746
   82MOL   C20026282   7.406   1.671   6.681 -0.1861 -0.2484  0.3552
   82MOL   C20126283   7.458   1.805   6.683  0.1851  0.8264 -0.1450
   82MOL   C20226284   7.457   2.109   6.721  1.1851 -1.1085 -0.2315
   82MOL   H20326285   7.545   2.053   6.907 -1.1793  0.3300  0.4200
   82MOL   H20426286   7.399   1.615   7.019 -0.3847 -0.9581 -0.6246
   82MOL   H20526287   7.361   1.495   6.812  2.8115 -0.6281  1.3613
   82MOL   H20626288   7.385   1.620   6.587  1.2809 -1.8274  0.8660
   82MOL   H20726289   7.482   1.837   6.583  2.5955  1.5317  0.6190
   82MOL   H20826290   7.399   2.054   6.648  1.4223 -0.9881 -0.5099
   82MOL   H20926291   7.515   2.164   6.647 -0.9964  2.5671  0.6243
   82MOL   C21026292   7.358   2.203   6.786  0.1591 -0.1736 -0.4285
   82MOL   C21126293   7.419   2.335   6.847 -0.1143 -0.2467  0.1381
   82MOL   C21226294   7.396   2.465   6.785  0.5719  0.8335  0.3020
   82MOL  Cl21326295   7.283   2.477   6.646 -0.3993 -0.0091 -0.0738
   82MOL   C21426296   7.458   2.585   6.845 -0.2777  0.1277  0.4492
   82MOL   C21526297   7.547   2.567   6.954  0.6454 -0.5761 -0.0813
   82MOL   C21626298   7.563   2.439   7.016  0.2776 -0.0795 -0.6642
   82MOL   C21726299   7.499   2.326   6.959  0.7192  0.1496  0.6073
   82MOL   C21826300   7.276   2.134   6.897 -0.3083  0.5666 -0.4687
   82MOL   H21926301   7.286   2.235   6.711  0.9980 -1.3569 -1.7852
   82MOL   H22026302   7.437   2.681   6.800  3.1581  0.0138 -1.5024
   82MOL   H22126303   7.595   2.654   6.996  1.4336 -0.4951 -1.1124
   82MOL   H22226304   7.618   2.424   7.108  0.4981  1.7716 -0.4629
   82MOL   H22326305   7.508   2.231   7.011 -2.5301 -0.2122  0.6432
   82MOL   H22426306   7.217   2.201   6.959 -0.3008  0.4359 -0.3202
   82MOL   H22526307   7.341   2.084   6.968 -2.1709 -1.3433 -0.0758
   82MOL   C22626308   7.168   2.027   6.850 -0.5573  0.2024 -0.0926
   82MOL   C22726309   7.078   2.084   6.745  0.0581  0.0669 -0.4615
   82MOL   C22826310   7.087   2.051   6.606 -0.0959  0.3470 -0.2939
   82MOL  Cl22926311   7.191   1.922   6.555 -0.3646 -0.0575  0.0769
   82MOL   C23026312   6.996   2.106   6.513 -0.7037  0.0611  0.2748
   82MOL   C23126313   6.895   2.194   6.557 -0.5788 -0.9542  0.1594
   82MOL   C23226314   6.883   2.221   6.690  0.4457  0.5232 -0.3044
   82MOL   C23326315   6.975   2.169   6.781  0.0894 -0.7630  0.2053
   82MOL   C23426316   7.107   1.955   6.975  0.1153  0.0147 -0.0418
   82MOL   H23526317   7.229   1.952   6.800  1.5845  1.6399  0.2969
   82MOL   H23626318   6.998   2.061   6.415 -0.3073 -0.0000  0.3092
   82MOL   H23726319   6.811   2.224   6.496  1.2795 -0.1813 -2.0841
   82MOL   H23826320   6.804   2.282   6.730 -0.3813 -0.9546  0.3688
   82MOL   H23926321   6.960   2.186   6.887  0.2118  0.0055  0.0969
   82MOL   H24026322   7.050   2.032   7.028 -0.7483 -0.8280  0.2560
   82MOL   H24126323   7.189   1.910   7.032 -1.8980 -1.8312  1.4624
   82MOL   C24226324   6.992   1.860   6.937  0.5498 -0.1901 -0.1416
   82MOL   C24326325   6.898   1.819   7.050  0.0108 -0.4480 -0.0344
   82MOL   C24426326   6.765   1.871   7.066 -0.0086  0.0883 -0.4120
   82MOL  Cl24526327   6.692   1.978   6.949 -0.1823 -0.1363  0.1598
   82MOL   C24626328   6.682   1.820   7.168  0.4671  0.0926  0.2357
   82MOL   C24726329   6.728   1.728   7.263  0.2105 -0.2802 -0.2399
   82MOL   C24826330   6.854   1.674   7.245 -0.0562  0.3714  0.1602
   82MOL   C24926331   6.937   1.715   7.137 -0.3129 -0.3506 -0.0712
   82MOL   C25026332   7.051   1.736   6.853  0.2056 -0.0308  0.1450
   82MOL   H25126333   6.940   1.919   6.862  0.0207 -0.9421 -0.3771
   82MOL   H25226334   6.585   1.863   7.189  0.4897  0.1601  0.2015
   82MOL   H25326335   6.675   1.695   7.351  0.8202  2.4837  1.2424
   82MOL   H25426336   6.878   1.596   7.316  1.6436 -0.3541 -1.1655
   82MOL   H25526337   7.036   1.676   7.119  0.1412 -0.6739  2.7939
   82MOL   H25626338   7.124   1.675   6.905 -0.2032 -2.6402 -2.2698
   82MOL   H25726339   7.091   1.777   6.761  1.0016  2.7453  1.6409
   82MOL   C25826340   6.947   1.636   6.798 -0.0372  0.0493 -0.3880
   82MOL   C25926341   7.028   1.532   6.718  0.0529  0.2498 -0.5006
   82MOL   C26026342   7.068   1.403   6.768 -0.9391 -0.1014 -0.1237
   82MOL  Cl26126343   7.033   1.361   6.922  0.2781 -0.1174 -0.1915
   82MOL   C26226344   7.155   1.323   6.695 -0.2656 -0.4174 -0.2076
   82MOL   C26326345   7.184   1.358   6.562  0.9222 -0.6358  0.2703
   82MOL   C26426346   7.147   1.479   6.509  0.1688  0.0563  0.2257
   82MOL   C26526347   7.076   1.569   6.594  0.2338  0.7578 -0.1489
   82MOL   C26626348   6.829   1.700   6.721 -0.7062 -0.1311 -0.1011
   82MOL   H26726349   6.900   1.587   6.882 -0.4083  0.3875 -0.3989
   82MOL   H26826350   7.195   1.237   6.747 -1.2187 -0.2093  0.9131
   82MOL   H26926351   7.246   1.296   6.499  2.1489  1.3569 -0.5330
   82MOL   H27026352   7.176   1.506   6.408  0.5191  2.1694  0.8626
   82MOL   H27126353   7.043   1.662   6.552 -2.9451 -0.1678  0.1856
   82MOL   H27226354   6.873   1.771   6.651 -3.1051  0.1204 -1.3883
   82MOL   H27326355   6.764   1.757   6.787  1.2303  3.4714 -1.1831
   82MOL   C27426356   6.733   1.613   6.641  0.0491  0.5208 -0.2698
   82MOL   C27526357   6.626   1.704   6.577 -0.4859 -0.8389 -0.5827
   82MOL   C27626358   6.620   1.720   6.435  0.2351  0.1028 -0.8909
   82MOL  Cl27726359   6.744   1.655   6.334  0.1301  0.1232 -0.0786
   82MOL   C27826360   6.525   1.800   6.377 -0.3511 -0.3052  0.3402
   82MOL   C27926361   6.426   1.859   6.454 -0.8013  0.1054 -0.2413
   82MOL   C28026362   6.430   1.842   6.597  0.0328  0.0839 -0.3795
   82MOL   C28126363   6.530   1.769   6.659 -0.1262 -0.2506 -0.5027
   82MOL   C28226364   6.677   1.498   6.727  0.5406  0.1469 -0.3090
   82MOL   H28326365   6.803   1.567   6.571 -0.3975  0.3408 -0.5946
   82MOL   H28426366   6.528   1.817   6.270 -1.8447 -0.9475  0.1835
   82MOL   H28526367   6.353   1.924   6.408 -0.0466  2.0452  1.2110
   82MOL   H28626368   6.347   1.876   6.656  0.8996 -1.1303  1.5740
   82MOL   H28726369   6.516   1.761   6.766  0.8832  3.4655 -0.0143
   82MOL   H28826370   6.647   1.534   6.825  1.6461 -1.2364  0.5476
   82MOL   H28926371   6.751   1.422   6.748 -1.9468 -1.3718  3.5674
   82MOL   C29026372   6.560   1.422   6.673  0.1345 -0.4805  0.0242
   82MOL   C29126373   6.513   1.330   6.791  1.0344  0.1072 -0.7036
   82MOL   C29226374   6.424   1.375   6.894  0.1888  0.2055  0.6942
   82MOL  Cl29326375   6.363   1.539   6.889  0.2514 -0.1912 -0.1987
   82MOL   C29426376   6.364   1.285   6.983  0.8908 -0.8866 -0.5553
   82MOL   C29526377   6.399   1.146   6.980 -0.0651 -0.0832  0.7586
   82MOL   C29626378   6.490   1.099   6.887 -0.0975 -0.0863 -0.2599
   82MOL   C29726379   6.551   1.187   6.798 -0.1066  0.2473 -0.0142
   82MOL   C29826380   6.600   1.357   6.540  0.7079 -0.4860  0.3370
   82MOL   H29926381   6.473   1.482   6.647  2.1379  2.7295  0.4170
   82MOL   H30026382   6.291   1.314   7.057  0.6601 -1.0719 -0.7071
   82MOL   H30126383   6.363   1.072   7.050  1.5737 -0.7160  0.9526
   82MOL   H30226384   6.512   0.993   6.886 -2.1049 -0.5359 -2.0210
   82MOL   H30326385   6.610   1.144   6.719 -0.8665 -3.0478  1.1283
   82MOL   H30426386   6.669   1.279   6.573  2.0760  0.7758  0.4918
   82MOL   H30526387   6.644   1.432   6.474 -1.1315  0.6251  0.3331
   82MOL   C30626388   6.480   1.291   6.475  0.0408  0.2148  0.4397
   82MOL   C30726389   6.523   1.165   6.385  0.4092  0.3070  0.1470
   82MOL   C30826390   6.442   1.044   6.379 -0.0838 -0.2098 -0.0810
   82MOL  Cl30926391   6.287   1.043   6.452 -0.2315  0.2456  0.0121
   82MOL   C31026392   6.487   0.935   6.308 -0.4820 -0.5497  0.5000
   82MOL   C31126393   6.612   0.938   6.239  0.0939 -0.0916 -0.3647
   82MOL   C31226394   6.687   1.059   6.243  0.1352  0.5415 -0.3897
   82MOL   C31326395   6.646   1.166   6.318 -0.0424  0.4226 -0.7988
   82MOL   C31426396   6.416   1.384   6.378 -0.0683 -0.8410 -0.0663
   82MOL   H31526397   6.415   1.248   6.551  0.9206  1.5533  1.9671
   82MOL   H31626398   6.425   0.847   6.307 -2.8740  1.0818  1.2600
   82MOL   H31726399   6.647   0.848   6.190 -2.5339 -1.9251  1.0305
   82MOL   H31826400   6.784   1.058   6.196  1.3301  0.7023  2.0011
   82MOL   H31926401   6.724   1.237   6.339 -1.0414  1.2506  0.1936
   82MOL   H32026402   6.487   1.411   6.300  0.0867 -1.9454 -0.3181
   82MOL   H32126403   6.388   1.474   6.432  2.6676  0.7254 -1.1718
   82MOL   H32226404   6.323   1.347   6.333  0.0077  1.1733 -1.9753
   83MOL     C126405   2.147   3.394   6.217 -0.5194  0.9022  0.1310
   83MOL     C226406   2.156   3.349   6.366 -0.2627  0.0580 -0.4028
   83MOL     C326407   2.284   3.308   6.414 -0.0813  0.1403  0.2314
   83MOL    Cl426408   2.418   3.294   6.314 -0.0174 -0.1467 -0.2002
   83MOL     C526409   2.292   3.259   6.547  0.2982  0.8300  0.0533
   83MOL     C626410   2.179   3.255   6.630 -0.5431 -0.1854 -0.4358
   83MOL     C726411   2.053   3.302   6.583  0.1617 -0.0450 -0.3075
   83MOL     C826412   2.042   3.352   6.451 -0.9237  0.0797 -0.1296
   83MOL     C926413   2.208   3.533   6.200  0.7123 -0.0665 -0.0772
   83MOL    H1026414   2.184   3.320   6.145 -1.0754  0.2902  0.4685
   83MOL    H1126415   2.385   3.218   6.582 -0.0545 -0.1810 -0.1688
   83MOL    H1226416   2.189   3.217   6.731 -0.4010 -1.1088 -0.7955
   83MOL    H1326417   1.966   3.303   6.647 -0.7059  0.3088 -1.4652
   83MOL    H1426418   1.945   3.383   6.415 -0.1918  0.5125 -1.8280
   83MOL    H1526419   2.309   3.536   6.241  0.6854 -0.2786  0.0048
   83MOL    H1626420   2.145   3.604   6.253 -1.8683 -3.1772  1.1874
   83MOL    H1726421   2.042   3.407   6.189 -0.5529  0.8680  0.2400
   83MOL    C1826422   2.218   3.578   6.051  0.6316 -0.1022  0.8096
   83MOL    C1926423   2.273   3.479   5.949  0.0770  0.0346  1.0470
   83MOL    C2026424   2.202   3.451   5.827  0.2545  0.6913  0.2425
   83MOL   Cl2126425   2.045   3.510   5.792 -0.0659 -0.0116 -0.1397
   83MOL    C2226426   2.265   3.382   5.723  1.1709  0.1512 -0.1510
   83MOL    C2326427   2.391   3.330   5.752  0.5599  0.6846  0.1700
   83MOL    C2426428   2.461   3.345   5.872 -0.4620 -0.5807 -0.3979
   83MOL    C2526429   2.395   3.425   5.969  0.6457  0.1149  0.0272
   83MOL    C2626430   2.301   3.709   6.038  0.3806  0.1042  0.8247
   83MOL    H2726431   2.113   3.590   6.025  0.7347  0.2404  0.5484
   83MOL    H2826432   2.221   3.361   5.627 -0.1579  2.0664  0.0215
   83MOL    H2926433   2.444   3.269   5.680 -0.1589 -1.9693  1.7773
   83MOL    H3026434   2.557   3.302   5.893  1.6768  3.5873 -1.2498
   83MOL    H3126435   2.444   3.451   6.062 -0.6922  0.7916  0.5532
   83MOL    H3226436   2.307   3.739   5.934  1.9587 -2.0047  0.2709
   83MOL    H3326437   2.400   3.693   6.082 -0.2195 -2.0588  1.4705
   83MOL    C3426438   2.232   3.833   6.101 -0.1769 -0.3575  0.1497
   83MOL    C3526439   2.095   3.864   6.042  0.4787  0.2325  0.2187
   83MOL    C3626440   1.983   3.865   6.129 -0.3952  0.6661 -0.2060
   83MOL   Cl3726441   2.007   3.848   6.304  0.0116 -0.1433  0.0749
   83MOL    C3826442   1.851   3.874   6.083 -0.2588  0.2040  0.1995
   83MOL    C3926443   1.832   3.897   5.944  0.6611 -0.8047  0.2430
   83MOL    C4026444   1.945   3.908   5.856 -0.1801 -0.6257 -0.4141
   83MOL    C4126445   2.079   3.891   5.902  1.2244  0.6909 -0.7302
   83MOL    C4226446   2.323   3.965   6.091 -0.2198  0.4400 -0.4703
   83MOL    H4326447   2.230   3.809   6.207  1.6866 -2.2658 -0.2146
   83MOL    H4426448   1.776   3.886   6.160 -0.5213  0.2915 -0.0679
   83MOL    H4526449   1.735   3.915   5.900  0.7340  1.1505  0.8353
   83MOL    H4626450   1.939   3.922   5.749 -0.3006 -0.0795 -0.3348
   83MOL    H4726451   2.168   3.893   5.839  1.0165  0.5641 -1.0292
   83MOL    H4826452   2.273   4.052   6.135 -0.5116 -0.2290  0.5197
   83MOL    H4926453   2.328   3.992   5.985  1.9976  1.4691 -0.1295
   83MOL    C5026454   2.463   3.945   6.147 -0.2081 -0.7699  0.2058
   83MOL    C5126455   2.458   3.915   6.295  0.1146 -0.0730 -0.1520
   83MOL    C5226456   2.518   3.803   6.355  0.5428 -0.2610  1.1606
   83MOL   Cl5326457   2.599   3.695   6.248  0.1675  0.3581  0.5653
   83MOL    C5426458   2.499   3.768   6.492 -0.1715  0.5451 -0.2839
   83MOL    C5526459   2.422   3.853   6.568  0.0520 -0.1641 -0.3574
   83MOL    C5626460   2.386   3.974   6.519 -0.7275  0.6461  0.4436
   83MOL    C5726461   2.397   4.011   6.384 -0.0073 -0.7536 -0.1305
   83MOL    C5826462   2.544   4.079   6.123 -0.0345  0.4010 -0.3687
   83MOL    H5926463   2.506   3.862   6.091 -1.9771 -3.0624  2.1541
   83MOL    H6026464   2.540   3.677   6.533 -0.7771 -0.4974 -1.9653
   83MOL    H6126465   2.402   3.824   6.671  0.1450 -2.1334 -0.8803
   83MOL    H6226466   2.348   4.051   6.583  1.5988  1.3269  1.0324
   83MOL    H6326467   2.366   4.108   6.347  1.4810  0.0326  0.5975
   83MOL    H6426468   2.490   4.153   6.181  0.0892 -0.1174  0.4127
   83MOL    H6526469   2.522   4.122   6.025  1.9800  1.6708 -0.2855
   83MOL    C6626470   2.701   4.075   6.147  0.3910  0.6206  0.2625
   83MOL    C6726471   2.735   4.140   6.284  0.6485 -0.6858 -0.7303
   83MOL    C6826472   2.795   4.072   6.391 -0.4638  0.8942 -0.7872
   83MOL   Cl6926473   2.843   3.908   6.381 -0.1761  0.6222  0.0246
   83MOL    C7026474   2.818   4.132   6.517 -0.3699 -1.1785 -0.6973
   83MOL    C7126475   2.784   4.267   6.537 -0.1987  0.0077 -0.4582
   83MOL    C7226476   2.727   4.340   6.429 -0.0338 -0.0902  0.4822
   83MOL    C7326477   2.701   4.273   6.304  0.1541 -0.5660 -0.4166
   83MOL    C7426478   2.787   4.130   6.032  0.8536  0.0721  0.0591
   83MOL    H7526479   2.725   3.970   6.166  1.0116  0.6828 -0.1810
   83MOL    H7626480   2.873   4.079   6.593  1.1424  0.8113 -0.3686
   83MOL    H7726481   2.801   4.323   6.628 -0.7401 -0.4553 -0.0691
   83MOL    H7826482   2.704   4.444   6.444  0.2614 -0.0958  0.9725
   83MOL    H7926483   2.668   4.331   6.219 -0.0214  0.0002  0.0344
   83MOL    H8026484   2.885   4.112   6.075  0.7555  1.8991  1.0997
   83MOL    H8126485   2.788   4.239   6.026 -1.8249  0.2330  1.5096
   83MOL    C8226486   2.788   4.056   5.896 -0.6414  0.0549 -0.2647
   83MOL    C8326487   2.777   3.906   5.915 -0.0213 -0.8863  0.5270
   83MOL    C8426488   2.675   3.826   5.861 -0.3017 -0.2578  1.0883
   83MOL   Cl8526489   2.537   3.903   5.787 -0.1058  0.1431 -0.0830
   83MOL    C8626490   2.666   3.686   5.886  0.7387 -0.1119 -0.1572
   83MOL    C8726491   2.761   3.631   5.972 -0.5823  0.0829 -0.4144
   83MOL    C8826492   2.864   3.706   6.033 -0.7296 -0.5375  0.6787
   83MOL    C8926493   2.874   3.842   5.992  0.1054 -0.1168  0.2172
   83MOL    C9026494   2.920   4.098   5.815  0.3995 -0.0802 -0.3867
   83MOL    H9126495   2.706   4.083   5.828  1.0526 -3.2760 -3.8541
   83MOL    H9226496   2.589   3.624   5.842 -2.7688  1.6930  3.0582
   83MOL    H9326497   2.751   3.524   5.979 -0.6598  0.1204  0.0392
   83MOL    H9426498   2.944   3.661   6.091 -0.1384 -0.2198  0.1250
   83MOL    H9526499   2.960   3.901   6.020  0.3235  0.2700 -1.1876
   83MOL    H9626500   2.927   4.026   5.733  1.9400  2.1378 -2.2727
   83MOL    H9726501   3.013   4.087   5.872 -0.0476  2.0262  0.7986
   83MOL    C9826502   2.922   4.246   5.757 -0.6864  0.1471 -0.4749
   83MOL    C9926503   2.837   4.248   5.622 -0.1280  0.2587 -0.3114
   83MOL   C10026504   2.708   4.302   5.617 -0.3980 -0.1816  1.4432
   83MOL  Cl10126505   2.624   4.352   5.766  0.1136  0.1704 -0.0403
   83MOL   C10226506   2.645   4.312   5.487 -0.6123  0.4178  0.2544
   83MOL   C10326507   2.709   4.267   5.367  0.2446 -0.3789 -0.4994
   83MOL   C10426508   2.833   4.204   5.380 -0.7160 -0.5307  1.0159
   83MOL   C10526509   2.892   4.190   5.507 -0.1822 -0.7753 -0.4229
   83MOL   C10626510   3.066   4.298   5.717  0.0262  0.0938 -0.4425
   83MOL   H10726511   2.875   4.311   5.832 -0.4309  1.0889 -1.1361
   83MOL   H10826512   2.541   4.341   5.482 -0.5964  0.8677  2.1064
   83MOL   H10926513   2.652   4.263   5.275 -1.4837 -0.0954  0.5257
   83MOL   H11026514   2.896   4.173   5.297 -2.3661 -1.5969  0.1445
   83MOL   H11126515   2.991   4.147   5.504  0.1540 -0.0650  0.4100
   83MOL   H11226516   3.074   4.342   5.618 -1.3595  1.6276  0.0909
   83MOL   H11326517   3.131   4.211   5.704 -0.3335 -0.5508  1.7114
   83MOL   C11426518   3.107   4.417   5.815 -0.0642  0.2331  0.1966
   83MOL   C11526519   3.017   4.538   5.798  0.0581  0.1485  0.8807
   83MOL   C11626520   2.936   4.592   5.899 -0.0759  0.3308  0.1863
   83MOL  Cl11726521   2.930   4.523   6.059 -0.7150  0.0387 -0.3860
   83MOL   C11826522   2.851   4.699   5.872 -0.8286 -1.0079  1.0080
   83MOL   C11926523   2.860   4.772   5.749  0.6327  0.5589 -0.7045
   83MOL   C12026524   2.947   4.714   5.648  0.3965 -0.0522  0.3920
   83MOL   C12126525   3.019   4.595   5.672  0.5718  0.1834  0.3634
   83MOL   C12226526   3.252   4.461   5.796 -0.6325 -0.6887 -0.2187
   83MOL   H12326527   3.105   4.381   5.918  1.3667  3.9839  1.6100
   83MOL   H12426528   2.775   4.723   5.945  0.6873 -0.5924  2.4752
   83MOL   H12526529   2.798   4.860   5.739 -2.4007 -1.7567 -3.0726
   83MOL   H12626530   2.966   4.765   5.555  2.2232 -0.2454  0.6284
   83MOL   H12726531   3.073   4.547   5.591 -2.3855  1.2996 -2.3964
   83MOL   H12826532   3.264   4.507   5.698 -2.6268 -0.2633 -0.2719
   83MOL   H12926533   3.297   4.364   5.775  1.7295  0.6268 -1.5129
   83MOL   C13026534   3.317   4.546   5.912  0.4245 -0.3758 -0.1362
   83MOL   C13126535   3.364   4.678   5.851 -0.3078  0.1821  0.1393
   83MOL   C13226536   3.305   4.800   5.882 -0.1742  0.1961 -0.4315
   83MOL  Cl13326537   3.182   4.820   6.011  0.2722 -0.3327 -0.7058
   83MOL   C13426538   3.350   4.914   5.815  0.2113  0.1350 -0.0694
   83MOL   C13526539   3.459   4.912   5.728 -0.0699  0.9750  0.2819
   83MOL   C13626540   3.531   4.789   5.708  0.4550  0.6144  0.1836
   83MOL   C13726541   3.476   4.671   5.760 -0.2498  0.2240  0.3941
   83MOL   C13826542   3.427   4.474   5.980 -0.1692 -0.2125 -0.4393
   83MOL   H13926543   3.240   4.556   5.988  2.0317 -1.1005  1.6287
   83MOL   H14026544   3.298   5.005   5.842  1.8865  1.2379 -0.4820
   83MOL   H14126545   3.503   5.002   5.688  1.1983  1.8037  3.4074
   83MOL   H14226546   3.622   4.775   5.652 -1.6630 -2.2574 -2.7285
   83MOL   H14326547   3.514   4.573   5.733 -0.2206  0.4224 -0.3010
   83MOL   H14426548   3.477   4.543   6.048  0.7375 -0.1522 -1.1668
   83MOL   H14526549   3.507   4.457   5.909  0.0020 -1.0862 -0.0369
   83MOL   C14626550   3.373   4.346   6.057 -0.0416 -0.1593 -0.2547
   83MOL   C14726551   3.265   4.367   6.163 -0.3808  0.3043  0.0200
   83MOL   C14826552   3.168   4.266   6.180  0.4501  0.5981  0.0278
   83MOL  Cl14926553   3.160   4.116   6.085  0.2715 -0.4416  0.0360
   83MOL   C15026554   3.071   4.290   6.283  0.6562 -0.1913 -0.2842
   83MOL   C15126555   3.064   4.408   6.349  0.1746 -0.2578 -0.1844
   83MOL   C15226556   3.165   4.511   6.332  0.0340 -0.6551  0.0548
   83MOL   C15326557   3.261   4.482   6.238  0.0518  0.6735 -0.1366
   83MOL   C15426558   3.485   4.280   6.133  0.6102 -0.4662 -0.2787
   83MOL   H15526559   3.339   4.274   5.982  2.5535 -1.6538 -0.0745
   83MOL   H15626560   2.986   4.227   6.305  0.9116 -1.1653 -1.9913
   83MOL   H15726561   2.993   4.429   6.428 -1.4055  1.2812 -1.9477
   83MOL   H15826562   3.164   4.590   6.406 -2.5517 -0.8648  0.3205
   83MOL   H15926563   3.333   4.555   6.206 -2.1586  1.8311 -2.6589
   83MOL   H16026564   3.437   4.192   6.175 -0.0093 -0.0132 -0.0289
   83MOL   H16126565   3.508   4.336   6.223 -3.8486 -0.3106  0.8755
   83MOL   C16226566   3.611   4.237   6.062  0.0873  0.3862  0.2675
   83MOL   C16326567   3.584   4.127   5.947 -0.0294  0.4311  0.2289
   83MOL   C16426568   3.605   4.153   5.809 -0.6185 -0.7193 -0.4657
   83MOL  Cl16526569   3.659   4.312   5.761 -0.1684 -0.3550 -0.1799
   83MOL   C16626570   3.586   4.059   5.709 -0.3281  0.1098 -0.9649
   83MOL   C16726571   3.539   3.932   5.745 -1.0713  0.1240  0.0617
   83MOL   C16826572   3.517   3.897   5.880 -0.1083 -0.0729  0.7059
   83MOL   C16926573   3.532   3.995   5.982 -0.4475 -0.5311 -0.5540
   83MOL   C17026574   3.718   4.180   6.160  0.8990  0.6074  0.6046
   83MOL   H17126575   3.658   4.325   6.019  1.6197 -1.6637 -2.4493
   83MOL   H17226576   3.597   4.074   5.603  1.6296  1.7903 -0.5553
   83MOL   H17326577   3.517   3.859   5.668 -3.6545  0.5855  0.3220
   83MOL   H17426578   3.483   3.795   5.898  0.9439 -0.6320 -0.3998
   83MOL   H17526579   3.515   3.969   6.085 -3.8876  1.1304 -0.6152
   83MOL   H17626580   3.806   4.136   6.113  0.0787  0.4782 -0.8531
   83MOL   H17726581   3.669   4.092   6.204  0.0857  0.2024 -1.0541
   83MOL   C17826582   3.773   4.274   6.271 -0.0665 -0.3488  0.0023
   83MOL   C17926583   3.870   4.384   6.211 -0.0928 -0.1052  0.1040
   83MOL   C18026584   3.824   4.512   6.195 -0.5996 -0.4076 -0.5137
   83MOL  Cl18126585   3.668   4.562   6.256  0.1534  0.2011  0.1326
   83MOL   C18226586   3.896   4.614   6.133 -0.6007 -0.3425 -0.0603
   83MOL   C18326587   4.019   4.576   6.070  0.3816 -0.0244  0.0457
   83MOL   C18426588   4.061   4.441   6.074 -0.3291  0.3859  0.0018
   83MOL   C18526589   3.990   4.346   6.142 -0.3370  0.0038 -0.2672
   83MOL   C18626590   3.843   4.197   6.380 -0.0077 -0.6980  0.2776
   83MOL   H18726591   3.688   4.323   6.317 -0.2921  0.2098 -0.9974
   83MOL   H18826592   3.861   4.715   6.121  1.9283  0.5601 -0.0338
   83MOL   H18926593   4.078   4.653   6.022 -1.2594  0.5660 -1.1249
   83MOL   H19026594   4.158   4.414   6.035 -0.9384 -2.6103  0.4133
   83MOL   H19126595   4.028   4.247   6.157  2.4138  0.8061 -1.6547
   83MOL   H19226596   3.890   4.275   6.439  0.6067  0.3695 -1.5612
   83MOL   H19326597   3.925   4.136   6.341 -0.2308 -0.9247  0.1613
   83MOL   C19426598   3.747   4.119   6.477 -0.0758 -0.2873 -0.0690
   83MOL   C19526599   3.624   4.205   6.536 -0.1072 -1.0769 -0.5950
   83MOL   C19626600   3.491   4.188   6.486  0.5051 -0.6546  0.4243
   83MOL  Cl19726601   3.446   4.049   6.398 -0.2102  0.1190 -0.0880
   83MOL   C19826602   3.384   4.275   6.523  0.2741 -0.0330 -0.3130
   83MOL   C19926603   3.423   4.389   6.599 -0.1977 -0.0677 -0.0671
   83MOL   C20026604   3.558   4.412   6.648  0.1500  0.5957  0.2194
   83MOL   C20126605   3.658   4.319   6.610  0.3278 -0.8781  0.1373
   83MOL   C20226606   3.836   4.052   6.584  0.3205 -0.2831  0.5299
   83MOL   H20326607   3.710   4.031   6.425 -0.5486 -1.8456  2.7940
   83MOL   H20426608   3.283   4.251   6.494  0.0504  0.6715 -0.1181
   83MOL   H20526609   3.347   4.463   6.620  0.0151  0.4547 -1.0866
   83MOL   H20626610   3.579   4.495   6.715  0.1652  1.1810 -0.5083
   83MOL   H20726611   3.754   4.321   6.659 -0.4439  0.0311  1.6368
   83MOL   H20826612   3.772   4.040   6.671  1.6672 -0.8721  1.4534
   83MOL   H20926613   3.921   4.110   6.620 -0.6597  1.3774  0.1995
   83MOL   C21026614   3.903   3.921   6.539  0.4650  0.2377  0.2618
   83MOL   C21126615   3.803   3.807   6.513 -0.3282 -0.4933  0.2727
   83MOL   C21226616   3.765   3.760   6.384  0.2547  0.1973  0.5658
   83MOL  Cl21326617   3.829   3.842   6.243  0.0362 -0.0757 -0.0357
   83MOL   C21426618   3.674   3.654   6.364  0.5561  0.1381 -0.0491
   83MOL   C21526619   3.618   3.597   6.479 -0.4231  0.2594  0.3019
   83MOL   C21626620   3.650   3.648   6.610 -0.3633  0.0614 -0.1132
   83MOL   C21726621   3.736   3.754   6.626  0.6563  0.7357 -0.3983
   83MOL   C21826622   4.031   3.882   6.616 -0.5427 -0.3280  0.7186
   83MOL   H21926623   3.945   3.934   6.439 -0.4041 -1.8153 -0.4071
   83MOL   H22026624   3.644   3.622   6.265  1.8738 -2.4209  0.3217
   83MOL   H22126625   3.550   3.515   6.459  0.5810 -0.6932  0.7831
   83MOL   H22226626   3.602   3.600   6.695 -0.0418 -0.6584 -0.3309
   83MOL   H22326627   3.749   3.806   6.720  0.5498 -0.1580  0.1169
   83MOL   H22426628   4.059   3.781   6.584  0.0077  0.4998 -1.4914
   83MOL   H22526629   4.005   3.871   6.721 -3.2425 -1.0795  0.0147
   83MOL   C22626630   4.160   3.969   6.596 -0.0011 -0.2200  0.3415
   83MOL   C22726631   4.208   3.991   6.447  0.0113 -0.2259 -0.4294
   83MOL   C22826632   4.204   4.115   6.385 -0.4154  0.3392 -0.3982
   83MOL  Cl22926633   4.162   4.259   6.468  0.0249  0.0321 -0.3258
   83MOL   C23026634   4.255   4.130   6.252  0.8098  0.6570 -0.3412
   83MOL   C23126635   4.311   4.021   6.188 -0.3824 -0.2741  0.1379
   83MOL   C23226636   4.312   3.896   6.248  0.1557  0.3041  0.0488
   83MOL   C23326637   4.258   3.885   6.375 -0.1876 -0.1631 -0.0493
   83MOL   C23426638   4.284   3.916   6.672 -0.6289  0.5738 -0.2152
   83MOL   H23526639   4.138   4.068   6.634  0.8068 -1.1545  3.3620
   83MOL   H23626640   4.247   4.230   6.210 -0.4002  0.9182  0.4730
   83MOL   H23726641   4.345   4.022   6.085  1.4882  0.7835  0.7447
   83MOL   H23826642   4.354   3.812   6.195 -0.8083  1.1940 -2.1530
   83MOL   H23926643   4.267   3.787   6.421  1.8580 -0.3728 -0.8536
   83MOL   H24026644   4.314   3.812   6.655 -0.4371  0.4836  0.6545
   83MOL   H24126645   4.246   3.924   6.773  0.7143 -0.1422  0.3637
   83MOL   C24226646   4.411   4.006   6.667 -0.4362 -0.3804 -0.4229
   83MOL   C24326647   4.538   3.927   6.707  0.1916 -0.9325  0.3615
   83MOL   C24426648   4.648   3.916   6.615  0.5053 -0.0672 -0.5745
   83MOL  Cl24526649   4.633   3.988   6.454 -0.3760 -0.1528  0.6284
   83MOL   C24626650   4.756   3.831   6.646 -0.3654  0.2659 -0.2904
   83MOL   C24726651   4.755   3.762   6.773  0.9201  0.3203 -0.5113
   83MOL   C24826652   4.651   3.777   6.868 -0.6630  0.4029 -0.2123
   83MOL   C24926653   4.538   3.854   6.826 -0.0274  0.3871 -0.4723
   83MOL   C25026654   4.416   4.135   6.748  0.0875 -0.5297 -0.3229
   83MOL   H25126655   4.429   4.033   6.563 -0.2551 -0.0490 -0.3050
   83MOL   H25226656   4.845   3.812   6.588 -1.4956 -0.7903 -1.7408
   83MOL   H25326657   4.836   3.694   6.797 -0.5155 -1.3780 -0.4064
   83MOL   H25426658   4.638   3.730   6.964 -1.4300 -0.1757 -0.5978
   83MOL   H25526659   4.451   3.863   6.888 -0.0570 -2.8151 -0.0118
   83MOL   H25626660   4.436   4.116   6.854  0.8186  0.9376 -0.1802
   83MOL   H25726661   4.321   4.188   6.750  0.0747 -0.5359 -0.8468
   83MOL   C25826662   4.526   4.236   6.701  0.0479 -0.1444 -0.4005
   83MOL   C25926663   4.572   4.325   6.817 -0.2965  0.4712 -0.1413
   83MOL   C26026664   4.696   4.297   6.880 -0.3605 -0.0131  0.0436
   83MOL  Cl26126665   4.783   4.149   6.854  0.5584 -0.6145 -0.5355
   83MOL   C26226666   4.742   4.388   6.979 -0.2070  0.2077 -0.0140
   83MOL   C26326667   4.669   4.510   6.999  0.1111  0.3807  0.2729
   83MOL   C26426668   4.546   4.534   6.931 -0.2370 -0.0664  0.4542
   83MOL   C26526669   4.501   4.436   6.849 -0.4307  0.0290 -0.6848
   83MOL   C26626670   4.490   4.310   6.572 -0.0013 -0.4130  0.3540
   83MOL   H26726671   4.605   4.169   6.668 -1.3008 -0.7209 -2.5270
   83MOL   H26826672   4.832   4.372   7.036 -0.7575  0.3255  0.8966
   83MOL   H26926673   4.705   4.585   7.069  0.6048 -1.3812  1.9484
   83MOL   H27026674   4.496   4.622   6.968 -0.2736  0.1831 -0.1783
   83MOL   H27126675   4.403   4.458   6.809  0.0908 -1.4113 -2.8501
   83MOL   H27226676   4.401   4.368   6.593 -0.4492  0.2036 -2.9566
   83MOL   H27326677   4.466   4.240   6.492  0.8582  0.6223 -0.8292
   83MOL   C27426678   4.593   4.416   6.522  0.0968  0.7272 -0.1685
   83MOL   C27526679   4.514   4.530   6.455  0.7165  0.3014 -0.8180
   83MOL   C27626680   4.507   4.660   6.515 -0.0348 -0.5273  0.2215
   83MOL  Cl27726681   4.599   4.709   6.650 -0.5134  0.1012 -0.2809
   83MOL   C27826682   4.427   4.762   6.461  0.0236  0.0320  0.2882
   83MOL   C27926683   4.344   4.736   6.352 -0.1938 -0.3325  0.2993
   83MOL   C28026684   4.333   4.603   6.302 -0.1272 -0.0325  0.2649
   83MOL   C28126685   4.422   4.498   6.349  0.0280  0.5448 -0.0052
   83MOL   C28226686   4.702   4.344   6.437 -0.0895  0.5935 -0.3658
   83MOL   H28326687   4.638   4.443   6.617  0.4759  0.1029 -0.1669
   83MOL   H28426688   4.437   4.863   6.497  2.2482 -0.2901  0.6621
   83MOL   H28526689   4.286   4.813   6.304  1.6055 -0.5113 -2.3027
   83MOL   H28626690   4.255   4.575   6.233  2.5225 -0.3012 -2.6844
   83MOL   H28726691   4.419   4.393   6.324  0.2457  0.4171  0.5089
   83MOL   H28826692   4.644   4.293   6.360 -0.2288 -1.1899  0.8805
   83MOL   H28926693   4.747   4.262   6.494 -1.1978  0.1548 -0.1112
   83MOL   C29026694   4.813   4.427   6.377 -0.4078 -0.1056  0.4720
   83MOL   C29126695   4.888   4.357   6.265 -0.5452  0.7173 -0.0597
   83MOL   C29226696   4.844   4.371   6.126 -0.3202 -0.0840 -0.0959
   83MOL  Cl29326697   4.702   4.448   6.084  0.2521 -0.2671  0.1315
   83MOL   C29426698   4.916   4.312   6.026 -0.1673  0.7762  0.0492
   83MOL   C29526699   5.032   4.235   6.052  0.3032  0.9972  0.0184
   83MOL   C29626700   5.075   4.224   6.186  0.2555 -0.4170 -0.7766
   83MOL   C29726701   5.004   4.283   6.291 -0.0976  0.2451 -0.1400
   83MOL   C29826702   4.905   4.475   6.492 -0.4045  0.0879 -0.3238
   83MOL   H29926703   4.780   4.516   6.323  0.6267 -0.7527 -1.2921
   83MOL   H30026704   4.883   4.329   5.925  1.0582  3.7417  0.0950
   83MOL   H30126705   5.097   4.196   5.975  0.4146 -2.1229  1.6004
   83MOL   H30226706   5.165   4.170   6.208 -0.7134 -1.2215  1.2940
   83MOL   H30326707   5.044   4.272   6.391 -0.3220  3.0842  0.3238
   83MOL   H30426708   4.943   4.389   6.546  0.2049 -0.7288 -2.0121
   83MOL   H30526709   4.847   4.533   6.564  2.4253  0.6483  1.5617
   83MOL   C30626710   5.022   4.573   6.461  0.2260 -0.2049  1.0201
   83MOL   C30726711   5.116   4.580   6.579 -0.4593  0.2020  0.6970
   83MOL   C30826712   5.097   4.650   6.697  0.2900 -0.2151  0.5846
   83MOL  Cl30926713   4.942   4.724   6.737  0.2332  0.3123 -0.4531
   83MOL   C31026714   5.189   4.646   6.800  0.4014  0.0923  0.3331
   83MOL   C31126715   5.305   4.568   6.794 -0.1083 -0.3628 -0.0037
   83MOL   C31226716   5.333   4.516   6.669  0.4252  0.1346  0.2438
   83MOL   C31326717   5.245   4.520   6.563 -0.3272  0.0874  0.6465
   83MOL   C31426718   4.980   4.713   6.409  0.0788  0.3689  0.4826
   83MOL   H31526719   5.086   4.528   6.385  0.0241 -0.3388  0.9320
   83MOL   H31626720   5.157   4.699   6.888 -1.8169 -1.3744  0.4278
   83MOL   H31726721   5.370   4.560   6.880  0.9998 -0.9796 -0.8962
   83MOL   H31826722   5.430   4.472   6.651 -0.0696  0.0899 -2.5766
   83MOL   H31926723   5.276   4.479   6.468 -1.2407  0.5626  0.1434
   83MOL   H32026724   5.052   4.793   6.392  2.8132 -2.2572 -0.7076
   83MOL   H32126725   4.917   4.755   6.488 -1.0369  1.8985 -1.1934
   83MOL   H32226726   4.920   4.703   6.319 -1.1635  0.7995  1.2393
   84MOL     C126727   2.341   7.972   5.047 -0.2740 -0.3059  0.4148
   84MOL     C226728   2.259   8.045   4.946  0.2756  0.3173 -0.6519
   84MOL     C326729   2.289   8.062   4.814 -0.6232 -0.6958  0.1228
   84MOL    Cl426730   2.440   8.002   4.747  0.1188 -0.2582 -0.1099
   84MOL     C526731   2.213   8.131   4.723 -0.1493 -0.2600 -0.1706
   84MOL     C626732   2.092   8.194   4.768 -0.1921 -0.2010 -0.0030
   84MOL     C726733   2.057   8.177   4.907 -0.2617  0.0118 -0.2936
   84MOL     C826734   2.137   8.102   4.994  0.0428  0.1316  0.9637
   84MOL     C926735   2.385   8.061   5.170  0.7329  0.0629  0.5510
   84MOL    H1026736   2.275   7.891   5.076 -1.9801  0.2734 -1.7192
   84MOL    H1126737   2.262   8.155   4.630  2.7144 -0.4096  1.2328
   84MOL    H1226738   2.043   8.267   4.706 -0.4796 -0.2492  0.1648
   84MOL    H1326739   1.983   8.234   4.961  0.1338 -0.6927  1.0014
   84MOL    H1426740   2.115   8.114   5.099  2.8225  3.9800  1.2140
   84MOL    H1526741   2.297   8.083   5.231 -0.2701 -1.2686 -0.3611
   84MOL    H1626742   2.408   8.159   5.129  0.3032 -0.4703 -1.0383
   84MOL    H1726743   2.427   7.922   5.002  0.1161  0.2224  0.5726
   84MOL    C1826744   2.511   8.010   5.249  0.2469  0.7327 -0.4967
   84MOL    C1926745   2.642   7.984   5.166  0.4891 -1.1311  0.2527
   84MOL    C2026746   2.721   8.101   5.136 -0.0500  0.6893 -0.6914
   84MOL   Cl2126747   2.704   8.244   5.226  0.1309 -0.3312 -0.5900
   84MOL    C2226748   2.831   8.089   5.053  0.1717  0.5319  0.2739
   84MOL    C2326749   2.859   7.968   4.993  0.6724 -0.1898  0.0234
   84MOL    C2426750   2.775   7.866   5.014 -0.4607  0.2651 -0.2158
   84MOL    C2526751   2.671   7.866   5.109 -0.5932 -0.0273 -0.1820
   84MOL    C2626752   2.477   7.877   5.317  0.2739  0.2214  0.2599
   84MOL    H2726753   2.531   8.087   5.323  0.8048  0.5525 -0.4644
   84MOL    H2826754   2.899   8.171   5.032  0.1693  0.3424 -0.5162
   84MOL    H2926755   2.945   7.948   4.931  3.0446  0.8854  2.8921
   84MOL    H3026756   2.790   7.769   4.968 -3.1555  0.5664 -1.8653
   84MOL    H3126757   2.611   7.777   5.115 -3.1916  1.5523 -1.8517
   84MOL    H3226758   2.569   7.821   5.337  0.2553  0.1127  0.0407
   84MOL    H3326759   2.429   7.807   5.249 -0.0570 -0.0331  0.7552
   84MOL    C3426760   2.387   7.891   5.447  0.9187  0.2285  0.0928
   84MOL    C3526761   2.441   7.985   5.554  0.0471 -0.6567  0.3406
   84MOL    C3626762   2.349   8.054   5.632 -0.1944 -0.6204  0.1236
   84MOL   Cl3726763   2.182   8.063   5.593  0.1482  0.6847  0.0697
   84MOL    C3826764   2.390   8.135   5.739 -0.1257 -0.0768 -0.7094
   84MOL    C3926765   2.528   8.141   5.773  0.2870  0.7685 -0.1772
   84MOL    C4026766   2.622   8.076   5.692  0.1936 -0.4019 -0.7666
   84MOL    C4126767   2.578   7.996   5.589  0.4823  0.8407  0.1026
   84MOL    C4226768   2.375   7.756   5.514 -0.7045  0.7205 -0.2567
   84MOL    H4326769   2.294   7.940   5.420  1.4331  1.8792  1.2050
   84MOL    H4426770   2.316   8.181   5.803 -0.2487  1.1208 -1.7072
   84MOL    H4526771   2.562   8.201   5.856 -1.5046  0.5681  0.7200
   84MOL    H4626772   2.729   8.085   5.704  0.1849 -1.4553  0.1744
   84MOL    H4726773   2.648   7.939   5.530 -1.2389 -0.4729 -0.7008
   84MOL    H4826774   2.334   7.776   5.613  3.4818 -0.6865  1.9089
   84MOL    H4926775   2.470   7.713   5.546 -1.9012  0.5374  3.3350
   84MOL    C5026776   2.289   7.647   5.431  0.0315  0.4543  0.5061
   84MOL    C5126777   2.175   7.702   5.341  0.6241  0.1287 -0.4943
   84MOL    C5226778   2.165   7.671   5.202 -0.2824 -0.0977  0.6299
   84MOL   Cl5326779   2.290   7.577   5.133 -0.0365  0.2622 -0.3313
   84MOL    C5426780   2.070   7.730   5.117  0.0370 -0.6759  0.3154
   84MOL    C5526781   1.969   7.807   5.175 -0.3564 -0.0279  0.2607
   84MOL    C5626782   1.971   7.818   5.318 -0.4712 -0.4466  0.0041
   84MOL    C5726783   2.076   7.779   5.398 -1.1554 -0.2932  0.1757
   84MOL    C5826784   2.248   7.533   5.517 -0.0058 -0.0126  0.8830
   84MOL    H5926785   2.367   7.605   5.368 -0.8177  0.2698 -0.4431
   84MOL    H6026786   2.077   7.704   5.012  1.0529 -1.6543  0.6158
   84MOL    H6126787   1.890   7.862   5.126  1.0016 -0.9680 -3.1008
   84MOL    H6226788   1.902   7.879   5.373 -1.3784 -0.5046 -1.0584
   84MOL    H6326789   2.081   7.815   5.500 -0.6855  0.7963 -0.2249
   84MOL    H6426790   2.172   7.478   5.462  0.4339  2.2447 -2.1397
   84MOL    H6526791   2.202   7.564   5.610 -1.5450 -0.8398  0.4121
   84MOL    C6626792   2.361   7.435   5.556  0.5787  0.0523 -0.2532
   84MOL    C6726793   2.411   7.361   5.427 -0.2745 -0.0198 -0.2306
   84MOL    C6826794   2.527   7.403   5.359 -0.0415 -0.1131 -0.0125
   84MOL   Cl6926795   2.628   7.531   5.420 -0.2605  0.2138  0.0552
   84MOL    C7026796   2.569   7.338   5.246 -0.2323  0.0888 -0.0628
   84MOL    C7126797   2.495   7.230   5.194  0.1414 -0.2961  0.2863
   84MOL    C7226798   2.371   7.195   5.259 -0.1000 -0.3423  0.0928
   84MOL    C7326799   2.328   7.261   5.371  0.5645  0.5065 -0.3690
   84MOL    C7426800   2.313   7.343   5.673  0.0766  0.6350 -0.2910
   84MOL    H7526801   2.444   7.487   5.605  1.0630 -1.1092  0.1905
   84MOL    H7626802   2.662   7.361   5.197  1.1163 -1.4037  1.7091
   84MOL    H7726803   2.509   7.189   5.095 -0.5164  0.1102  0.0211
   84MOL    H7826804   2.314   7.119   5.208  0.2829  0.4498 -1.5696
   84MOL    H7926805   2.230   7.238   5.411  0.4251  2.1941  0.2721
   84MOL    H8026806   2.230   7.284   5.633 -1.1183  2.9186 -1.2713
   84MOL    H8126807   2.277   7.404   5.756  0.5769 -0.4424  0.7161
   84MOL    C8226808   2.437   7.271   5.739  0.1110  0.5713  0.2794
   84MOL    C8326809   2.466   7.147   5.654  0.1993  0.2623  0.4403
   84MOL    C8426810   2.585   7.126   5.582 -0.1059 -1.0258  0.1741
   84MOL   Cl8526811   2.714   7.242   5.584  0.3306  0.1244  0.1210
   84MOL    C8626812   2.614   7.003   5.521  0.0872  0.0752  0.0882
   84MOL    C8726813   2.518   6.902   5.525 -0.6903 -0.2225  0.1391
   84MOL    C8826814   2.394   6.921   5.591  0.6237  0.5620 -0.2050
   84MOL    C8926815   2.369   7.040   5.661 -0.4530  0.0659  0.2120
   84MOL    C9026816   2.410   7.237   5.895 -0.3906 -0.3834 -0.0764
   84MOL    H9126817   2.532   7.324   5.730 -1.3297  3.0925 -0.7469
   84MOL    H9226818   2.713   6.991   5.480  0.5464 -0.3188  1.2922
   84MOL    H9326819   2.531   6.807   5.475 -1.0623 -0.3818  0.3458
   84MOL    H9426820   2.332   6.835   5.612  0.3818  0.5981 -0.7524
   84MOL    H9526821   2.281   7.035   5.723  0.1817 -2.6324  0.9556
   84MOL    H9626822   2.472   7.153   5.926 -1.5690 -0.5365  1.9645
   84MOL    H9726823   2.306   7.207   5.910 -1.0830  2.0028  0.1299
   84MOL    C9826824   2.437   7.339   6.008 -0.3587 -0.2392 -0.3109
   84MOL    C9926825   2.400   7.479   5.972  0.1821 -0.2095 -0.4263
   84MOL   C10026826   2.286   7.549   6.029 -0.3264 -0.3985  0.4509
   84MOL  Cl10126827   2.155   7.472   6.108 -0.1804  0.2539  0.2583
   84MOL   C10226828   2.271   7.686   6.012  0.0699 -0.0454  0.3098
   84MOL   C10326829   2.352   7.764   5.935 -0.9874 -0.4489  0.1400
   84MOL   C10426830   2.457   7.701   5.863  0.2572 -0.3487 -0.0508
   84MOL   C10526831   2.484   7.563   5.884 -0.7599  0.0761  0.2361
   84MOL   C10626832   2.584   7.335   6.055  0.2005 -0.1158 -0.1205
   84MOL   H10726833   2.375   7.313   6.094 -1.4917 -1.6980 -1.5428
   84MOL   H10826834   2.184   7.737   6.050 -0.1602 -0.8435  0.8820
   84MOL   H10926835   2.325   7.868   5.922  0.1272 -0.4992 -2.9975
   84MOL   H11026836   2.519   7.763   5.799 -0.4908  0.0428 -0.3998
   84MOL   H11126837   2.575   7.517   5.849 -0.0487  0.9415  0.9308
   84MOL   H11226838   2.621   7.433   6.084  0.3430 -0.0011 -0.6936
   84MOL   H11326839   2.645   7.321   5.966  1.1781  0.3143  0.4740
   84MOL   C11426840   2.626   7.231   6.168  0.3913  0.1497 -0.5174
   84MOL   C11526841   2.533   7.224   6.286  0.3598 -0.0306 -0.3195
   84MOL   C11626842   2.507   7.109   6.364 -0.6806 -0.3880 -0.9051
   84MOL  Cl11726843   2.584   6.961   6.317  0.3114  0.2907 -0.3927
   84MOL   C11826844   2.420   7.110   6.472 -0.6032  0.3200 -0.2759
   84MOL   C11926845   2.358   7.232   6.511  0.1253  0.3992 -0.1367
   84MOL   C12026846   2.397   7.351   6.444  0.3174  0.5172  0.9024
   84MOL   C12126847   2.471   7.345   6.324 -0.3014  0.5703 -0.5150
   84MOL   C12226848   2.769   7.261   6.210  0.1129 -0.0087 -0.7441
   84MOL   H12326849   2.623   7.137   6.113  2.8356 -1.4111  1.8334
   84MOL   H12426850   2.406   7.018   6.527 -0.1350 -0.4877 -1.4786
   84MOL   H12526851   2.301   7.236   6.603 -0.7027 -0.3775 -0.6046
   84MOL   H12626852   2.376   7.448   6.487 -0.7142  0.9447 -0.5420
   84MOL   H12726853   2.481   7.435   6.266  3.8638  0.1097 -0.6188
   84MOL   H12826854   2.792   7.227   6.311  0.8352 -2.1564 -1.5977
   84MOL   H12926855   2.783   7.368   6.229  0.1598 -0.1111 -0.1896
   84MOL   C13026856   2.873   7.210   6.103  0.0254  0.1204  0.2601
   84MOL   C13126857   2.878   7.060   6.105 -0.3248 -0.0461 -0.3155
   84MOL   C13226858   2.840   6.981   5.995 -0.4803 -0.4237 -0.4453
   84MOL  Cl13326859   2.793   7.065   5.852  0.2471 -0.5242  0.1511
   84MOL   C13426860   2.843   6.842   6.002 -0.2319 -1.0722 -0.2625
   84MOL   C13526861   2.892   6.776   6.114 -0.4076  0.0228 -0.2118
   84MOL   C13626862   2.936   6.856   6.220 -0.4931  0.4869 -0.2386
   84MOL   C13726863   2.924   6.995   6.217 -0.2134  0.6340 -0.1253
   84MOL   C13826864   3.005   7.277   6.124  0.5554 -0.1342  0.4875
   84MOL   H13926865   2.855   7.247   6.002  1.6363  0.3820  0.0587
   84MOL   H14026866   2.816   6.786   5.913  0.6961  1.7897 -2.4219
   84MOL   H14126867   2.904   6.669   6.118 -1.1216  0.0032  4.1668
   84MOL   H14226868   2.965   6.813   6.315 -1.0293 -1.9810 -1.1515
   84MOL   H14326869   2.969   7.056   6.294  2.2515 -0.1954 -0.8822
   84MOL   H14426870   3.080   7.223   6.066  1.3485  1.3588  0.1003
   84MOL   H14526871   3.028   7.278   6.231 -0.4954  2.5007  0.7293
   84MOL   C14626872   3.024   7.428   6.095  0.3470 -0.8148  0.5787
   84MOL   C14726873   2.969   7.467   5.958 -0.7512  0.0255  0.0896
   84MOL   C14826874   2.876   7.572   5.935  0.9843 -0.0057 -0.2994
   84MOL  Cl14926875   2.805   7.653   6.064  0.2282 -0.1983  0.6166
   84MOL   C15026876   2.819   7.600   5.808  0.1851 -0.3601  0.2727
   84MOL   C15126877   2.861   7.532   5.694  0.5231  0.4497 -0.2398
   84MOL   C15226878   2.956   7.435   5.711 -0.6265 -0.0840 -0.0486
   84MOL   C15326879   2.999   7.393   5.836  0.2232 -0.1035 -0.3819
   84MOL   C15426880   3.170   7.482   6.117  0.1490 -0.0909  0.7290
   84MOL   H15526881   2.965   7.476   6.173  1.4931 -1.9662  2.2174
   84MOL   H15626882   2.740   7.675   5.801 -0.9609 -1.5492  0.2838
   84MOL   H15726883   2.811   7.558   5.601 -4.4766  1.5864  2.5578
   84MOL   H15826884   2.989   7.385   5.621  1.1601 -2.9961  2.1387
   84MOL   H15926885   3.076   7.317   5.832  0.5477  0.2987 -2.8587
   84MOL   H16026886   3.167   7.587   6.090  0.8080 -0.0821  0.6858
   84MOL   H16126887   3.247   7.429   6.061  0.3228 -0.0809  0.9579
   84MOL   C16226888   3.225   7.461   6.257  0.1242 -0.8172 -0.5216
   84MOL   C16326889   3.138   7.512   6.369 -0.1726  0.2406  0.3834
   84MOL   C16426890   3.128   7.436   6.493 -0.1948 -0.3954 -0.5140
   84MOL  Cl16526891   3.197   7.274   6.512  0.2849  0.2218 -0.0791
   84MOL   C16626892   3.039   7.476   6.590 -0.6442  0.8708  0.2162
   84MOL   C16726893   2.974   7.602   6.580 -0.1540 -0.1292  0.3008
   84MOL   C16826894   2.996   7.682   6.466 -0.5560 -0.3280 -0.4048
   84MOL   C16926895   3.072   7.638   6.358 -0.0938 -0.1501  1.0113
   84MOL   C17026896   3.368   7.500   6.276  0.5942  0.1834 -0.2840
   84MOL   H17126897   3.234   7.353   6.265  1.5023 -0.9407 -3.3785
   84MOL   H17226898   3.023   7.415   6.677 -0.6205 -0.9206 -1.0231
   84MOL   H17326899   2.897   7.618   6.653  1.0695 -0.4053  1.6721
   84MOL   H17426900   2.940   7.774   6.460 -0.8018 -0.4318  0.2689
   84MOL   H17526901   3.074   7.703   6.271  1.6646 -0.3915  0.8560
   84MOL   H17626902   3.431   7.440   6.210 -0.3380 -0.0294 -0.9992
   84MOL   H17726903   3.406   7.468   6.373  3.6839 -1.5555 -2.0116
   84MOL   C17826904   3.401   7.654   6.258  0.7794 -0.4829 -0.6488
   84MOL   C17926905   3.415   7.700   6.108 -0.2812  0.1412 -0.9849
   84MOL   C18026906   3.340   7.810   6.049 -0.0203 -0.4170 -0.4057
   84MOL  Cl18126907   3.236   7.905   6.147  0.1943 -0.3939  0.0135
   84MOL   C18226908   3.358   7.842   5.914  0.2583  0.3421  0.3671
   84MOL   C18326909   3.432   7.756   5.826  0.4890 -0.4702 -0.7101
   84MOL   C18426910   3.502   7.651   5.880 -0.2225  0.2579 -0.6265
   84MOL   C18526911   3.500   7.628   6.020  0.0913  0.1759  0.0525
   84MOL   C18626912   3.524   7.688   6.339 -0.7421  0.1509  0.2235
   84MOL   H18726913   3.319   7.716   6.294 -0.3165 -2.3306  0.1022
   84MOL   H18826914   3.311   7.924   5.863  0.7243  3.0201  4.0671
   84MOL   H18926915   3.442   7.780   5.721  0.8489 -0.3479 -0.6467
   84MOL   H19026916   3.564   7.584   5.823 -0.0180 -0.3353  0.2885
   84MOL   H19126917   3.559   7.550   6.063 -0.8758 -0.6342 -0.0777
   84MOL   H19226918   3.563   7.784   6.305  1.1244 -0.5094  0.4032
   84MOL   H19326919   3.599   7.608   6.331 -1.1972 -0.3775  1.1286
   84MOL   C19426920   3.504   7.695   6.499 -0.1526 -0.0048  0.2594
   84MOL   C19526921   3.383   7.773   6.549 -0.4908  0.4414  0.5494
   84MOL   C19626922   3.304   7.725   6.655  0.3394  0.0016 -0.5451
   84MOL  Cl19726923   3.346   7.591   6.755 -0.4258  0.1567  0.2570
   84MOL   C19826924   3.192   7.806   6.701 -0.0244 -0.6732 -0.0589
   84MOL   C19926925   3.169   7.933   6.644 -0.1987 -0.2101  0.4687
   84MOL   C20026926   3.246   7.969   6.532  0.4659 -0.6227 -0.2577
   84MOL   C20126927   3.352   7.892   6.485  0.3709 -0.4759 -0.4393
   84MOL   C20226928   3.639   7.759   6.552 -0.6661  0.1209  0.1815
   84MOL   H20326929   3.493   7.593   6.535 -0.5936  0.6931  2.1245
   84MOL   H20426930   3.147   7.778   6.795  1.3880  0.2777  0.9120
   84MOL   H20526931   3.095   8.006   6.676  0.3915  0.4297  0.3971
   84MOL   H20626932   3.229   8.066   6.486 -1.3820 -0.4135  0.8362
   84MOL   H20726933   3.412   7.931   6.405  0.5698 -0.7050 -0.4006
   84MOL   H20826934   3.629   7.777   6.659  0.2756 -2.9112  0.8335
   84MOL   H20926935   3.666   7.855   6.508  1.6014  0.0516  1.3388
   84MOL   C21026936   3.760   7.653   6.561  0.2276 -0.5529  0.1005
   84MOL   C21126937   3.729   7.544   6.665  0.2046  0.0681 -0.1791
   84MOL   C21226938   3.698   7.409   6.637 -0.1291 -0.1555  0.1704
   84MOL  Cl21326939   3.683   7.368   6.469 -0.5524 -0.3849  0.3110
   84MOL   C21426940   3.666   7.315   6.735  0.0963  0.1012 -0.0470
   84MOL   C21526941   3.668   7.351   6.869 -0.0611  0.0927 -0.2248
   84MOL   C21626942   3.699   7.482   6.905  0.0517  0.0014  0.3282
   84MOL   C21726943   3.729   7.575   6.805  0.1468  0.2514 -0.2695
   84MOL   C21826944   3.890   7.727   6.591 -0.0394  0.2296  0.0431
   84MOL   H21926945   3.769   7.616   6.459  1.0957  1.6051 -0.6452
   84MOL   H22026946   3.624   7.220   6.704 -2.3575  0.7813  0.9923
   84MOL   H22126947   3.637   7.279   6.944 -0.4108  1.6658  1.1655
   84MOL   H22226948   3.705   7.511   7.009  0.3798  2.1341 -0.2481
   84MOL   H22326949   3.735   7.675   6.846 -1.3489  0.3744 -0.3204
   84MOL   H22426950   3.968   7.651   6.593  0.0863  0.3385 -0.6197
   84MOL   H22526951   3.884   7.770   6.692  1.4438  0.2565  0.1295
   84MOL   C22626952   3.951   7.835   6.490  0.3229  0.0988 -0.0284
   84MOL   C22726953   4.038   7.767   6.391 -0.3682 -0.4489 -0.6616
   84MOL   C22826954   3.997   7.736   6.256  0.4165  0.1262  0.4003
   84MOL  Cl22926955   3.837   7.774   6.196 -0.1125  0.2521  0.1187
   84MOL   C23026956   4.084   7.672   6.163  0.8526  0.3287 -0.1562
   84MOL   C23126957   4.220   7.650   6.205  0.6231 -0.3521  0.5963
   84MOL   C23226958   4.268   7.689   6.330 -0.1869  0.3808  0.2110
   84MOL   C23326959   4.174   7.749   6.421 -0.2565 -0.0123 -0.1159
   84MOL   C23426960   4.012   7.961   6.568  0.2725  0.1172  0.6270
   84MOL   H23526961   3.863   7.884   6.450 -1.5016 -1.2828  2.1734
   84MOL   H23626962   4.051   7.660   6.061 -0.0386  2.7406 -0.1747
   84MOL   H23726963   4.285   7.611   6.127 -1.4277  0.0408 -1.3423
   84MOL   H23826964   4.371   7.667   6.352  0.2801  1.1826 -1.1554
   84MOL   H23926965   4.203   7.767   6.523  2.6184 -1.5639 -0.5793
   84MOL   H24026966   4.076   8.019   6.502  0.8902 -0.2070  0.9376
   84MOL   H24126967   4.087   7.931   6.642  0.0153  2.1987  1.7759
   84MOL   C24226968   3.903   8.057   6.638  0.0833  0.4606 -0.6898
   84MOL   C24326969   3.811   8.137   6.547 -0.5027 -0.7890  0.4439
   84MOL   C24426970   3.693   8.194   6.606 -0.4177  1.0769  0.0770
   84MOL  Cl24526971   3.654   8.181   6.780  0.3162 -0.0176 -0.5293
   84MOL   C24626972   3.613   8.275   6.527 -0.6291 -0.4289  0.4151
   84MOL   C24726973   3.629   8.286   6.389 -0.5402  0.0694  0.8152
   84MOL   C24826974   3.747   8.230   6.330  0.0552  0.1545  0.3462
   84MOL   C24926975   3.830   8.150   6.410  0.1077 -0.1930  0.7827
   84MOL   C25026976   3.979   8.160   6.721 -0.0288  0.5840  0.6471
   84MOL   H25126977   3.844   8.001   6.711 -1.8201 -0.4960 -2.9269
   84MOL   H25226978   3.536   8.329   6.581  0.0697 -0.0258  1.0165
   84MOL   H25326979   3.564   8.355   6.336 -3.2177 -0.2063  3.5630
   84MOL   H25426980   3.772   8.253   6.228  1.5627 -0.7502  0.4940
   84MOL   H25526981   3.915   8.097   6.369 -0.0442  0.1002  0.0797
   84MOL   H25626982   4.044   8.099   6.784 -1.5839 -2.9184 -0.9676
   84MOL   H25726983   3.905   8.208   6.784 -1.3420  0.3055 -0.6473
   84MOL   C25826984   4.066   8.272   6.661 -0.8761  0.3333  1.1224
   84MOL   C25926985   4.193   8.305   6.742  0.2160  0.0143  0.3996
   84MOL   C26026986   4.323   8.282   6.700 -0.5182  0.4530  0.3444
   84MOL  Cl26126987   4.360   8.227   6.538 -0.1166 -0.1430 -0.3356
   84MOL   C26226988   4.434   8.322   6.781  0.2331 -0.3189 -0.1887
   84MOL   C26326989   4.407   8.390   6.901 -0.2787 -0.0738  0.0016
   84MOL   C26426990   4.276   8.413   6.942 -0.0648 -0.2932  0.3805
   84MOL   C26526991   4.172   8.372   6.864 -0.3453  0.0042  0.1536
   84MOL   C26626992   3.997   8.404   6.625  0.3149  0.1986 -0.7643
   84MOL   H26726993   4.098   8.230   6.566  0.3609  0.4397  1.4708
   84MOL   H26826994   4.536   8.295   6.759  0.4825 -1.1750  1.9375
   84MOL   H26926995   4.481   0.028   6.955 -1.0346 -1.1034  2.1715
   84MOL   H27026996   4.244   0.056   7.023 -1.1947  1.5806 -1.4825
   84MOL   H27126997   4.075   8.396   6.905 -0.2945 -2.3390  1.7753
   84MOL   H27226998   3.976   0.049   6.710 -0.5662  0.3079 -1.0615
   84MOL   H27326999   3.906   8.378   6.572  2.0198 -2.6724 -2.3877
   84MOL   C27427000   4.067   0.067   6.517 -0.4753 -0.1880  0.3573
   84MOL   C27527001   3.995   0.199   6.491 -0.0829 -0.2129  0.4862
   84MOL   C27627002   4.046   0.326   6.521  0.9046 -0.0723 -0.7933
   84MOL  Cl27727003   4.212   0.340   6.562  0.0166 -0.3743  0.0294
   84MOL   C27827004   3.974   0.445   6.514 -0.1340  0.4757  0.2939
   84MOL   C27927005   3.841   0.431   6.462 -0.3803  0.8565  0.7113
   84MOL   C28027006   3.788   0.315   6.414  0.7760 -0.1107 -0.0015
   84MOL   C28127007   3.867   0.194   6.429  0.5670 -0.2449 -0.1344
   84MOL   C28227008   4.091   8.418   6.382  0.2400 -0.7062 -0.0324
   84MOL   H28327009   4.167   0.086   6.557  0.3887 -1.9213 -0.9305
   84MOL   H28427010   4.024   0.540   6.528 -1.4009  1.4328 -1.4409
   84MOL   H28527011   3.769   0.509   6.442 -0.1199  0.7293 -0.8116
   84MOL   H28627012   3.699   0.327   6.353  0.2942  1.3893  0.9851
   84MOL   H28727013   3.830   0.097   6.400  1.6041 -0.4990 -0.6575
   84MOL   H28827014   3.993   8.395   6.341 -0.6569  0.8144  1.2068
   84MOL   H28927015   4.158   8.332   6.392  2.8422  0.9927 -2.1892
   84MOL   C29027016   4.167   0.081   6.277  0.2011  0.0256  0.3513
   84MOL   C29127017   4.096   0.070   6.136  0.1411  0.9229 -0.2444
   84MOL   C29227018   4.052   0.185   6.068  0.0827 -0.5764 -0.8058
   84MOL  Cl29327019   4.063   0.339   6.149 -0.0840  0.5082 -0.0153
   84MOL   C29427020   3.998   0.181   5.941 -0.3201  0.1395 -0.0591
   84MOL   C29527021   3.966   0.052   5.882  0.2871 -0.1927 -0.7369
   84MOL   C29627022   4.007   8.355   5.947  0.0328  0.4936  0.0483
   84MOL   C29727023   4.076   8.362   6.069  0.6793  0.0333 -0.8219
   84MOL   C29827024   4.317   0.029   6.277  0.3270 -0.6707  0.3764
   84MOL   H29927025   4.172   0.183   6.316  1.4044  0.8516 -1.9106
   84MOL   H30027026   3.979   0.273   5.887 -0.0296  0.9703  1.2361
   84MOL   H30127027   3.907   0.042   5.793 -1.1587  0.5797  0.1085
   84MOL   H30227028   3.982   8.262   5.899  4.1354  0.1266 -1.5678
   84MOL   H30327029   4.109   8.266   6.107  0.5488 -0.0612 -0.9460
   84MOL   H30427030   4.310   8.344   6.250 -0.0938 -0.8777  1.2833
   84MOL   H30527031   4.360   0.043   6.376  2.3985  0.5876 -0.6527
   84MOL   C30627032   4.402   0.100   6.173 -0.3217 -1.0230 -0.5233
   84MOL   C30727033   4.530   0.031   6.129 -0.3184 -0.2316  0.1504
   84MOL   C30827034   4.584   0.065   6.004 -0.1312  0.0023 -0.6862
   84MOL  Cl30927035   4.521   0.173   5.886 -0.3277 -0.1042 -0.0330
   84MOL   C31027036   4.705   0.001   5.974 -0.4185 -0.4385  0.4039
   84MOL   C31127037   4.780   8.343   6.062 -0.3509  0.1871  0.2299
   84MOL   C31227038   4.732   8.317   6.188 -0.1914  0.3588  1.0467
   84MOL   C31327039   4.605   8.372   6.221 -0.1307  0.4018  0.3102
   84MOL   C31427040   4.448   0.229   6.236 -0.4851  0.0076  0.5030
   84MOL   H31527041   4.350   0.135   6.084 -0.5241  0.7188  0.2572
   84MOL   H31627042   4.734   0.026   5.873 -0.0767 -1.7238  0.1765
   84MOL   H31727043   4.880   8.307   6.037 -0.9193  0.7361 -3.1543
   84MOL   H31827044   4.784   8.248   6.253 -0.2749  0.1313  0.8728
   84MOL   H31927045   4.567   8.360   6.322  0.5734  0.4049  0.5744
   84MOL   H32027046   4.524   0.278   6.175 -0.9148 -0.4725 -0.4154
   84MOL   H32127047   4.505   0.213   6.328 -0.0187  0.7299  0.3459
   84MOL   H32227048   4.366   0.297   6.257 -0.7395 -0.3865  0.7950
   85MOL     C127049   2.151   2.912   2.221  0.7056 -0.0089 -0.3412
   85MOL     C227050   2.145   3.041   2.307 -0.1499 -0.1332  0.4670
   85MOL     C327051   2.086   3.159   2.257 -0.0101 -0.2156 -0.5464
   85MOL    Cl427052   2.038   3.184   2.093  0.0219  0.3694  0.2652
   85MOL     C527053   2.060   3.265   2.352 -0.2936 -0.6994 -0.7747
   85MOL     C627054   2.115   3.260   2.482  0.5254  0.2537  0.1914
   85MOL     C727055   2.185   3.147   2.524  0.3461  0.1216 -0.4299
   85MOL     C827056   2.199   3.031   2.438 -0.3376  0.2796  0.2922
   85MOL     C927057   2.041   2.811   2.267  0.4059  0.7098  0.1361
   85MOL    H1027058   2.136   2.931   2.114 -2.8849 -2.2062 -0.3254
   85MOL    H1127059   2.012   3.358   2.325 -0.7661 -0.3538  1.1575
   85MOL    H1227060   2.091   3.332   2.559  2.3141  0.8501  0.2323
   85MOL    H1327061   2.219   3.143   2.626 -1.4152  0.9644  0.2222
   85MOL    H1427062   2.237   2.935   2.468 -1.1117 -0.1955 -0.2285
   85MOL    H1527063   1.959   2.864   2.315 -0.9331 -1.1733 -0.0086
   85MOL    H1627064   2.083   2.757   2.352  1.8011  0.7022 -0.5333
   85MOL    H1727065   2.251   2.870   2.223  0.6427 -0.1290  0.3149
   85MOL    C1827066   2.004   2.697   2.167 -0.4477  0.0398  0.1675
   85MOL    C1927067   1.949   2.764   2.034  0.5695 -0.4169  0.5524
   85MOL    C2027068   1.833   2.847   2.034  0.0390  0.3455  0.6348
   85MOL   Cl2127069   1.747   2.886   2.184 -0.5040  0.0239  0.1600
   85MOL    C2227070   1.786   2.895   1.911 -0.9120 -0.1316 -0.7490
   85MOL    C2327071   1.855   2.865   1.793  0.3545  0.0361 -0.5002
   85MOL    C2427072   1.970   2.783   1.789 -0.2011 -0.1953  0.6692
   85MOL    C2527073   2.015   2.732   1.913 -0.0230  0.5794  0.5877
   85MOL    C2627074   1.914   2.587   2.228 -0.6353 -0.3863 -0.1740
   85MOL    H2727075   2.106   2.664   2.147 -0.3526  0.5794 -0.2541
   85MOL    H2827076   1.696   2.954   1.907 -1.5241 -1.1104 -1.8210
   85MOL    H2927077   1.812   2.900   1.701  0.7472  0.8870 -0.3662
   85MOL    H3027078   2.030   2.764   1.701 -0.6465 -0.2772  0.3855
   85MOL    H3127079   2.095   2.660   1.907 -0.1837  0.3070  1.6857
   85MOL    H3227080   1.811   2.616   2.249 -0.4628 -0.3649  0.6337
   85MOL    H3327081   1.951   2.549   2.323 -0.7256 -0.8814 -0.3369
   85MOL    C3427082   1.913   2.471   2.123  0.8003  0.1508 -0.5361
   85MOL    C3527083   1.794   2.373   2.156 -0.3154 -0.1716 -0.2719
   85MOL    C3627084   1.697   2.344   2.059  0.1966  0.1409  0.0149
   85MOL   Cl3727085   1.700   2.416   1.901 -0.0805 -0.1058  0.0437
   85MOL    C3827086   1.607   2.243   2.075 -0.3965  0.0305 -0.1221
   85MOL    C3927087   1.598   2.180   2.202  0.4775 -0.6344  0.3146
   85MOL    C4027088   1.696   2.210   2.297 -0.0116 -0.2273  0.2323
   85MOL    C4127089   1.798   2.304   2.275  0.9220  0.7310 -0.3559
   85MOL    C4227090   2.043   2.388   2.102 -0.1243 -0.9277 -0.3076
   85MOL    H4327091   1.889   2.515   2.026  1.0644 -1.9110 -1.5610
   85MOL    H4427092   1.555   2.232   1.981  0.6709 -1.5456 -0.5376
   85MOL    H4527093   1.516   2.111   2.217 -0.9827  0.1408 -3.3753
   85MOL    H4627094   1.689   2.175   2.399  3.0660  1.1520  0.9746
   85MOL    H4727095   1.874   2.317   2.350  2.2339  0.8864 -1.6800
   85MOL    H4827096   2.070   2.357   2.203 -0.2616  0.9994  0.3369
   85MOL    H4927097   2.129   2.452   2.082 -1.7164  1.6481  0.7938
   85MOL    C5027098   2.054   2.276   1.996 -0.0683  0.8857  0.5163
   85MOL    C5127099   2.156   2.166   2.037  0.6092  0.0876  0.5150
   85MOL    C5227100   2.121   2.063   2.124  0.2142  0.4072 -0.2686
   85MOL   Cl5327101   1.957   2.038   2.184  0.3048  0.2664  0.1223
   85MOL    C5427102   2.225   1.980   2.173  0.2890 -0.7556  0.2491
   85MOL    C5527103   2.357   2.008   2.141  0.4359 -0.4238 -0.3144
   85MOL    C5627104   2.385   2.093   2.035  0.2049  0.2159 -1.0092
   85MOL    C5727105   2.290   2.180   1.988 -0.4636  0.0295 -0.0302
   85MOL    C5827106   2.070   2.330   1.852 -0.9485 -0.2775  0.5324
   85MOL    H5927107   1.965   2.216   2.015 -0.1757  1.1893  0.9800
   85MOL    H6027108   2.194   1.917   2.255 -0.7276  1.4174  1.5697
   85MOL    H6127109   2.432   1.948   2.192  0.4742 -0.2390 -0.1526
   85MOL    H6227110   2.489   2.114   2.016  0.0952  2.5392  0.6629
   85MOL    H6327111   2.324   2.264   1.928  1.6453  0.2469  1.4475
   85MOL    H6427112   2.166   2.381   1.849 -1.6733  1.1439  1.1085
   85MOL    H6527113   1.991   2.402   1.830 -0.6726 -0.3551 -0.7711
   85MOL    C6627114   2.057   2.216   1.743 -0.0527 -0.4338 -0.0685
   85MOL    C6727115   2.112   2.254   1.600 -0.2869 -0.8473 -0.0889
   85MOL    C6827116   2.185   2.171   1.512 -0.6333  0.5012  0.2569
   85MOL   Cl6927117   2.233   2.014   1.557  0.3941  0.0277 -0.1409
   85MOL    C7027118   2.219   2.205   1.381  0.3950 -0.0092  0.4484
   85MOL    C7127119   2.196   2.333   1.337 -0.8600 -0.0958  0.2421
   85MOL    C7227120   2.123   2.422   1.423 -0.4227  0.9201  0.2830
   85MOL    C7327121   2.081   2.380   1.551 -0.4916 -0.4509  0.3986
   85MOL    C7427122   1.911   2.180   1.741  0.3914  0.0121 -0.0694
   85MOL    H7527123   2.120   2.135   1.779  1.7793 -0.1401 -2.4709
   85MOL    H7627124   2.251   2.128   1.313 -0.9862 -1.9428  1.9528
   85MOL    H7727125   2.222   2.358   1.235  0.9220  1.6078  1.0933
   85MOL    H7827126   2.086   2.519   1.393 -0.6295  0.2093 -1.8438
   85MOL    H7927127   2.022   2.447   1.611 -0.3773 -0.7434  0.8457
   85MOL    H8027128   1.855   2.255   1.684 -1.2108  0.1330  1.6010
   85MOL    H8127129   1.863   2.194   1.839  1.4238 -1.9340  0.7307
   85MOL    C8227130   1.868   2.039   1.697 -0.2544 -0.1467  0.6847
   85MOL    C8327131   1.715   2.025   1.657 -0.0473 -1.1350  0.7024
   85MOL    C8427132   1.667   1.986   1.532 -0.3640 -0.2028  0.6945
   85MOL   Cl8527133   1.769   1.923   1.410 -0.1230 -0.3706  0.1478
   85MOL    C8627134   1.531   1.983   1.495 -0.2643 -0.1414  0.5368
   85MOL    C8727135   1.433   2.030   1.584  0.8123  0.3276 -0.1257
   85MOL    C8827136   1.476   2.054   1.717 -0.0175  0.2114  0.6016
   85MOL    C8927137   1.612   2.068   1.751 -0.0530  0.0694  0.2353
   85MOL    C9027138   1.918   1.936   1.804  0.2689  0.1686 -0.0609
   85MOL    H9127139   1.910   2.021   1.598 -1.8827 -2.2489  0.3352
   85MOL    H9227140   1.501   1.945   1.399  0.0782  0.3121  0.2484
   85MOL    H9327141   1.328   2.023   1.560  1.5485  0.6994 -3.6417
   85MOL    H9427142   1.401   2.080   1.789 -1.1673 -1.7061  0.1547
   85MOL    H9527143   1.655   2.102   1.844  1.5558 -1.8130  0.1976
   85MOL    H9627144   1.879   1.954   1.904  0.2152 -0.2696 -0.0002
   85MOL    H9727145   2.023   1.952   1.826  0.1145 -0.8379  1.4968
   85MOL    C9827146   1.906   1.790   1.771  0.6737 -0.6406  0.9039
   85MOL    C9927147   1.894   1.698   1.893  0.5907  0.1133 -0.5968
   85MOL   C10027148   1.787   1.607   1.908  0.1829 -0.4158 -1.0576
   85MOL  Cl10127149   1.645   1.602   1.803 -0.4503 -0.2136  0.0352
   85MOL   C10227150   1.775   1.527   2.020 -0.0536  0.0527 -0.1477
   85MOL   C10327151   1.873   1.533   2.122  0.3324  0.8912 -0.4272
   85MOL   C10427152   1.975   1.632   2.114  0.0393 -0.4177  0.0193
   85MOL   C10527153   1.991   1.710   1.993  0.8324 -0.1293 -0.5858
   85MOL   C10627154   2.019   1.742   1.683 -0.3986 -0.6125 -0.7941
   85MOL   H10727155   1.817   1.772   1.711  0.2629  1.4671  0.8452
   85MOL   H10827156   1.697   1.453   2.020  0.1061 -0.1435  1.2125
   85MOL   H10927157   1.861   1.478   2.214 -0.7903  0.8366 -0.5962
   85MOL   H11027158   2.046   1.637   2.195  0.3570 -2.7264 -0.0790
   85MOL   H11127159   2.065   1.788   2.008 -0.3456  0.9649 -0.3978
   85MOL   H11227160   2.113   1.759   1.735 -0.0726  1.0509 -1.9202
   85MOL   H11327161   2.025   1.816   1.603 -0.4346 -1.0486 -1.2033
   85MOL   C11427162   2.012   1.606   1.618 -0.2672 -0.3315  0.3850
   85MOL   C11527163   2.149   1.545   1.589 -0.5087  0.7218 -0.1741
   85MOL   C11627164   2.199   1.438   1.676  0.5088  1.0763 -0.0613
   85MOL  Cl11727165   2.113   1.391   1.819  0.1575  0.2973  0.1941
   85MOL   C11827166   2.328   1.378   1.648  0.5043 -0.4380  0.5099
   85MOL   C11927167   2.402   1.430   1.534 -0.0419  0.2820  0.1838
   85MOL   C12027168   2.357   1.534   1.457  0.3300 -0.0766 -0.8809
   85MOL   C12127169   2.229   1.587   1.483 -0.4045  0.2034  0.0224
   85MOL   C12227170   1.925   1.605   1.486  0.0682  0.2411 -0.2292
   85MOL   H12327171   1.955   1.544   1.687 -0.0304  0.0465  0.9287
   85MOL   H12427172   2.369   1.293   1.700  1.2064 -0.1455  0.4327
   85MOL   H12527173   2.498   1.389   1.507 -0.2011 -0.1816  0.3164
   85MOL   H12627174   2.416   1.579   1.379 -0.8907  0.1002 -1.7103
   85MOL   H12727175   2.187   1.666   1.423 -0.1613 -2.4574 -3.7661
   85MOL   H12827176   1.984   1.643   1.403 -1.1707 -1.0739 -1.7440
   85MOL   H12927177   1.856   1.687   1.509 -0.2941  0.0224 -0.5313
   85MOL   C13027178   1.860   1.475   1.431  0.6550 -0.0611  0.6697
   85MOL   C13127179   1.778   1.500   1.298 -0.2540 -0.6025  0.0081
   85MOL   C13227180   1.807   1.436   1.173  0.9781  0.0522 -0.4956
   85MOL  Cl13327181   1.929   1.311   1.153  0.1506 -0.0152 -0.3681
   85MOL   C13427182   1.732   1.465   1.061  0.0569  0.0914 -0.0629
   85MOL   C13527183   1.629   1.563   1.065  0.6070  0.9099 -0.8376
   85MOL   C13627184   1.591   1.623   1.185  0.4914 -0.0009  0.1537
   85MOL   C13727185   1.673   1.598   1.294 -0.1160 -0.6389  0.1207
   85MOL   C13827186   1.771   1.397   1.528 -0.2530  0.8578  0.9248
   85MOL   H13927187   1.947   1.414   1.404  1.2632  1.3798 -0.6964
   85MOL   H14027188   1.755   1.415   0.968  1.7588 -0.5960  0.7094
   85MOL   H14127189   1.575   1.597   0.978  2.7481  1.2842 -2.0455
   85MOL   H14227190   1.517   1.702   1.178  1.5606  1.1871  2.0121
   85MOL   H14327191   1.664   1.649   1.389  0.4011  1.0453 -0.7224
   85MOL   H14427192   1.679   1.362   1.481  0.0539 -0.0540  1.0042
   85MOL   H14527193   1.732   1.467   1.603 -0.5282  1.5084  0.1757
   85MOL   C14627194   1.836   1.282   1.591  0.6322 -0.0774  0.1092
   85MOL   C14727195   1.865   1.159   1.503 -0.4639  0.1198 -0.3913
   85MOL   C14827196   1.990   1.092   1.486 -0.1358 -0.3788 -0.2738
   85MOL  Cl14927197   2.127   1.143   1.569 -0.0751 -0.2695  0.2744
   85MOL   C15027198   1.995   0.974   1.412 -0.0266 -0.2839  0.0600
   85MOL   C15127199   1.886   0.916   1.345 -0.2709 -0.1294  0.1612
   85MOL   C15227200   1.771   0.989   1.355  0.3430 -0.5416  0.1936
   85MOL   C15327201   1.756   1.108   1.430 -0.3923  0.4763 -0.0534
   85MOL   C15427202   1.770   1.244   1.725  0.2547 -0.8859  0.9991
   85MOL   H15527203   1.938   1.316   1.613  0.8451  0.7056 -1.9726
   85MOL   H15627204   2.087   0.918   1.405  0.1371  0.1108 -0.9234
   85MOL   H15727205   1.901   0.835   1.275  0.6922  0.0687  0.1347
   85MOL   H15827206   1.683   0.950   1.306 -1.2258  0.4384  2.1341
   85MOL   H15927207   1.657   1.151   1.439 -0.0899  1.3239 -0.6416
   85MOL   H16027208   1.668   1.280   1.734  0.7956  0.1846  3.3239
   85MOL   H16127209   1.820   1.306   1.800  1.7843 -1.4614  0.4823
   85MOL   C16227210   1.767   1.101   1.780  0.0956  1.0439 -0.2401
   85MOL   C16327211   1.661   1.096   1.887 -0.2998 -0.2301  0.3511
   85MOL   C16427212   1.553   1.010   1.876 -0.1522  0.1118 -0.8827
   85MOL  Cl16527213   1.534   0.903   1.742  0.1356  0.3603  0.5890
   85MOL   C16627214   1.468   0.992   1.987 -0.1184 -0.1828  0.3431
   85MOL   C16727215   1.475   1.081   2.099  0.3684 -0.2291  0.3516
   85MOL   C16827216   1.586   1.170   2.115  0.4580 -0.3112  0.5894
   85MOL   C16927217   1.679   1.165   2.009 -0.4784  0.2927 -0.2698
   85MOL   C17027218   1.911   1.062   1.829  0.1877 -1.1443  0.1698
   85MOL   H17127219   1.745   1.031   1.700  0.1878  0.9713 -0.2017
   85MOL   H17227220   1.392   0.916   1.989  1.3423 -1.6901  0.2922
   85MOL   H17327221   1.420   1.049   2.186 -0.6368 -0.0217 -0.2042
   85MOL   H17427222   1.604   1.224   2.207 -0.3339  0.9578  0.0125
   85MOL   H17527223   1.764   1.230   2.020 -0.7757  0.8216 -1.0431
   85MOL   H17627224   1.950   1.141   1.894 -0.9126 -0.6586  0.2628
   85MOL   H17727225   1.986   1.065   1.750  0.5376 -2.6205  0.4358
   85MOL   C17827226   1.937   0.919   1.880  0.4498  0.1530  0.0505
   85MOL   C17927227   2.089   0.914   1.910  0.1281  0.2172 -0.0064
   85MOL   C18027228   2.137   0.975   2.027 -0.0140 -0.2471  0.2964
   85MOL  Cl18127229   2.021   1.044   2.134  0.0653 -0.4073 -0.0038
   85MOL   C18227230   2.276   0.982   2.061 -0.3830 -0.0148 -0.0207
   85MOL   C18327231   2.374   0.924   1.979 -0.3692  0.4463  0.6619
   85MOL   C18427232   2.328   0.861   1.864 -0.8773 -0.9001  0.3574
   85MOL   C18527233   2.189   0.865   1.823 -0.2846  0.5090  0.4691
   85MOL   C18627234   1.898   0.803   1.781 -0.1120  0.5091 -0.6148
   85MOL   H18727235   1.889   0.897   1.976  1.3007 -0.2164  0.4003
   85MOL   H18827236   2.303   1.034   2.152 -0.9943  4.4154 -2.2181
   85MOL   H18927237   2.476   0.913   2.013 -1.2495 -1.0586  2.9851
   85MOL   H19027238   2.403   0.809   1.806 -0.5860  0.1439 -0.2227
   85MOL   H19127239   2.162   0.813   1.732 -0.0502  0.0359  0.6669
   85MOL   H19227240   1.948   0.814   1.685 -0.0752  1.6644 -0.4814
   85MOL   H19327241   1.792   0.807   1.756  0.1342  0.7670 -1.6454
   85MOL   C19427242   1.915   0.661   1.834  0.0744  0.4990  0.2254
   85MOL   C19527243   1.948   0.565   1.718 -0.8923 -0.1129  0.3075
   85MOL   C19627244   2.076   0.491   1.708 -0.3030 -0.5862  0.6182
   85MOL  Cl19727245   2.198   0.497   1.828  0.1108 -0.0912  0.2223
   85MOL   C19827246   2.109   0.413   1.596  0.1888 -0.0594  0.1820
   85MOL   C19927247   2.007   0.390   1.502 -0.3166 -0.0238  0.1405
   85MOL   C20027248   1.886   0.464   1.505  0.6982 -0.1262  0.3508
   85MOL   C20127249   1.856   0.545   1.612  0.7502  0.0324 -0.7059
   85MOL   C20227250   1.793   0.625   1.910  0.6942  0.2340  0.5235
   85MOL   H20327251   2.000   0.657   1.902 -0.6172  0.3200  1.0965
   85MOL   H20427252   2.200   0.355   1.599  1.2447  1.5785  0.6516
   85MOL   H20527253   2.032   0.331   1.416 -0.0357 -2.3228  1.7503
   85MOL   H20627254   1.812   0.466   1.427  3.2433  0.8250 -2.1309
   85MOL   H20727255   1.764   0.602   1.608  1.1716  0.7521 -0.2381
   85MOL   H20827256   1.710   0.643   1.842 -0.7645 -1.6051  1.7927
   85MOL   H20927257   1.780   0.693   1.994  0.0398  0.2087  0.4420
   85MOL   C21027258   1.782   0.475   1.949  0.6792 -0.4864 -0.3074
   85MOL   C21127259   1.638   0.437   1.984 -0.1394 -0.8308  0.3073
   85MOL   C21227260   1.552   0.375   1.884  0.0365  0.1288  0.2007
   85MOL  Cl21327261   1.599   0.336   1.728  0.1116 -0.1379  0.4548
   85MOL   C21427262   1.424   0.334   1.925 -0.3330  0.7618 -0.0634
   85MOL   C21527263   1.378   0.357   2.057 -0.2384  0.1374  0.0736
   85MOL   C21627264   1.459   0.421   2.150  0.6180  0.3352  0.2037
   85MOL   C21727265   1.590   0.458   2.117  0.0465 -0.2297 -0.3432
   85MOL   C21827266   1.891   0.436   2.056 -0.0195 -0.4986 -1.0118
   85MOL   H21927267   1.801   0.410   1.863  1.6295  0.1803 -0.6100
   85MOL   H22027268   1.350   0.297   1.856 -0.2840  2.9844 -1.3818
   85MOL   H22127269   1.283   0.317   2.089  0.3121 -1.7742 -0.5689
   85MOL   H22227270   1.437   0.432   2.255  0.0988 -0.5262  0.1930
   85MOL   H22327271   1.652   0.486   2.202  0.5095  0.7734 -0.9932
   85MOL   H22427272   1.885   0.505   2.140  0.5837  0.0548 -1.4231
   85MOL   H22527273   1.993   0.452   2.022  0.4020  2.0683  1.2870
   85MOL   C22627274   1.878   0.287   2.107 -0.1503  0.5874 -0.3044
   85MOL   C22727275   1.955   0.260   2.240  0.0055 -0.0679  0.2628
   85MOL   C22827276   1.893   0.224   2.360 -0.9110  1.0546 -0.1327
   85MOL  Cl22927277   1.720   0.213   2.369 -0.1467 -0.2567  0.2182
   85MOL   C23027278   1.969   0.206   2.481  0.1289 -0.0621  0.3328
   85MOL   C23127279   2.111   0.218   2.480  0.7540  0.1279 -0.2256
   85MOL   C23227280   2.180   0.254   2.358  0.9216 -0.6845  0.4336
   85MOL   C23327281   2.098   0.267   2.241  0.2793  0.2188  0.0935
   85MOL   C23427282   1.931   0.181   2.002 -0.4909  0.2915 -0.3360
   85MOL   H23527283   1.776   0.257   2.132  1.1740 -3.1169  1.1040
   85MOL   H23627284   1.931   0.181   2.579  1.5827 -0.9720  0.6701
   85MOL   H23727285   2.179   0.211   2.564  1.7995 -1.3689 -1.1747
   85MOL   H23827286   2.285   0.274   2.346  0.3963  2.4077  0.6839
   85MOL   H23927287   2.143   0.287   2.145 -0.9329 -2.6374 -1.1530
   85MOL   H24027288   2.020   0.128   2.034 -0.2923  0.7405 -0.1380
   85MOL   H24127289   1.973   0.241   1.921  0.1214  1.1626  0.6144
   85MOL   C24227290   1.821   0.089   1.946  0.2641 -0.1888  0.2757
   85MOL   C24327291   1.785   8.390   2.037 -0.1667  0.1158 -0.5148
   85MOL   C24427292   1.661   8.317   2.021  0.6421  0.1707 -0.6636
   85MOL  Cl24527293   1.544   8.369   1.912 -0.2086 -0.0150 -0.1369
   85MOL   C24627294   1.629   8.201   2.101  0.6855  0.2029  0.3815
   85MOL   C24727295   1.734   8.148   2.178  0.1564 -0.1998 -0.3398
   85MOL   C24827296   1.854   8.216   2.201  0.2097  0.1260 -0.0382
   85MOL   C24927297   1.884   8.330   2.123 -0.2335 -0.3380 -1.1413
   85MOL   C25027298   1.854   0.048   1.795  0.4450  0.2285 -0.4738
   85MOL   H25127299   1.734   0.154   1.948  0.9988  0.7801  0.7971
   85MOL   H25227300   1.541   8.138   2.098  2.0343 -1.7194 -0.0821
   85MOL   H25327301   1.712   8.057   2.232 -2.4742 -0.7324 -2.2137
   85MOL   H25427302   1.926   8.181   2.273 -0.0545  0.5336  0.4281
   85MOL   H25527303   1.979   8.378   2.139  0.9099 -2.8950  0.0656
   85MOL   H25627304   1.871   0.138   1.736  0.8904  0.5489  0.1399
   85MOL   H25727305   1.757   0.021   1.754  0.3455  1.2822 -0.9458
   85MOL   C25827306   1.975   8.365   1.783 -0.0217  0.6399  0.4345
   85MOL   C25927307   2.111   8.409   1.841 -0.0247 -0.2985  0.5773
   85MOL   C26027308   2.190   8.336   1.924 -0.3339 -0.1627  0.4781
   85MOL  Cl26127309   2.138   8.185   1.991  0.1843 -0.2185  0.3493
   85MOL   C26227310   2.319   8.376   1.963 -0.2321  0.3591  0.8037
   85MOL   C26327311   2.366   0.087   1.924  0.4524  0.2972 -0.7068
   85MOL   C26427312   2.292   0.163   1.836 -0.4605  0.2820 -0.1801
   85MOL   C26527313   2.171   0.107   1.789 -0.0012  0.0372 -0.2208
   85MOL   C26627314   1.988   8.326   1.635  0.4807  0.1463 -0.6650
   85MOL   H26727315   1.942   8.284   1.848 -0.2428 -0.2666 -0.7921
   85MOL   H26827316   2.393   8.320   2.018 -0.2969 -0.1543  0.3659
   85MOL   H26927317   2.466   0.121   1.945  0.3468 -0.6746  1.4721
   85MOL   H27027318   2.330   0.256   1.797 -0.2391  0.6456  0.8781
   85MOL   H27127319   2.116   0.159   1.712  0.8599  0.1812 -0.7451
   85MOL   H27227320   2.086   8.280   1.628 -0.2633 -1.5642  0.0625
   85MOL   H27327321   1.998   8.419   1.579 -0.1577  0.2844 -0.5528
   85MOL   C27427322   1.879   8.225   1.574 -0.4108 -0.0902  0.3174
   85MOL   C27527323   1.859   8.104   1.660  0.7108 -0.1655  0.3627
   85MOL   C27627324   1.733   8.060   1.714 -0.2842  0.1408 -0.0742
   85MOL  Cl27727325   1.588   8.126   1.651 -0.0747 -0.5277  0.9767
   85MOL   C27827326   1.734   7.947   1.800 -0.0082 -0.2551  0.1239
   85MOL   C27927327   1.851   7.870   1.826 -0.2938 -0.4844 -0.2955
   85MOL   C28027328   1.972   7.914   1.768  0.2241  0.4376 -0.1094
   85MOL   C28127329   1.975   8.028   1.687  0.1118 -0.0040 -0.3310
   85MOL   C28227330   1.912   8.189   1.430  0.0958  0.4291  0.7986
   85MOL   H28327331   1.785   8.279   1.578 -0.7622 -0.7688  1.4203
   85MOL   H28427332   1.637   7.919   1.838 -0.3269  2.2987  1.3403
   85MOL   H28527333   1.848   7.782   1.888  1.4184 -0.5494 -0.2853
   85MOL   H28627334   2.059   7.853   1.787  1.1904  0.5422 -3.7869
   85MOL   H28727335   2.067   8.065   1.645  0.3718  1.2791  1.3453
   85MOL   H28827336   1.872   8.088   1.417 -1.8802  1.2242  0.4860
   85MOL   H28927337   2.020   8.178   1.426  0.5634  4.4604  0.7921
   85MOL   C29027338   1.869   8.295   1.329 -0.2140 -0.5512 -0.7982
   85MOL   C29127339   1.726   8.332   1.336 -0.0072 -0.3787  0.0872
   85MOL   C29227340   1.686   0.049   1.331  0.2335 -0.5546  0.8399
   85MOL  Cl29327341   1.799   0.172   1.310  0.0999  0.1566  0.0141
   85MOL   C29427342   1.548   0.087   1.341  0.2061 -0.3309 -0.3121
   85MOL   C29527343   1.451   8.409   1.356  0.2339 -0.0487  0.5935
   85MOL   C29627344   1.493   8.275   1.358  0.2315  0.0551  0.4897
   85MOL   C29727345   1.631   8.231   1.350 -0.3507  0.3702 -0.0321
   85MOL   C29827346   1.905   8.256   1.190  0.1144  0.2430  0.2500
   85MOL   H29927347   1.937   8.369   1.373 -0.3782 -2.2499  2.5193
   85MOL   H30027348   1.520   0.191   1.335 -0.2512 -0.4836 -0.8288
   85MOL   H30127349   1.345   0.008   1.359 -0.0274 -0.9110 -1.4773
   85MOL   H30227350   1.417   8.205   1.387  0.5461 -0.2798  0.5101
   85MOL   H30327351   1.663   8.130   1.371 -0.3884  0.7516  1.9583
   85MOL   H30427352   1.852   8.320   1.119  0.3269 -0.6021 -0.6939
   85MOL   H30527353   1.873   8.152   1.182  2.3501 -0.3426 -1.7039
   85MOL   C30627354   2.057   8.253   1.158  0.0012  0.1459  0.0451
   85MOL   C30727355   2.121   8.395   1.170 -0.2277  0.6153  0.0489
   85MOL   C30827356   2.209   0.006   1.277 -0.1922  0.3439 -1.0836
   85MOL  Cl30927357   2.245   8.304   1.392 -0.4693  0.0259 -0.1456
   85MOL   C31027358   2.259   0.132   1.300 -0.9353 -0.0685  0.2783
   85MOL   C31127359   2.223   0.231   1.207  0.4884 -0.9964  0.3986
   85MOL   C31227360   2.137   0.208   1.100 -0.0614 -1.0159 -0.5600
   85MOL   C31327361   2.089   0.075   1.078 -0.3765  0.6456 -0.3063
   85MOL   C31427362   2.068   8.206   1.012  0.0209  0.7300 -0.2026
   85MOL   H31527363   2.121   8.179   1.207  1.9414  0.1434 -2.3640
   85MOL   H31627364   2.322   0.145   1.386  2.0430 -0.9546 -1.6924
   85MOL   H31727365   2.254   0.334   1.217  0.4565 -0.8938 -0.4982
   85MOL   H31827366   2.095   0.288   1.042 -2.7952 -1.2551  1.0116
   85MOL   H31927367   2.018   0.059   0.999  0.8601 -0.0134 -1.3131
   85MOL   H32027368   2.021   8.107   1.008  0.9492  0.2160  1.2341
   85MOL   H32127369   2.168   8.188   0.974  0.1419 -0.2369  0.5526
   85MOL   H32227370   2.019   8.275   0.944 -0.0021  0.4198 -0.5026
   86MOL     C127371   4.672   7.511   6.035 -0.6796  0.8039  0.3267
   86MOL     C227372   4.560   7.408   6.041  0.7437 -0.5679  0.7415
   86MOL     C327373   4.437   7.432   5.973  0.2151  0.0704 -0.2096
   86MOL    Cl427374   4.425   7.566   5.866  0.2084  0.3220 -0.0542
   86MOL     C527375   4.329   7.344   5.999  0.0014  0.9480  0.6782
   86MOL     C627376   4.349   7.233   6.085  0.0582 -0.1549  0.4003
   86MOL     C727377   4.476   7.208   6.139  0.0963  0.1915 -0.3591
   86MOL     C827378   4.584   7.292   6.119  0.9058  0.0157  0.4288
   86MOL     C927379   4.752   7.502   5.898  0.2173  0.5770  0.4841
   86MOL    H1027380   4.628   7.610   6.039  0.5554  1.4360 -1.2402
   86MOL    H1127381   4.233   7.358   5.953  0.2438 -1.7233 -0.7043
   86MOL    H1227382   4.270   7.164   6.107 -0.4851  1.0169  2.2568
   86MOL    H1327383   4.475   7.121   6.203 -0.6588  1.2266  1.0729
   86MOL    H1427384   4.683   7.272   6.157  1.0472  1.2736  0.7487
   86MOL    H1527385   4.698   7.533   5.808  0.6678  1.6879  0.5834
   86MOL    H1627386   4.766   7.394   5.890 -0.8774  0.4107  0.6517
   86MOL    H1727387   4.744   7.494   6.116 -1.9031 -2.2186  0.8607
   86MOL    C1827388   4.898   7.554   5.893  0.1197 -0.0900 -0.3680
   86MOL    C1927389   4.906   7.704   5.926 -0.1581 -0.2931  0.6445
   86MOL    C2027390   5.019   7.765   5.987  1.0184 -0.2213  0.0463
   86MOL   Cl2127391   5.163   7.669   6.006 -0.1746  0.0318  0.2292
   86MOL    C2227392   5.017   7.901   6.022  0.3570 -0.3412 -0.1247
   86MOL    C2327393   4.898   7.973   5.994  0.6321  0.3362  0.3180
   86MOL    C2427394   4.787   7.915   5.929 -0.2075 -0.2049  1.3118
   86MOL    C2527395   4.794   7.779   5.896  0.3756 -0.1603 -0.1074
   86MOL    C2627396   4.965   7.529   5.753 -0.4761 -0.1662 -0.8574
   86MOL    H2727397   4.963   7.514   5.971  1.7029  1.4721 -0.8501
   86MOL    H2827398   5.104   7.959   6.050  0.4549 -1.3232  1.7214
   86MOL    H2927399   4.896   8.080   6.005 -0.2378  0.3715 -0.1689
   86MOL    H3027400   4.697   7.969   5.904  0.3444 -0.0511 -0.4618
   86MOL    H3127401   4.706   7.733   5.854 -0.1947 -0.2149  1.1303
   86MOL    H3227402   5.059   7.582   5.738  1.7428 -2.5739  3.4876
   86MOL    H3327403   4.893   7.556   5.676  0.1135  0.3037 -1.2529
   86MOL    C3427404   5.006   7.376   5.731 -0.2646  0.2613 -0.1416
   86MOL    C3527405   5.141   7.333   5.802 -0.6332 -0.2035 -0.0084
   86MOL    C3627406   5.143   7.257   5.921  0.7091  0.0397  0.4661
   86MOL   Cl3727407   4.992   7.202   5.987  0.3860 -0.5336 -0.1084
   86MOL    C3827408   5.264   7.220   5.973 -0.4661 -0.7792 -0.7378
   86MOL    C3927409   5.388   7.267   5.920 -0.4048  0.1590  0.0383
   86MOL    C4027410   5.389   7.348   5.801  0.0438  0.0328 -0.2931
   86MOL    C4127411   5.266   7.379   5.744 -0.2062  0.0016  0.7051
   86MOL    C4227412   5.008   7.350   5.574 -0.4196  0.6950 -0.3176
   86MOL    H4327413   4.929   7.308   5.768 -0.5816 -0.0862 -1.4126
   86MOL    H4427414   5.245   7.157   6.059  0.3852 -0.5976 -0.4122
   86MOL    H4527415   5.482   7.233   5.960 -0.5647 -1.4173 -0.8591
   86MOL    H4627416   5.482   7.386   5.760 -1.0844  1.2713 -1.7509
   86MOL    H4727417   5.272   7.434   5.651  3.1626 -0.1636  0.7578
   86MOL    H4827418   5.076   7.417   5.522 -0.8043 -0.0638 -1.8212
   86MOL    H4927419   4.907   7.376   5.543 -0.6603  0.9997  0.7121
   86MOL    C5027420   5.044   7.211   5.517  0.5304  0.7243  0.0809
   86MOL    C5127421   5.038   7.226   5.366 -0.4320  0.3395  0.5240
   86MOL    C5227422   5.156   7.229   5.289 -0.1593 -0.3511 -0.3626
   86MOL   Cl5327423   5.310   7.216   5.350  0.3513  0.0989  0.0097
   86MOL    C5427424   5.148   7.245   5.151  0.0442  0.2497  0.4065
   86MOL    C5527425   5.023   7.257   5.090  0.9742 -0.6828 -0.1441
   86MOL    C5627426   4.904   7.249   5.168 -0.1572  0.6472  0.4769
   86MOL    C5727427   4.914   7.232   5.305 -0.5369 -0.3548 -0.1757
   86MOL    C5827428   4.956   7.095   5.574  0.1776  0.0119  0.1205
   86MOL    H5927429   5.146   7.180   5.538  0.1472 -0.3936  0.2822
   86MOL    H6027430   5.239   7.231   5.095  0.7346 -0.3283  1.6597
   86MOL    H6127431   5.014   7.273   4.984  2.6262  0.9233 -0.0605
   86MOL    H6227432   4.808   7.258   5.119  0.3578  0.7596 -0.5107
   86MOL    H6327433   4.825   7.219   5.365 -1.3030 -0.5138 -1.3286
   86MOL    H6427434   4.854   7.133   5.588 -0.8144 -2.6024  0.2017
   86MOL    H6527435   5.000   7.074   5.671 -2.5928  0.7639  1.6016
   86MOL    C6627436   4.963   6.964   5.494 -0.2522  0.5523  0.3692
   86MOL    C6727437   4.845   6.875   5.531  0.2807 -0.0289  0.2038
   86MOL    C6827438   4.727   6.857   5.452  0.1176  0.7139 -0.5262
   86MOL   Cl6927439   4.712   6.919   5.291 -0.2814  0.2168 -0.4649
   86MOL    C7027440   4.624   6.774   5.502  0.5781  0.1554 -0.1550
   86MOL    C7127441   4.635   6.727   5.634  0.0787  0.4742 -0.4126
   86MOL    C7227442   4.749   6.731   5.712 -0.2417  0.3754 -0.7774
   86MOL    C7327443   4.850   6.815   5.659  0.3000 -0.3451  0.2519
   86MOL    C7427444   5.099   6.892   5.493 -0.1722  0.4144  0.2860
   86MOL    H7527445   4.953   6.986   5.388  0.9433 -0.5867  0.0042
   86MOL    H7627446   4.532   6.768   5.445  0.4122  2.0848 -0.1335
   86MOL    H7727447   4.559   6.657   5.667  0.8568 -0.9665 -1.5717
   86MOL    H7827448   4.748   6.705   5.817  0.0532 -0.2094 -0.9219
   86MOL    H7927449   4.938   6.839   5.717  0.0958  0.1899  0.3414
   86MOL    H8027450   5.127   6.891   5.598  0.1878 -0.6061  0.1876
   86MOL    H8127451   5.170   6.961   5.446 -1.7333  1.8491 -0.0373
   86MOL    C8227452   5.113   6.750   5.411  1.1836 -0.2323 -0.3572
   86MOL    C8327453   5.063   6.637   5.490  0.5029  0.3062 -0.0707
   86MOL    C8427454   4.945   6.563   5.452 -0.3402  0.1182 -0.5626
   86MOL   Cl8527455   4.874   6.593   5.298 -0.3602  0.0486 -0.1060
   86MOL    C8627456   4.889   6.472   5.544  0.6428 -0.0854 -0.8622
   86MOL    C8727457   4.957   6.442   5.668  0.2097  0.0262 -0.4174
   86MOL    C8827458   5.068   6.517   5.700 -0.3722  0.4679  0.7100
   86MOL    C8927459   5.121   6.614   5.615  0.7249 -0.1220  0.4705
   86MOL    C9027460   5.256   6.735   5.367 -0.4495  0.3543 -0.6150
   86MOL    H9127461   5.053   6.753   5.319  2.0967 -1.0319 -0.9829
   86MOL    H9227462   4.797   6.420   5.521 -0.2780  2.2079 -2.5476
   86MOL    H9327463   4.923   6.364   5.735 -0.3428  0.3306 -0.3361
   86MOL    H9427464   5.124   6.522   5.792  1.9017  1.4147 -0.6654
   86MOL    H9527465   5.209   6.666   5.650  1.1137 -0.0642 -0.5687
   86MOL    H9627466   5.274   6.628   5.356 -1.1439  0.3066 -1.3191
   86MOL    H9727467   5.330   6.763   5.442  0.0295 -0.0364 -0.9374
   86MOL    C9827468   5.310   6.812   5.249 -0.0628 -0.1752  0.0519
   86MOL    C9927469   5.267   6.737   5.123 -0.1496  0.5983 -0.6414
   86MOL   C10027470   5.156   6.780   5.045  0.2042  1.0508  0.0911
   86MOL  Cl10127471   5.065   6.918   5.095  0.1145 -0.4027  0.2264
   86MOL   C10227472   5.119   6.707   4.928  0.6622 -0.7033 -0.0318
   86MOL   C10327473   5.182   6.590   4.891 -0.7856 -0.0232  0.0584
   86MOL   C10427474   5.289   6.538   4.965 -0.3488  0.3331  0.1155
   86MOL   C10527475   5.331   6.612   5.082 -0.7965  0.3007 -0.3605
   86MOL   C10627476   5.461   6.829   5.267  0.5609 -0.0637 -0.6595
   86MOL   H10727477   5.263   6.910   5.244 -0.6286 -0.4148  0.5251
   86MOL   H10827478   5.031   6.748   4.880  0.2090 -1.0174  0.5198
   86MOL   H10927479   5.156   6.539   4.799  0.0320 -1.8111  0.7924
   86MOL   H11027480   5.334   6.449   4.923 -3.5900 -1.7629  0.9025
   86MOL   H11127481   5.410   6.568   5.140 -1.9845 -2.9129 -1.0666
   86MOL   H11227482   5.521   6.738   5.273  2.6341  1.3921  1.8722
   86MOL   H11327483   5.486   6.874   5.364  0.0013 -1.8183  0.3265
   86MOL   C11427484   5.549   6.897   5.160  0.2583  0.2460 -0.2742
   86MOL   C11527485   5.697   6.864   5.190 -0.1385 -0.1850 -0.1710
   86MOL   C11627486   5.780   6.797   5.102  0.1262  0.1719  0.0223
   86MOL  Cl11727487   5.717   6.738   4.949  0.3733 -0.0875  0.1798
   86MOL   C11827488   5.917   6.776   5.129 -0.2745  0.1766  0.0625
   86MOL   C11927489   5.969   6.835   5.246  0.1356 -0.1047  0.5910
   86MOL   C12027490   5.889   6.904   5.339  0.0274 -0.4047  0.2942
   86MOL   C12127491   5.751   6.909   5.312  0.4184 -0.2577 -0.5491
   86MOL   C12227492   5.522   7.050   5.156  0.6083 -0.3419 -0.8104
   86MOL   H12327493   5.531   6.850   5.063 -0.0270  3.0637 -1.6521
   86MOL   H12427494   5.986   6.742   5.054  0.1361  0.8010  0.1594
   86MOL   H12527495   6.077   6.829   5.253  0.2130  0.1753 -0.3270
   86MOL   H12627496   5.930   6.967   5.416 -0.6877  0.2060  0.1880
   86MOL   H12727497   5.689   6.961   5.384 -2.1555 -0.7912 -2.3078
   86MOL   H12827498   5.526   7.104   5.251 -0.0018  1.6316 -1.8838
   86MOL   H12927499   5.421   7.057   5.116  0.1020 -0.6566  0.4143
   86MOL   C13027500   5.617   7.132   5.068  0.9134  0.1702  1.1882
   86MOL   C13127501   5.625   7.284   5.094 -0.1273  0.1589 -0.2586
   86MOL   C13227502   5.735   7.347   5.164  0.8110  0.2176  0.9592
   86MOL  Cl13327503   5.861   7.257   5.235  0.1405  0.2825 -0.1974
   86MOL   C13427504   5.736   7.487   5.169 -0.2836 -0.6901 -0.2304
   86MOL   C13527505   5.627   7.570   5.132 -0.2241  0.6830 -0.2922
   86MOL   C13627506   5.518   7.505   5.059  0.5289 -0.1684 -0.5092
   86MOL   C13727507   5.522   7.364   5.043  0.3274  1.2634 -0.0303
   86MOL   C13827508   5.607   7.097   4.920 -0.1740  0.1961  0.1827
   86MOL   H13927509   5.715   7.090   5.094  2.0598  1.1983 -1.3525
   86MOL   H14027510   5.820   7.539   5.212 -0.3626 -0.1807 -0.6784
   86MOL   H14127511   5.627   7.678   5.128  0.5130  0.7442  1.1187
   86MOL   H14227512   5.447   7.561   5.000 -0.3011 -1.1611 -0.4689
   86MOL   H14327513   5.443   7.309   4.995  0.6775 -1.1304  1.9797
   86MOL   H14427514   5.518   7.148   4.883  0.3863  2.4554  1.8041
   86MOL   H14527515   5.585   6.991   4.908 -0.8017  0.5189 -1.7988
   86MOL   C14627516   5.730   7.124   4.824  0.1024 -0.1954  0.1697
   86MOL   C14727517   5.768   7.272   4.806  0.6603 -0.3917  0.8882
   86MOL   C14827518   5.893   7.324   4.845 -0.2845 -1.0114  0.6617
   86MOL  Cl14927519   6.009   7.225   4.932 -0.2175  0.0546 -0.0533
   86MOL   C15027520   5.927   7.455   4.811 -0.6438 -0.3848 -0.5820
   86MOL   C15127521   5.829   7.543   4.779  0.3272 -0.4038  0.3662
   86MOL   C15227522   5.701   7.497   4.741  0.0727  0.2018 -0.5640
   86MOL   C15327523   5.671   7.361   4.747 -0.3021  0.5048  0.0769
   86MOL   C15427524   5.695   7.050   4.692  0.5236 -0.5072  0.1329
   86MOL   H15527525   5.803   7.064   4.879 -0.1275  0.9224  1.7280
   86MOL   H15627526   6.023   7.503   4.817 -0.8840  0.1136 -0.7351
   86MOL   H15727527   5.846   7.649   4.781  0.7074 -0.4128 -1.5658
   86MOL   H15827528   5.615   7.557   4.715  0.5366  0.2571 -2.0566
   86MOL   H15927529   5.571   7.327   4.725 -0.1680  0.4155 -0.4213
   86MOL   H16027530   5.597   7.080   4.656  0.4404 -1.0445 -0.0920
   86MOL   H16127531   5.695   6.943   4.714  2.0071 -0.4899  0.2863
   86MOL   C16227532   5.811   7.060   4.582  0.6028 -0.3186 -0.6072
   86MOL   C16327533   5.771   7.164   4.471 -0.1017  0.1679  0.3479
   86MOL   C16427534   5.852   7.274   4.442  0.7303 -0.4255  0.2380
   86MOL  Cl16527535   6.005   7.298   4.514 -0.2922 -0.2767  0.0436
   86MOL   C16627536   5.809   7.367   4.353 -0.4756 -0.1532 -0.5402
   86MOL   C16727537   5.679   7.359   4.299 -0.1740  0.0371  0.4116
   86MOL   C16827538   5.603   7.243   4.315  0.0967  0.0621  0.3033
   86MOL   C16927539   5.651   7.140   4.399  0.0428 -0.0092 -0.1363
   86MOL   C17027540   5.833   6.927   4.516  0.1648  0.4019 -0.4321
   86MOL   H17127541   5.896   7.101   4.636 -1.9071  2.4383  1.3931
   86MOL   H17227542   5.878   7.447   4.330  0.7839 -0.4390  2.1456
   86MOL   H17327543   5.634   7.441   4.245  1.1468  0.3562 -0.2115
   86MOL   H17427544   5.506   7.237   4.269  0.7116  1.4130 -1.1994
   86MOL   H17527545   5.589   7.052   4.412 -0.0831 -0.1067 -1.3457
   86MOL   H17627546   5.857   6.940   4.410  0.6573  2.4495 -0.0816
   86MOL   H17727547   5.735   6.879   4.508  0.5781 -0.6363  0.6649
   86MOL   C17827548   5.951   6.829   4.564 -0.0690 -0.3843 -0.0135
   86MOL   C17927549   6.086   6.913   4.574  0.4005 -0.4720 -0.1669
   86MOL   C18027550   6.159   6.930   4.692  0.2750  0.2199 -0.0605
   86MOL  Cl18127551   6.109   6.874   4.844 -0.1334  0.3576  0.2124
   86MOL   C18227552   6.284   6.997   4.696 -0.3643 -0.0975  0.0522
   86MOL   C18327553   6.341   7.034   4.576 -0.4862 -0.3790 -0.3247
   86MOL   C18427554   6.273   7.008   4.458  0.1446  0.1087  0.0461
   86MOL   C18527555   6.142   6.956   4.450 -0.8654 -0.3351  1.1843
   86MOL   C18627556   5.975   6.706   4.472  0.3146  0.0180  0.5595
   86MOL   H18727557   5.934   6.801   4.668  0.4635 -0.4715  0.0504
   86MOL   H18827558   6.341   7.013   4.786 -3.2735  0.4961  1.8846
   86MOL   H18927559   6.434   7.083   4.555 -1.1505  1.5442  1.0345
   86MOL   H19027560   6.325   7.041   4.369 -1.6005  0.6649 -0.8072
   86MOL   H19127561   6.092   6.955   4.354 -0.6124 -1.1069  1.0468
   86MOL   H19227562   6.071   6.655   4.481  1.0515  1.3290  0.2507
   86MOL   H19327563   5.984   6.751   4.374 -1.3036  2.3603  1.4337
   86MOL   C19427564   5.859   6.600   4.481  0.1202 -0.6157 -0.0112
   86MOL   C19527565   5.862   6.523   4.618 -0.0622  0.1236  0.3390
   86MOL   C19627566   5.738   6.496   4.684  0.1548 -0.6549  0.6274
   86MOL  Cl19727567   5.588   6.507   4.594  0.3926 -0.2538 -0.0106
   86MOL   C19827568   5.737   6.441   4.812  0.6952 -0.4558 -0.1213
   86MOL   C19927569   5.856   6.401   4.877 -0.7519 -0.2362  1.4067
   86MOL   C20027570   5.977   6.413   4.802  0.0250  0.4788  0.0058
   86MOL   C20127571   5.981   6.486   4.684 -0.0213  0.5099 -0.6409
   86MOL   C20227572   5.859   6.499   4.357  0.7050  0.0355 -1.0296
   86MOL   H20327573   5.759   6.644   4.478 -0.9446 -2.9275  0.3258
   86MOL   H20427574   5.646   6.404   4.857  1.1525 -1.1215  0.2645
   86MOL   H20527575   5.862   6.345   4.969  0.4739 -2.7275 -0.1327
   86MOL   H20627576   6.061   6.380   4.861  0.4312 -0.5610 -1.1432
   86MOL   H20727577   6.081   6.503   4.646  0.1588 -0.6605 -0.7162
   86MOL   H20827578   5.789   6.420   4.382 -0.2690  0.5949 -1.9123
   86MOL   H20927579   5.955   6.449   4.358  0.6031 -0.1558 -0.8272
   86MOL   C21027580   5.835   6.545   4.208 -0.2472  0.4163  0.4492
   86MOL   C21127581   5.706   6.624   4.199  1.3117 -0.1815 -0.5322
   86MOL   C21227582   5.705   6.765   4.188  0.0168 -0.1124  0.0054
   86MOL  Cl21327583   5.847   6.863   4.164 -0.0951 -0.0556  0.0750
   86MOL   C21427584   5.582   6.834   4.190 -0.3682 -0.1222  0.6522
   86MOL   C21527585   5.461   6.764   4.201 -0.2196 -0.7730  0.7269
   86MOL   C21627586   5.457   6.626   4.215 -0.2914 -0.1603  0.2859
   86MOL   C21727587   5.580   6.555   4.211  0.8086 -0.1580  0.9567
   86MOL   C21827588   5.833   6.430   4.108 -0.1817 -0.1831  0.0089
   86MOL   H21927589   5.920   6.608   4.183  0.7129 -1.2559 -0.5434
   86MOL   H22027590   5.568   6.940   4.179  0.0152 -0.3196 -2.2820
   86MOL   H22127591   5.370   6.822   4.203  0.3644  0.1476  0.9635
   86MOL   H22227592   5.361   6.577   4.213 -1.2907  1.7828 -1.3162
   86MOL   H22327593   5.583   6.447   4.219  2.0253 -0.1226  1.2100
   86MOL   H22427594   5.798   6.470   4.013 -0.8670 -1.3737 -0.2557
   86MOL   H22527595   5.763   6.352   4.138  1.0443 -1.9990 -1.6982
   86MOL   C22627596   5.970   6.350   4.095  0.1185  0.2746  0.4812
   86MOL   C22727597   6.085   6.458   4.073  0.2017 -0.9355 -0.6545
   86MOL   C22827598   6.195   6.473   4.161  0.1041 -0.1303 -0.5633
   86MOL  Cl22927599   6.196   6.393   4.312 -0.0807 -0.5372 -0.6243
   86MOL   C23027600   6.293   6.572   4.135 -0.0899 -0.0235 -0.6304
   86MOL   C23127601   6.294   6.642   4.018 -0.1571 -0.2569  0.4333
   86MOL   C23227602   6.183   6.633   3.934  0.6701 -0.3363  0.3969
   86MOL   C23327603   6.079   6.538   3.965  1.2054  0.5797  0.4687
   86MOL   C23427604   5.970   6.235   3.986 -0.2625 -0.2542 -0.1634
   86MOL   H23527605   5.991   6.299   4.189  2.0932  0.1548  0.0074
   86MOL   H23627606   6.377   6.584   4.202 -1.0429  1.7268  0.2835
   86MOL   H23727607   6.374   6.713   3.998 -2.0736  1.2965 -2.1067
   86MOL   H23827608   6.179   6.683   3.838  0.0248  0.5038  0.8541
   86MOL   H23927609   5.997   6.519   3.898  1.7425  1.6430 -0.5095
   86MOL   H24027610   5.964   6.274   3.884  1.1198 -0.3335 -0.2840
   86MOL   H24127611   5.884   6.170   4.005  0.2827 -1.0861 -0.5220
   86MOL   C24227612   6.107   6.145   3.999  0.0414  0.8517 -0.1341
   86MOL   C24327613   6.237   6.206   3.953 -0.3068 -0.1675 -0.1104
   86MOL   C24427614   6.351   6.197   4.036  0.2070 -0.4002 -0.0337
   86MOL  Cl24527615   6.352   6.121   4.190  0.3699  0.4516 -0.0274
   86MOL   C24627616   6.468   6.264   3.993 -0.1290  0.1266 -0.5211
   86MOL   C24727617   6.477   6.318   3.866 -0.2981  0.1585 -0.0030
   86MOL   C24827618   6.357   6.331   3.788 -0.2502 -0.0180 -0.3233
   86MOL   C24927619   6.236   6.278   3.829  0.3306 -0.6046 -0.6274
   86MOL   C25027620   6.092   6.008   3.933  0.2948 -1.1031  0.4793
   86MOL   H25127621   6.106   6.119   4.105 -0.6572 -1.7564 -0.7535
   86MOL   H25227622   6.550   6.260   4.063  1.6012 -1.0434 -2.5400
   86MOL   H25327623   6.567   6.353   3.817 -1.2978  1.1816 -1.1453
   86MOL   H25427624   6.368   6.375   3.690  1.7193 -0.5735 -0.3623
   86MOL   H25527625   6.144   6.301   3.777 -1.0427  0.3726  2.1305
   86MOL   H25627626   6.192   5.968   3.914  0.9132  1.3891 -1.6873
   86MOL   H25727627   6.063   6.023   3.830  2.2257 -0.5050 -0.0018
   86MOL   C25827628   6.007   5.909   4.017  0.8600  0.4642 -0.8831
   86MOL   C25927629   6.081   5.870   4.147 -0.3420  0.0754  0.5373
   86MOL   C26027630   6.029   5.911   4.271 -0.4792 -0.0734  0.5043
   86MOL  Cl26127631   5.903   6.022   4.293 -0.1493 -0.1326  0.3054
   86MOL   C26227632   6.083   5.858   4.390 -0.5036  0.2020 -0.7000
   86MOL   C26327633   6.191   5.769   4.390  0.3987 -0.5068 -0.2928
   86MOL   C26427634   6.250   5.737   4.269 -0.2316  0.1006 -0.2988
   86MOL   C26527635   6.190   5.778   4.148  0.1518 -0.6318 -0.3634
   86MOL   C26627636   5.984   5.777   3.930  0.5255 -0.0035 -0.4151
   86MOL   H26727637   5.911   5.951   4.046 -0.0608 -2.2488  0.1965
   86MOL   H26827638   6.029   5.889   4.479 -1.6740  0.6916 -1.5599
   86MOL   H26927639   6.226   5.716   4.477 -0.8838  0.1273  0.6278
   86MOL   H27027640   6.337   5.673   4.273  0.1636  0.5272 -1.8025
   86MOL   H27127641   6.230   5.750   4.052  1.3812  1.2470 -0.4287
   86MOL   H27227642   5.945   5.697   3.993  0.2933 -0.4869 -1.1676
   86MOL   H27327643   6.079   5.750   3.885  0.6230  0.4696 -0.4937
   86MOL   C27427644   5.894   5.773   3.806  0.0463 -0.0544 -0.5376
   86MOL   C27527645   5.764   5.831   3.837 -0.6028  0.3823  0.3612
   86MOL   C27627646   5.725   5.962   3.792  0.6710  0.2978  0.2716
   86MOL  Cl27727647   5.838   6.072   3.717 -0.0114 -0.0032 -0.0059
   86MOL   C27827648   5.596   6.018   3.819  0.2368 -0.4123  0.0167
   86MOL   C27927649   5.498   5.939   3.874  0.1787 -0.1059  0.1985
   86MOL   C28027650   5.531   5.807   3.916  0.5355 -0.2066 -0.7801
   86MOL   C28127651   5.663   5.757   3.903  0.0457  0.2493 -0.2331
   86MOL   C28227652   5.881   5.631   3.744  0.4332 -0.2035  0.2699
   86MOL   H28327653   5.940   5.844   3.737  1.0442 -0.4157 -0.2569
   86MOL   H28427654   5.576   6.123   3.810 -2.0585 -0.9251 -1.1507
   86MOL   H28527655   5.396   5.968   3.894  0.2775 -0.7498  1.7039
   86MOL   H28627656   5.462   5.744   3.970  0.4185  0.5482 -0.0464
   86MOL   H28727657   5.684   5.658   3.939 -3.1304 -0.4816 -0.2544
   86MOL   H28827658   5.825   5.564   3.810  0.8049 -2.0499 -1.2494
   86MOL   H28927659   5.979   5.583   3.744  1.0241  0.9896  2.1782
   86MOL   C29027660   5.843   5.644   3.590 -0.0259 -0.2336 -0.1894
   86MOL   C29127661   5.688   5.640   3.585  0.2435 -0.6213  0.6039
   86MOL   C29227662   5.613   5.748   3.518  0.2477 -0.3377 -0.6748
   86MOL  Cl29327663   5.688   5.885   3.446 -0.2529  0.0367  0.0924
   86MOL   C29427664   5.473   5.740   3.511 -0.7331 -0.0614  0.0736
   86MOL   C29527665   5.404   5.633   3.566 -0.4332 -0.3049 -0.0481
   86MOL   C29627666   5.471   5.534   3.636  0.8578  0.0691 -0.2154
   86MOL   C29727667   5.612   5.539   3.653  0.4713 -0.6304  0.1893
   86MOL   C29827668   5.902   5.544   3.491  0.5887 -0.5249  0.3151
   86MOL   H29927669   5.878   5.743   3.560 -0.4802 -0.2605 -0.7967
   86MOL   H30027670   5.424   5.818   3.454  0.7265  1.5829  1.0218
   86MOL   H30127671   5.297   5.627   3.551 -0.9927  0.1989  3.2815
   86MOL   H30227672   5.421   5.449   3.681 -0.3446 -0.1466 -1.9026
   86MOL   H30327673   5.658   5.462   3.714 -1.0474 -0.5208  1.5201
   86MOL   H30427674   5.871   5.578   3.392 -0.3607 -1.5926  0.2303
   86MOL   H30527675   5.865   5.444   3.510  3.2051 -1.0658  2.9282
   86MOL   C30627676   6.056   5.519   3.492  0.0768 -0.4054  0.6367
   86MOL   C30727677   6.143   5.642   3.493  0.9278  0.1755 -0.4465
   86MOL   C30827678   6.246   5.664   3.591  0.2311 -0.5134 -0.5869
   86MOL  Cl30927679   6.282   5.546   3.710 -0.3474  0.0614 -0.0792
   86MOL   C31027680   6.314   5.788   3.599 -0.4865 -0.8348 -0.6101
   86MOL   C31127681   6.283   5.888   3.505 -0.3086 -1.1059  0.0708
   86MOL   C31227682   6.192   5.867   3.401  0.1274  0.0641 -0.5855
   86MOL   C31327683   6.125   5.742   3.395  0.6050 -0.1271  0.0486
   86MOL   C31427684   6.093   5.418   3.382 -0.1352  0.2115 -0.6172
   86MOL   H31527685   6.060   5.466   3.587 -0.6580 -0.9749  0.3553
   86MOL   H31627686   6.398   5.807   3.665 -0.8157  2.7697 -1.0874
   86MOL   H31727687   6.338   5.981   3.507 -2.1881  0.0301 -0.1076
   86MOL   H31827688   6.159   5.943   3.332  0.3686  0.1154 -0.6460
   86MOL   H31927689   6.059   5.723   3.313  0.3849  0.0587  0.1828
   86MOL   H32027690   6.073   5.454   3.281 -1.2035 -1.1708 -0.9226
   86MOL   H32127691   6.026   5.333   3.397  1.3799 -1.3651 -2.5861
   86MOL   H32227692   6.197   5.388   3.388  0.0445  0.6726 -1.5097
   87MOL     C127693   4.604   6.398   1.901 -0.0968  0.0850  0.0434
   87MOL     C227694   4.749   6.438   1.917 -1.0423 -0.3692 -0.4492
   87MOL     C327695   4.797   6.474   2.047 -0.1327 -0.3332  0.1741
   87MOL    Cl427696   4.697   6.487   2.187  0.1879  0.0364  0.1020
   87MOL     C527697   4.933   6.503   2.057  0.7110  0.7289 -1.3342
   87MOL     C627698   5.013   6.522   1.940  0.6610 -0.3445 -0.4703
   87MOL     C727699   4.964   6.486   1.818 -0.4325 -0.0094  0.4003
   87MOL     C827700   4.835   6.436   1.801  0.1046 -0.0529 -0.0471
   87MOL     C927701   4.588   6.242   1.927  0.5158  0.8324  0.0931
   87MOL    H1027702   4.536   6.462   1.957 -0.8036 -0.9854  0.4172
   87MOL    H1127703   4.965   6.525   2.157 -1.9154  0.0156 -0.3089
   87MOL    H1227704   5.119   6.538   1.952  0.9703 -1.6920 -1.3108
   87MOL    H1327705   5.025   6.486   1.729 -1.2081  0.9572 -0.1454
   87MOL    H1427706   4.799   6.405   1.703 -0.5764  0.8910 -0.0990
   87MOL    H1527707   4.612   6.208   2.028 -1.5134  0.4784  0.4752
   87MOL    H1627708   4.659   6.180   1.873 -3.1904 -2.8296 -0.8600
   87MOL    H1727709   4.568   6.421   1.801  0.0004 -0.1583 -0.0471
   87MOL    C1827710   4.453   6.188   1.895  0.0329  0.7050 -0.0063
   87MOL    C1927711   4.343   6.245   1.990  0.5353 -0.3103 -0.6502
   87MOL    C2027712   4.212   6.268   1.939  0.4563  0.5256 -1.0684
   87MOL   Cl2127713   4.169   6.221   1.783 -0.1795  0.0402 -0.0177
   87MOL    C2227714   4.112   6.323   2.017  0.2195 -0.0313 -0.1595
   87MOL    C2327715   4.138   6.357   2.154 -1.1427 -0.4663 -0.0859
   87MOL    C2427716   4.270   6.334   2.205  0.5024 -0.5450 -0.1353
   87MOL    C2527717   4.366   6.282   2.119  0.2161 -1.5055 -0.1563
   87MOL    C2627718   4.440   6.030   1.902  0.3424  0.0028  0.6960
   87MOL    H2727719   4.429   6.216   1.792 -0.1078  0.3640 -0.0678
   87MOL    H2827720   4.015   6.336   1.973 -0.7941 -2.7611  1.1650
   87MOL    H2927721   4.056   6.400   2.210  0.3380  1.1579  0.9011
   87MOL    H3027722   4.284   6.353   2.311 -2.3719 -2.1571  0.5749
   87MOL    H3127723   4.467   6.273   2.157  1.2795  0.8296 -2.2401
   87MOL    H3227724   4.333   6.013   1.891  0.4921  0.4699 -1.6711
   87MOL    H3327725   4.466   6.000   2.004 -0.7160 -1.5316  0.5321
   87MOL    C3427726   4.501   5.941   1.788  0.0022 -0.0266 -0.3471
   87MOL    C3527727   4.443   5.989   1.650  0.4195 -0.0692 -0.3610
   87MOL    C3627728   4.520   6.065   1.557 -0.5937  0.5639  0.8294
   87MOL   Cl3727729   4.673   6.145   1.598  0.0075  0.0876 -0.2872
   87MOL    C3827730   4.467   6.105   1.429  0.8203  0.4583 -0.1477
   87MOL    C3927731   4.335   6.054   1.401  0.0829  0.1760  0.0977
   87MOL    C4027732   4.262   5.960   1.485  0.7179 -0.9768 -1.2017
   87MOL    C4127733   4.312   5.946   1.615 -0.2965  0.3036  0.2777
   87MOL    C4227734   4.466   5.790   1.799 -0.0446  0.0307 -0.0354
   87MOL    H4327735   4.610   5.943   1.780  0.1663 -4.5948 -0.5248
   87MOL    H4427736   4.521   6.171   1.362  1.9759 -0.4996 -0.1789
   87MOL    H4527737   4.286   6.088   1.311  0.1905 -1.8413 -0.7596
   87MOL    H4627738   4.166   5.927   1.450 -0.0474  0.7125 -0.7303
   87MOL    H4727739   4.241   5.893   1.678 -0.2305  0.9273  0.8911
   87MOL    H4827740   4.497   5.748   1.704 -1.2848  2.5744 -1.6327
   87MOL    H4927741   4.360   5.771   1.812 -0.4666  0.7401 -2.2165
   87MOL    C5027742   4.541   5.722   1.918  0.3037 -0.2971 -0.0030
   87MOL    C5127743   4.691   5.715   1.907 -0.7076  0.0742 -0.4341
   87MOL    C5227744   4.775   5.793   1.997  0.3211 -0.5814  0.1150
   87MOL   Cl5327745   4.711   5.911   2.111  0.0552 -0.3124  0.2353
   87MOL    C5427746   4.913   5.770   1.994  0.1007 -0.1452 -0.5607
   87MOL    C5527747   4.974   5.687   1.900 -0.2781  1.2454  0.5311
   87MOL    C5627748   4.891   5.611   1.816 -0.2471 -0.7083  0.1835
   87MOL    C5727749   4.751   5.625   1.817  0.7497  0.4012 -0.1984
   87MOL    C5827750   4.471   5.604   1.992 -0.4243  0.1137  0.2642
   87MOL    H5927751   4.526   5.800   1.993  0.9795 -1.4655  1.3574
   87MOL    H6027752   4.974   5.821   2.067  0.5351 -0.9025 -0.3950
   87MOL    H6127753   5.081   5.671   1.906 -0.3168  0.4579 -0.6210
   87MOL    H6227754   4.934   5.544   1.743  2.3624  0.8141  0.2873
   87MOL    H6327755   4.683   5.561   1.762  0.5080 -0.0324  0.5868
   87MOL    H6427756   4.532   5.583   2.080 -1.3791  2.7735  1.6208
   87MOL    H6527757   4.474   5.519   1.923 -0.9784  0.6541 -0.4427
   87MOL    C6627758   4.330   5.635   2.049  0.3231 -0.2187 -0.4635
   87MOL    C6727759   4.326   5.757   2.141 -0.2603  0.2759 -0.0189
   87MOL    C6827760   4.235   5.867   2.133 -0.2303  0.1172 -0.0945
   87MOL   Cl6927761   4.101   5.859   2.021  0.1421 -0.4380 -0.1634
   87MOL    C7027762   4.250   5.980   2.220 -0.0021 -0.3092 -0.3670
   87MOL    C7127763   4.355   5.990   2.316  0.5752  0.3288  0.3116
   87MOL    C7227764   4.441   5.884   2.321  0.6032  0.7942  0.0187
   87MOL    C7327765   4.421   5.773   2.241  0.1238  0.5602  0.4755
   87MOL    C7427766   4.271   5.512   2.121  0.0637  0.6229 -0.1697
   87MOL    H7527767   4.250   5.642   1.976  0.2359 -2.7916 -0.6634
   87MOL    H7627768   4.186   6.066   2.207  0.8237  0.4298  0.3652
   87MOL    H7727769   4.361   6.069   2.389  0.0240 -1.5695  2.4754
   87MOL    H7827770   4.528   5.881   2.385  2.2270  1.5245 -2.0806
   87MOL    H7927771   4.493   5.692   2.246 -1.5123 -0.8146  3.9235
   87MOL    H8027772   4.343   5.470   2.191 -0.6387 -0.6253 -0.1783
   87MOL    H8127773   4.247   5.437   2.045  2.2933  0.3627 -0.6677
   87MOL    C8227774   4.142   5.528   2.205  0.7583  0.0347  0.0836
   87MOL    C8327775   4.163   5.565   2.354 -0.4107 -0.3636 -1.0140
   87MOL    C8427776   4.102   5.677   2.417  0.0941 -0.1114 -0.5218
   87MOL   Cl8527777   3.977   5.768   2.339 -0.2814 -0.1069 -0.1448
   87MOL    C8627778   4.126   5.709   2.553  0.1679 -0.1255  0.7155
   87MOL    C8727779   4.197   5.622   2.627 -0.0559  1.0445  0.3793
   87MOL    C8827780   4.249   5.502   2.568  0.2143 -0.1708 -0.5155
   87MOL    C8927781   4.235   5.477   2.438 -0.3900 -0.1605 -0.1897
   87MOL    C9027782   4.060   5.393   2.199  0.1970 -0.1487 -0.1971
   87MOL    H9127783   4.079   5.608   2.165  0.8854  0.5453  0.9035
   87MOL    H9227784   4.075   5.790   2.603  1.2793 -0.0210  1.6774
   87MOL    H9327785   4.230   5.642   2.729  4.0733  0.2182 -0.6927
   87MOL    H9427786   4.316   5.441   2.627  2.1108  0.4067 -2.0315
   87MOL    H9527787   4.265   5.381   2.397  1.4443  0.6952 -0.8953
   87MOL    H9627788   4.005   5.390   2.293  0.6894  0.8593  0.1289
   87MOL    H9727789   4.132   5.311   2.205 -1.0870 -1.2099  0.9725
   87MOL    C9827790   3.978   5.369   2.071  0.9576 -0.1024 -0.4557
   87MOL    C9927791   3.893   5.485   2.028 -0.3781  0.1337  0.2131
   87MOL   C10027792   3.890   5.534   1.895  0.4657  0.5650 -0.0563
   87MOL  Cl10127793   3.996   5.464   1.772  0.3415 -0.2167  0.2969
   87MOL   C10227794   3.789   5.630   1.857  0.5331 -0.0021  0.3765
   87MOL   C10327795   3.702   5.681   1.955 -0.1210 -0.0749 -0.2111
   87MOL   C10427796   3.709   5.638   2.089 -0.4245  0.1295  0.3456
   87MOL   C10527797   3.799   5.533   2.123  0.1377 -0.0328 -0.3801
   87MOL   C10627798   3.898   5.234   2.070  0.0988  0.0988  0.3028
   87MOL   H10727799   4.051   5.352   1.992  0.4546  0.4778 -1.0489
   87MOL   H10827800   3.795   5.660   1.754  0.4958  0.0059  0.3765
   87MOL   H10927801   3.638   5.763   1.928  0.6904 -0.5274 -3.7732
   87MOL   H11027802   3.654   5.691   2.166  0.4686  0.3445  0.8449
   87MOL   H11127803   3.791   5.485   2.220 -0.4128 -2.9487 -1.8276
   87MOL   H11227804   3.840   5.229   1.978 -0.2511 -2.7096  0.6299
   87MOL   H11327805   3.821   5.246   2.147 -0.7224  0.4356 -0.5566
   87MOL   C11427806   3.981   5.106   2.086  0.0783 -0.4853  0.7675
   87MOL   C11527807   4.097   5.096   1.977 -0.2219 -1.3064 -0.2846
   87MOL   C11627808   4.233   5.093   2.014  0.4662  0.5109 -0.6015
   87MOL  Cl11727809   4.295   5.104   2.177  0.0578  0.1194  0.3648
   87MOL   C11827810   4.331   5.086   1.918 -0.0610  0.8428  0.0162
   87MOL   C11927811   4.296   5.079   1.783 -0.4282  0.8341 -0.7056
   87MOL   C12027812   4.166   5.078   1.747  0.2011  0.4327 -0.6566
   87MOL   C12127813   4.069   5.077   1.844  0.1914 -0.1380 -0.5501
   87MOL   C12227814   3.886   4.985   2.089  0.6212  0.2278  0.5048
   87MOL   H12327815   4.026   5.110   2.185  0.7611  0.5619  0.4248
   87MOL   H12427816   4.432   5.074   1.953 -0.3708 -1.8445  0.1319
   87MOL   H12527817   4.374   5.077   1.707  2.3694  1.6581  2.0174
   87MOL   H12627818   4.136   5.080   1.643 -0.6673 -0.1328 -0.4204
   87MOL   H12727819   3.969   5.087   1.803  0.4149 -0.3311 -1.1410
   87MOL   H12827820   3.823   4.985   2.000 -1.7357  0.1123  2.1428
   87MOL   H12927821   3.828   4.995   2.181 -0.4211 -0.2447 -0.0895
   87MOL   C13027822   3.952   4.847   2.099  0.0226  0.1050  0.4057
   87MOL   C13127823   3.842   4.738   2.094 -0.0009  0.6214 -0.2087
   87MOL   C13227824   3.800   4.678   1.968 -0.3579 -0.1420 -0.5627
   87MOL  Cl13327825   3.889   4.723   1.832 -0.4376  0.2361 -0.1621
   87MOL   C13427826   3.690   4.593   1.963  0.4439 -0.0944 -0.6745
   87MOL   C13527827   3.625   4.549   2.077 -0.1005  0.5129  0.4134
   87MOL   C13627828   3.668   4.600   2.201  0.9855 -0.9749  0.7399
   87MOL   C13727829   3.773   4.696   2.212 -0.3879  0.5207  0.0850
   87MOL   C13827830   4.049   4.836   2.217 -0.2429 -0.2663 -0.3862
   87MOL   H13927831   4.012   4.846   2.008  0.7538  0.7637  0.8670
   87MOL   H14027832   3.647   4.550   1.873 -2.0464  1.9312 -0.4839
   87MOL   H14127833   3.530   4.498   2.069 -0.4964  1.1458  1.0730
   87MOL   H14227834   3.611   4.570   2.288 -0.3889  0.0978  0.2232
   87MOL   H14327835   3.807   4.733   2.307 -2.0117 -1.0288  1.3151
   87MOL   H14427836   3.992   4.836   2.310 -0.0654  1.5288 -0.2765
   87MOL   H14527837   4.112   4.925   2.221  0.5101 -0.8412  1.0523
   87MOL   C14627838   4.128   4.707   2.219 -0.3544 -0.0631  0.5145
   87MOL   C14727839   4.168   4.668   2.363 -0.3743 -0.7721  0.8423
   87MOL   C14827840   4.089   4.577   2.435  0.7665 -0.4712  0.0124
   87MOL  Cl14927841   3.965   4.486   2.357 -0.0040 -0.0851  0.0517
   87MOL   C15027842   4.115   4.552   2.572  0.3095  0.3763 -0.5137
   87MOL   C15127843   4.221   4.613   2.636  0.1046  1.0244 -0.2677
   87MOL   C15227844   4.309   4.695   2.572  0.1626 -0.2996  0.2580
   87MOL   C15327845   4.281   4.726   2.436  0.1477  0.5313 -0.0917
   87MOL   C15427846   4.259   4.707   2.127  0.0079 -0.1859 -0.0347
   87MOL   H15527847   4.068   4.626   2.176  0.6878 -0.3871 -0.3584
   87MOL   H15627848   4.050   4.482   2.624  2.8358 -1.5520  0.1331
   87MOL   H15727849   4.246   4.593   2.739  3.4838  0.4363 -1.1286
   87MOL   H15827850   4.391   4.743   2.624 -0.5855 -1.7360  2.8117
   87MOL   H15927851   4.354   4.788   2.387 -0.5363 -0.2787 -2.2215
   87MOL   H16027852   4.339   4.766   2.169 -0.9675  0.0606  1.5174
   87MOL   H16127853   4.235   4.768   2.040 -1.0531 -1.2799 -0.5238
   87MOL   C16227854   4.304   4.578   2.059 -0.1138 -0.5368  0.4779
   87MOL   C16327855   4.200   4.524   1.962  0.6490 -0.7086  0.2827
   87MOL   C16427856   4.206   4.556   1.823  0.5537 -0.0651  0.3538
   87MOL  Cl16527857   4.310   4.681   1.766 -0.4210 -0.0392  0.1367
   87MOL   C16627858   4.123   4.493   1.732  0.3265  0.4727  0.4191
   87MOL   C16727859   4.019   4.405   1.774  0.3156  0.4175 -0.4099
   87MOL   C16827860   4.006   4.380   1.909  0.0417 -0.6966 -0.0345
   87MOL   C16927861   4.098   4.436   2.001  0.2568 -0.0404 -0.0597
   87MOL   C17027862   4.363   4.484   2.161 -0.0303  0.2046 -0.7544
   87MOL   H17127863   4.392   4.599   1.998 -1.0154 -1.6265 -1.2387
   87MOL   H17227864   4.127   4.531   1.631 -2.1084 -0.2066  0.0254
   87MOL   H17327865   3.943   4.381   1.702 -0.4860  1.1577  0.1772
   87MOL   H17427866   3.924   4.320   1.945  0.7184 -0.6729  1.6165
   87MOL   H17527867   4.091   4.414   2.107 -0.0600 -0.2683 -0.1253
   87MOL   H17627868   4.371   4.386   2.113 -0.1956  0.0543 -0.4796
   87MOL   H17727869   4.279   4.461   2.227  0.3891  0.1690 -0.2389
   87MOL   C17827870   4.501   4.517   2.222 -0.0451  0.2020 -0.9092
   87MOL   C17927871   4.611   4.534   2.122 -0.1552 -1.1652 -0.2863
   87MOL   C18027872   4.679   4.657   2.117 -0.2516  0.0401  0.4125
   87MOL  Cl18127873   4.645   4.797   2.212  0.0636 -0.0066 -0.3676
   87MOL   C18227874   4.773   4.669   2.013  0.1054  0.0675  0.5104
   87MOL   C18327875   4.800   4.561   1.921 -0.0887 -0.1457  0.1761
   87MOL   C18427876   4.724   4.448   1.923  0.2075  0.2830  0.8429
   87MOL   C18527877   4.633   4.431   2.026  0.0457 -0.2469  0.1993
   87MOL   C18627878   4.523   4.408   2.332  0.2991 -0.2678 -0.0162
   87MOL   H18727879   4.480   4.613   2.270 -0.1258 -0.7274  0.9420
   87MOL   H18827880   4.823   4.765   2.005  1.5724 -0.7548 -0.4711
   87MOL   H18927881   4.883   4.571   1.851  1.2042  0.0349  1.7060
   87MOL   H19027882   4.745   4.371   1.850  1.5452  1.5826 -0.1685
   87MOL   H19127883   4.594   4.331   2.035 -0.7804  0.1450  1.0732
   87MOL   H19227884   4.494   4.309   2.298  1.6626 -1.2273  1.5947
   87MOL   H19327885   4.453   4.424   2.415  1.8480  0.7014  1.1278
   87MOL   C19427886   4.669   4.402   2.387 -0.3373  0.0562 -0.9192
   87MOL   C19527887   4.689   4.272   2.462  0.5021  0.6140 -0.4552
   87MOL   C19627888   4.803   4.195   2.450  0.2999  0.1484 -0.1132
   87MOL  Cl19727889   4.936   4.250   2.361  0.2650 -0.0599 -0.1241
   87MOL   C19827890   4.824   4.081   2.531  0.0974 -0.0874  0.3279
   87MOL   C19927891   4.733   4.048   2.628  0.6216  1.0095 -0.5090
   87MOL   C20027892   4.616   4.120   2.633  0.5738 -0.3006 -0.1051
   87MOL   C20127893   4.588   4.227   2.551 -0.0359  0.3380 -0.0877
   87MOL   C20227894   4.710   4.528   2.468  0.6792 -0.2430  0.2746
   87MOL   H20327895   4.731   4.399   2.297 -1.1757 -1.7002 -1.4580
   87MOL   H20427896   4.904   4.010   2.521  1.0074  0.7391  1.5262
   87MOL   H20527897   4.738   3.952   2.679  1.6278  1.4781  0.2972
   87MOL   H20627898   4.533   4.090   2.694  1.1141 -2.1939 -0.2602
   87MOL   H20727899   4.495   4.279   2.565 -0.0718  0.2382  0.0452
   87MOL   H20827900   4.668   4.514   2.567 -0.0025  2.8692  0.4783
   87MOL   H20927901   4.665   4.615   2.420 -1.7304 -2.1672 -1.0592
   87MOL   C21027902   4.854   4.559   2.509  0.3062  0.7642 -0.4278
   87MOL   C21127903   4.865   4.660   2.627  0.4110 -0.4147  0.5074
   87MOL   C21227904   4.934   4.631   2.745 -0.4287 -0.2637  0.3376
   87MOL  Cl21327905   5.022   4.487   2.768 -0.4569  0.1913  0.2387
   87MOL   C21427906   4.934   4.730   2.844 -0.8144  0.5058  0.2275
   87MOL   C21527907   4.875   4.856   2.827  0.5892 -0.0698 -0.5196
   87MOL   C21627908   4.792   4.876   2.709 -0.2349  0.9293 -0.8255
   87MOL   C21727909   4.797   4.780   2.602  0.2048 -0.3279 -0.9416
   87MOL   C21827910   4.919   4.609   2.380 -0.3440 -0.4686 -0.5153
   87MOL   H21927911   4.894   4.462   2.541 -0.8938  0.0815 -0.9809
   87MOL   H22027912   4.993   4.720   2.934  0.2135  0.8361 -0.4051
   87MOL   H22127913   4.883   4.937   2.898 -1.3348  0.2624 -0.6572
   87MOL   H22227914   4.752   4.971   2.680  0.7315  1.9209  1.0348
   87MOL   H22327915   4.749   4.808   2.510  0.9558  1.3764 -0.8283
   87MOL   H22427916   4.863   4.697   2.345 -1.7782 -0.9010  0.6404
   87MOL   H22527917   4.928   4.539   2.297  0.0253 -0.5965 -0.3681
   87MOL   C22627918   5.065   4.649   2.392 -0.2915 -0.5152 -0.6318
   87MOL   C22727919   5.114   4.713   2.258  0.7910 -1.0256  0.0469
   87MOL   C22827920   5.110   4.851   2.245 -0.2660  0.5049  0.4285
   87MOL  Cl22927921   5.072   4.959   2.371  0.0310  0.2856  0.0833
   87MOL   C23027922   5.156   4.905   2.122 -0.2674  0.2608  0.2856
   87MOL   C23127923   5.196   4.828   2.011  0.0769  0.6565 -1.1002
   87MOL   C23227924   5.192   4.690   2.027 -0.5058 -0.3817 -0.7492
   87MOL   C23327925   5.146   4.633   2.146  0.6481 -0.0627  0.7394
   87MOL   C23427926   5.147   4.529   2.434  0.8590 -0.2761  0.4270
   87MOL   H23527927   5.066   4.725   2.470 -1.8467 -1.6796  0.5569
   87MOL   H23627928   5.160   5.013   2.123 -2.0757  0.3571 -0.9404
   87MOL   H23727929   5.255   4.877   1.935 -1.6825  2.0300 -1.6206
   87MOL   H23827930   5.229   4.628   1.947 -0.6456  0.3366 -1.3794
   87MOL   H23927931   5.131   4.528   2.168  1.0179 -0.1817  0.4356
   87MOL   H24027932   5.125   4.455   2.357 -1.1448  1.5864 -0.8376
   87MOL   H24127933   5.111   4.485   2.527  1.8790  0.8071  1.3488
   87MOL   C24227934   5.298   4.556   2.441  0.2309 -0.3665  0.5006
   87MOL   C24327935   5.371   4.422   2.456  0.0943  0.2456 -0.2526
   87MOL   C24427936   5.465   4.384   2.356  0.0981  0.0187  0.2790
   87MOL  Cl24527937   5.500   4.480   2.209 -0.2272 -0.1194  0.1467
   87MOL   C24627938   5.534   4.266   2.368 -0.6617  0.2213  0.2376
   87MOL   C24727939   5.497   4.184   2.476  0.1733 -0.0776 -0.3711
   87MOL   C24827940   5.399   4.219   2.567 -0.9850  0.1614 -0.4093
   87MOL   C24927941   5.336   4.344   2.562 -0.0818  0.6856  0.2753
   87MOL   C25027942   5.321   4.666   2.555  0.1621  0.9502  0.2640
   87MOL   H25127943   5.326   4.607   2.349  1.8120  0.9398  1.6841
   87MOL   H25227944   5.615   4.247   2.299 -1.5659  0.3778 -0.8733
   87MOL   H25327945   5.546   4.091   2.502 -2.0184 -0.9413  0.7659
   87MOL   H25427946   5.371   4.152   2.647  0.4064 -0.2774 -0.2792
   87MOL   H25527947   5.267   4.370   2.641  0.1812 -2.4074  1.5678
   87MOL   H25627948   5.245   4.648   2.631  1.4552 -2.3104  0.9022
   87MOL   H25727949   5.297   4.762   2.509 -2.8606  0.6985  1.1950
   87MOL   C25827950   5.457   4.684   2.615 -0.3642  0.0026 -0.6387
   87MOL   C25927951   5.461   4.788   2.735 -0.9954 -0.0838 -0.3200
   87MOL   C26027952   5.445   4.734   2.869  0.8284  0.1755 -0.0206
   87MOL  Cl26127953   5.426   4.561   2.902  0.2466  0.0693  0.2764
   87MOL   C26227954   5.436   4.824   2.983 -0.4448  0.0862 -0.0102
   87MOL   C26327955   5.439   4.962   2.961  0.6277 -0.0239  0.1357
   87MOL   C26427956   5.457   5.018   2.837 -0.1228 -0.1971  0.1827
   87MOL   C26527957   5.469   4.928   2.723  0.0603 -0.1253  0.8109
   87MOL   C26627958   5.563   4.727   2.509 -0.1306 -0.2264 -0.5604
   87MOL   H26727959   5.476   4.581   2.645  1.4512  0.2595 -0.8692
   87MOL   H26827960   5.426   4.787   3.084 -1.4031  1.2483  0.3295
   87MOL   H26927961   5.420   5.019   3.050  1.4609  0.5808 -0.0696
   87MOL   H27027962   5.466   5.125   2.825  2.0213 -0.0101  2.8493
   87MOL   H27127963   5.475   4.969   2.623 -1.7835  0.0522  0.7588
   87MOL   H27227964   5.580   4.834   2.500  0.8462 -0.5765 -3.5499
   87MOL   H27327965   5.518   4.698   2.414  0.5659 -1.8296 -0.4156
   87MOL   C27427966   5.706   4.668   2.518 -0.2930 -0.1955 -0.2601
   87MOL   C27527967   5.763   4.690   2.663  0.8431 -0.4533 -0.5289
   87MOL   C27627968   5.775   4.583   2.747  0.2715  0.0649 -0.6143
   87MOL  Cl27727969   5.749   4.423   2.697  0.3660 -0.0580 -0.4323
   87MOL   C27827970   5.803   4.613   2.885  0.9173 -0.2214 -0.0021
   87MOL   C27927971   5.832   4.742   2.930  0.0176 -0.1724  0.2183
   87MOL   C28027972   5.836   4.850   2.843  0.0209 -0.1115  0.0259
   87MOL   C28127973   5.797   4.822   2.706  0.4688 -0.6706  0.3784
   87MOL   C28227974   5.799   4.721   2.398 -0.6208  0.3678  0.2092
   87MOL   H28327975   5.682   4.565   2.493  1.7066 -0.5907 -0.6556
   87MOL   H28427976   5.831   4.535   2.954 -2.8314 -1.1527  0.5418
   87MOL   H28527977   5.856   4.746   3.035 -1.6950 -3.4650  0.8084
   87MOL   H28627978   5.878   4.946   2.868 -0.1117 -0.7551  2.8391
   87MOL   H28727979   5.814   4.897   2.631 -0.3876  0.7254  1.5493
   87MOL   H28827980   5.813   4.824   2.429 -0.6557  0.9644 -1.6657
   87MOL   H28927981   5.748   4.726   2.302 -0.4217  1.6310  0.1671
   87MOL   C29027982   5.936   4.661   2.374 -0.6641 -0.6143 -0.1879
   87MOL   C29127983   6.018   4.747   2.273  0.7871  0.5663 -0.7052
   87MOL   C29227984   6.139   4.802   2.313  0.1418  0.3008  0.2556
   87MOL  Cl29327985   6.210   4.783   2.463 -0.0724  0.4103 -0.3952
   87MOL   C29427986   6.217   4.876   2.226 -0.2905  0.1590  1.0421
   87MOL   C29527987   6.175   4.899   2.094  0.8997  0.5191  0.4753
   87MOL   C29627988   6.059   4.833   2.049 -0.5221  0.4281 -0.5468
   87MOL   C29727989   5.979   4.758   2.136 -0.1892  0.6125 -0.0496
   87MOL   C29827990   5.918   4.514   2.335  0.0320  0.1965  0.0546
   87MOL   H29927991   5.991   4.658   2.468  0.8845 -0.2234 -1.0692
   87MOL   H30027992   6.308   4.922   2.262 -0.1038  2.8104 -2.4772
   87MOL   H30127993   6.229   4.966   2.029  1.8436 -0.2985  0.4028
   87MOL   H30227994   6.041   4.851   1.944 -2.8566  3.7331  0.3672
   87MOL   H30327995   5.889   4.710   2.102 -1.3002  0.2713  3.1547
   87MOL   H30427996   5.852   4.503   2.249  0.4873 -1.2125 -0.1279
   87MOL   H30527997   5.849   4.476   2.411 -0.4332  1.5766  0.3319
   87MOL   C30627998   6.045   4.419   2.334  0.6820  0.0966 -0.1970
   87MOL   C30727999   6.004   4.293   2.261 -0.1908 -0.7760 -0.6841
   87MOL   C30828000   6.069   4.250   2.145 -0.6391 -0.6076  0.6526
   87MOL  Cl30928001   6.211   4.338   2.094 -0.1935 -0.0633 -0.0649
   87MOL   C31028002   6.030   4.134   2.073 -0.2795 -0.0300  0.0454
   87MOL   C31128003   5.930   4.050   2.118 -0.1715  1.0515 -0.4418
   87MOL   C31228004   5.876   4.080   2.249  0.1013 -0.3706 -0.8448
   87MOL   C31328005   5.906   4.204   2.312 -0.2207 -0.4700 -0.5554
   87MOL   C31428006   6.090   4.385   2.472  0.2678  0.7137  0.5856
   87MOL   H31528007   6.128   4.472   2.287 -1.0609  1.2627 -1.9802
   87MOL   H31628008   6.086   4.101   1.987  2.2093  3.4564  0.1786
   87MOL   H31728009   5.923   3.954   2.069  3.4586  0.1778  0.6256
   87MOL   H31828010   5.794   4.019   2.285  0.1745  0.8274  1.4349
   87MOL   H31928011   5.848   4.234   2.399 -0.3792 -0.3433 -0.7049
   87MOL   H32028012   6.014   4.324   2.521  0.8187 -1.2612 -0.9579
   87MOL   H32128013   6.108   4.481   2.522  2.6222 -0.0417  1.2946
   87MOL   H32228014   6.182   4.326   2.473 -1.0226 -1.3229  1.1860
   88MOL     C128015   2.440   3.840   2.927  0.0212  0.3766 -0.3576
   88MOL     C228016   2.452   3.940   2.814 -0.0953  0.3861 -0.5540
   88MOL     C328017   2.386   3.936   2.692 -0.2403 -0.0638  0.1741
   88MOL    Cl428018   2.279   3.807   2.638  0.0368 -0.0063  0.0301
   88MOL     C528019   2.408   4.035   2.598 -0.4726  0.5054  0.1800
   88MOL     C628020   2.497   4.141   2.615  0.1594  0.8092  0.0117
   88MOL     C728021   2.559   4.152   2.741  0.5257 -0.1486 -0.1840
   88MOL     C828022   2.528   4.056   2.838  0.1249 -0.9160  0.0027
   88MOL     C928023   2.292   3.846   2.992  0.3291  0.0076 -0.3963
   88MOL    H1028024   2.476   3.743   2.894  1.2349  0.4743  0.6894
   88MOL    H1128025   2.383   4.012   2.496 -0.9787 -2.6781  0.9602
   88MOL    H1228026   2.532   4.207   2.537  3.5154  0.0257  0.7302
   88MOL    H1328027   2.628   4.232   2.762  0.8821 -0.9403  1.7170
   88MOL    H1428028   2.577   4.074   2.933  1.0405 -0.7987 -0.4788
   88MOL    H1528029   2.214   3.826   2.919 -0.7506  0.6865  0.5447
   88MOL    H1628030   2.267   3.949   3.019 -0.3789 -0.3321  0.2457
   88MOL    H1728031   2.513   3.861   3.005  0.1992 -1.4028 -0.0236
   88MOL    C1828032   2.271   3.755   3.115 -0.3317 -0.1313  1.0779
   88MOL    C1928033   2.329   3.613   3.088 -0.0600  0.0017  0.0116
   88MOL    C2028034   2.452   3.564   3.128 -0.1159 -0.4105 -0.1706
   88MOL   Cl2128035   2.551   3.648   3.244  0.1133 -0.3244  0.2824
   88MOL    C2228036   2.491   3.431   3.096 -0.0896  0.5848  0.4637
   88MOL    C2328037   2.406   3.343   3.029 -0.4317 -0.2432 -0.0034
   88MOL    C2428038   2.277   3.394   2.986  0.7348 -0.5932  0.2450
   88MOL    C2528039   2.240   3.524   3.011  0.2928 -0.5610  0.3137
   88MOL    C2628040   2.118   3.761   3.159  0.3291  0.6920 -0.3454
   88MOL    H2728041   2.329   3.806   3.192  1.8027  0.1913 -0.6911
   88MOL    H2828042   2.580   3.390   3.143  0.5532  1.2090 -0.1863
   88MOL    H2928043   2.447   3.246   3.007 -0.8101 -0.3428 -0.2739
   88MOL    H3028044   2.210   3.333   2.927  1.2359  0.8187 -1.8293
   88MOL    H3128045   2.146   3.557   2.971 -0.5090  0.3718  2.8804
   88MOL    H3228046   2.047   3.731   3.082 -0.4076 -2.0946  1.3489
   88MOL    H3328047   2.091   3.865   3.172 -0.5765  0.4360 -0.0992
   88MOL    C3428048   2.080   3.672   3.282 -0.3509 -0.0214  0.1133
   88MOL    C3528049   1.928   3.646   3.283 -0.3859  0.3777  0.2161
   88MOL    C3628050   1.864   3.515   3.280  0.0553  0.4828  0.9681
   88MOL   Cl3728051   1.962   3.371   3.281 -0.3034  0.1505 -0.0270
   88MOL    C3828052   1.723   3.506   3.259  0.5061 -0.4065 -0.8488
   88MOL    C3928053   1.644   3.625   3.257  0.5842  0.1540 -0.6299
   88MOL    C4028054   1.706   3.751   3.271 -0.1574  0.3832  0.0524
   88MOL    C4128055   1.845   3.761   3.271  0.3786 -0.0293  0.6100
   88MOL    C4228056   2.133   3.738   3.414  0.2475 -0.6426 -0.8062
   88MOL    H4328057   2.127   3.574   3.275 -0.5649 -0.3970  3.0921
   88MOL    H4428058   1.683   3.407   3.272 -0.1837 -0.3327 -2.3507
   88MOL    H4528059   1.537   3.610   3.248  0.5824 -0.0086 -0.3276
   88MOL    H4628060   1.646   3.838   3.294 -0.2388  0.1507  0.7427
   88MOL    H4728061   1.881   3.863   3.277 -1.0179  0.3705  2.8261
   88MOL    H4828062   2.046   3.778   3.466  0.7535 -0.0801 -0.3761
   88MOL    H4928063   2.176   3.835   3.389  0.6148 -1.1713 -2.2822
   88MOL    C5028064   2.239   3.665   3.495 -0.2578  0.6851 -0.3177
   88MOL    C5128065   2.201   3.521   3.540 -0.0574  0.3318  0.3557
   88MOL    C5228066   2.297   3.419   3.546  0.6206  0.1911  0.0991
   88MOL   Cl5328067   2.468   3.469   3.527  0.3485  0.1900 -0.0735
   88MOL    C5428068   2.262   3.291   3.579 -0.0744  1.2673  0.8982
   88MOL    C5528069   2.134   3.259   3.615  0.7437 -0.6834 -0.3007
   88MOL    C5628070   2.041   3.363   3.613  0.4211  0.6340  0.0895
   88MOL    C5728071   2.070   3.489   3.572  0.0004  0.8409  0.1877
   88MOL    C5828072   2.289   3.747   3.615  0.2632 -0.2128  0.1443
   88MOL    H5928073   2.320   3.651   3.424 -1.7015 -0.7808 -1.6840
   88MOL    H6028074   2.342   3.218   3.593 -0.3305  0.6694 -0.6882
   88MOL    H6128075   2.103   3.163   3.652  0.9921 -0.4146  0.6266
   88MOL    H6228076   1.938   3.348   3.642  0.3221  2.5346  0.7531
   88MOL    H6328077   1.993   3.564   3.563 -2.3666 -1.6456 -1.0983
   88MOL    H6428078   2.314   3.847   3.578 -1.1115  0.8086  1.8761
   88MOL    H6528079   2.388   3.706   3.634  0.9072  2.0452  1.8388
   88MOL    C6628080   2.207   3.758   3.746  0.3435  0.2991 -0.4011
   88MOL    C6728081   2.097   3.867   3.737  0.3841 -0.1172  0.2588
   88MOL    C6828082   1.962   3.837   3.764  0.3631 -0.5752  0.0546
   88MOL   Cl6928083   1.915   3.690   3.818 -0.1257  0.3369 -0.0172
   88MOL    C7028084   1.862   3.937   3.739 -0.0651 -0.6040 -0.2994
   88MOL    C7128085   1.895   4.068   3.698 -0.0699  0.3789  0.1611
   88MOL    C7228086   2.036   4.093   3.685  0.0805 -0.3277  0.1176
   88MOL    C7328087   2.135   3.995   3.705 -0.1023 -0.0830  0.4249
   88MOL    C7428088   2.287   3.786   3.867 -0.0445 -0.1644  0.1147
   88MOL    H7528089   2.156   3.663   3.764 -0.9296  1.0089 -0.1806
   88MOL    H7628090   1.767   3.917   3.787  0.8241  1.0045  2.2467
   88MOL    H7728091   1.823   4.148   3.700 -0.1350  0.3056  0.9400
   88MOL    H7828092   2.074   4.190   3.656 -0.2389 -0.8004 -1.9835
   88MOL    H7928093   2.241   4.014   3.708  0.1669 -1.6337  0.8347
   88MOL    H8028094   2.229   3.848   3.936 -0.0083 -0.2247  0.2001
   88MOL    H8128095   2.379   3.842   3.849  1.7229 -2.0761  2.6983
   88MOL    C8228096   2.349   3.659   3.940  0.0644 -0.0292 -0.5414
   88MOL    C8328097   2.229   3.579   3.986  0.0865  0.2021  0.4928
   88MOL    C8428098   2.237   3.439   3.972  0.8641 -0.3681  0.5129
   88MOL   Cl8528099   2.369   3.357   3.893 -0.0024  0.0018 -0.1805
   88MOL    C8628100   2.136   3.354   4.020 -0.2411 -0.6254  0.9171
   88MOL    C8728101   2.025   3.409   4.091  0.2527 -0.2876 -0.1961
   88MOL    C8828102   2.011   3.543   4.110 -0.6660 -0.2703  0.3019
   88MOL    C8928103   2.116   3.628   4.062 -0.7198 -0.6622 -0.8187
   88MOL    C9028104   2.440   3.701   4.051  0.1925 -0.6034  0.4734
   88MOL    H9128105   2.402   3.612   3.858 -1.8081  0.2538 -1.9543
   88MOL    H9228106   2.152   3.250   4.000  2.0598 -0.2115  0.4474
   88MOL    H9328107   1.945   3.347   4.128 -0.2218  0.2176 -0.3830
   88MOL    H9428108   1.925   3.579   4.164 -1.4421  0.6877 -1.5378
   88MOL    H9528109   2.117   3.734   4.083 -0.3391 -0.5100 -1.5943
   88MOL    H9628110   2.478   3.617   4.108  0.7959 -1.5544 -1.2784
   88MOL    H9728111   2.386   3.768   4.117 -2.1738 -1.6230 -0.3764
   88MOL    C9828112   2.576   3.762   4.013  0.5403 -0.0644 -0.9322
   88MOL    C9928113   2.648   3.653   3.935  0.1894  0.5244  0.1024
   88MOL   C10028114   2.679   3.666   3.795  0.1525  0.4504  0.4031
   88MOL  Cl10128115   2.625   3.809   3.708  0.3944 -0.2305 -0.1158
   88MOL   C10228116   2.748   3.567   3.723  0.0889  0.1795  0.2709
   88MOL   C10328117   2.790   3.450   3.791 -0.4381  0.1822 -0.6486
   88MOL   C10428118   2.761   3.436   3.932  0.2393  0.2159 -0.4220
   88MOL   C10528119   2.692   3.537   4.001 -0.5348 -0.6004  0.3587
   88MOL   C10628120   2.654   3.815   4.129  0.2539 -0.3329 -0.1451
   88MOL   H10728121   2.566   3.850   3.950  0.5503  0.4316 -0.2406
   88MOL   H10828122   2.765   3.580   3.617  0.6583  0.7244  0.4270
   88MOL   H10928123   2.845   3.371   3.744  0.8680 -1.5236  3.4711
   88MOL   H11028124   2.795   3.349   3.986  1.0146  0.9359  0.2538
   88MOL   H11128125   2.676   3.520   4.107  1.9605 -0.4450  0.7707
   88MOL   H11228126   2.755   3.835   4.094  0.2251 -2.5426 -1.5710
   88MOL   H11328127   2.656   3.735   4.203  1.6730  0.2420  0.4444
   88MOL   C11428128   2.604   3.954   4.187 -0.2761  0.6237  1.2695
   88MOL   C11528129   2.629   4.071   4.104  0.1597 -0.8689 -0.0269
   88MOL   C11628130   2.529   4.143   4.037 -0.2125 -0.5128  0.8075
   88MOL  Cl11728131   2.366   4.076   4.028  0.4739  0.4997  0.5475
   88MOL   C11828132   2.545   4.266   3.971 -0.0947 -0.2796  0.3676
   88MOL   C11928133   2.675   4.326   3.972 -0.5732  0.4017  0.1245
   88MOL   C12028134   2.777   4.264   4.050 -0.5094  0.2725  0.6995
   88MOL   C12128135   2.757   4.140   4.112 -0.8084  0.3211  0.7659
   88MOL   C12228136   2.658   3.968   4.325  0.1598 -0.2166 -0.4750
   88MOL   H12328137   2.497   3.943   4.198 -0.0593 -2.7620  0.5751
   88MOL   H12428138   2.456   4.301   3.920  0.5327 -0.7248 -1.0694
   88MOL   H12528139   2.697   4.422   3.927  0.2601 -0.2634 -0.9504
   88MOL   H12628140   2.871   4.318   4.054  1.0290 -2.3548  0.9006
   88MOL   H12728141   2.836   4.084   4.159 -0.7123 -0.7919 -0.6777
   88MOL   H12828142   2.634   4.071   4.354 -0.2447 -0.7074  0.9882
   88MOL   H12928143   2.767   3.962   4.330  0.1469 -0.0905  0.0028
   88MOL   C13028144   2.577   3.895   4.440  0.2785  0.7828 -0.3987
   88MOL   C13128145   2.425   3.944   4.455  0.3081  0.3277 -0.7078
   88MOL   C13228146   2.322   3.847   4.449 -0.2780 -0.7815  0.2669
   88MOL  Cl13328147   2.341   3.680   4.419 -0.0169 -0.0133  0.0623
   88MOL   C13428148   2.190   3.895   4.451  0.1074  0.1640 -0.0671
   88MOL   C13528149   2.159   4.032   4.449 -0.4627 -0.4308 -0.2944
   88MOL   C13628150   2.266   4.125   4.462  0.1317 -0.1747 -0.3086
   88MOL   C13728151   2.402   4.077   4.472  0.3672  0.2826 -0.5079
   88MOL   C13828152   2.639   3.890   4.585  0.4080 -0.2350 -0.1541
   88MOL   H13928153   2.566   3.790   4.411 -1.5999  0.9960 -0.5012
   88MOL   H14028154   2.110   3.823   4.439 -1.5170  1.7115  1.3357
   88MOL   H14128155   2.055   4.063   4.452 -0.5996 -0.8071 -1.2104
   88MOL   H14228156   2.254   4.232   4.477 -0.0480 -0.3954  1.1740
   88MOL   H14328157   2.479   4.150   4.490  0.3551 -0.0561  0.9396
   88MOL   H14428158   2.580   3.853   4.668  1.4310 -0.5345  0.4548
   88MOL   H14528159   2.683   3.987   4.608  0.1284  0.8074 -3.7029
   88MOL   C14628160   2.764   3.785   4.582  0.1657 -0.0925  0.2157
   88MOL   C14728161   2.715   3.650   4.542  0.1519 -0.1889 -0.2278
   88MOL   C14828162   2.770   3.577   4.435 -0.2609  0.1006  0.0466
   88MOL  Cl14928163   2.887   3.642   4.325 -0.0302 -0.1815  0.1023
   88MOL   C15028164   2.727   3.444   4.412  0.0873 -0.7583 -0.2518
   88MOL   C15128165   2.623   3.391   4.488  0.4333 -0.2637  0.3698
   88MOL   C15228166   2.575   3.457   4.604 -0.5125  0.3611 -0.4291
   88MOL   C15328167   2.628   3.587   4.626 -0.2754  0.3389 -0.2357
   88MOL   C15428168   2.861   3.771   4.709 -1.1441 -0.1828 -0.7148
   88MOL   H15528169   2.826   3.810   4.496 -0.1167 -0.8774 -0.2151
   88MOL   H15628170   2.760   3.381   4.330 -1.5719 -1.4081 -0.4337
   88MOL   H15728171   2.593   3.288   4.478 -1.0607  0.3302 -1.5458
   88MOL   H15828172   2.509   3.408   4.674 -0.5593 -2.1043 -2.1192
   88MOL   H15928173   2.593   3.642   4.713  0.7008 -1.5331  1.3600
   88MOL   H16028174   2.916   3.678   4.704 -1.4281 -0.3608 -0.5495
   88MOL   H16128175   2.801   3.758   4.800 -2.5941  2.4038 -1.2323
   88MOL   C16228176   2.966   3.879   4.723 -0.3684  0.2872  0.5041
   88MOL   C16328177   3.018   3.921   4.587  0.3117 -0.8441 -0.4819
   88MOL   C16428178   3.000   4.050   4.534  0.0874  0.4106 -0.1670
   88MOL  Cl16528179   2.925   4.176   4.628 -0.1143 -0.1609 -0.3126
   88MOL   C16628180   3.064   4.083   4.412 -0.1614  0.0038 -0.1510
   88MOL   C16728181   3.139   3.992   4.340  0.3117 -0.5869  0.2962
   88MOL   C16828182   3.163   3.864   4.396  0.1720 -0.0650 -0.4042
   88MOL   C16928183   3.101   3.829   4.520 -0.3427 -0.5522 -0.5042
   88MOL   C17028184   3.078   3.843   4.829 -0.0524 -0.2396  0.2445
   88MOL   H17128185   2.919   3.959   4.780  2.0855 -0.3070  3.5093
   88MOL   H17228186   3.042   4.176   4.360 -0.4004 -0.3848 -0.7447
   88MOL   H17328187   3.181   4.022   4.245  0.0696 -0.9788  0.0608
   88MOL   H17428188   3.221   3.792   4.340 -1.2761 -0.0645 -1.9395
   88MOL   H17528189   3.115   3.728   4.555 -1.6273  0.1024  2.0621
   88MOL   H17628190   3.163   3.906   4.805  0.1829 -0.7462 -0.2797
   88MOL   H17728191   3.110   3.740   4.811 -0.6948 -0.3514 -0.2929
   88MOL   C17828192   3.045   3.880   4.976 -0.2769 -0.1982  0.0706
   88MOL   C17928193   3.083   4.027   5.005 -0.6354  0.1570 -0.3187
   88MOL   C18028194   2.986   4.133   5.003 -0.3668 -0.7512  0.4384
   88MOL  Cl18128195   2.820   4.105   4.984  0.1431 -0.4642 -0.0678
   88MOL   C18228196   3.026   4.269   5.003  0.3554  0.5873  0.2123
   88MOL   C18328197   3.164   4.300   5.008  0.5850 -0.1379 -0.4102
   88MOL   C18428198   3.261   4.199   5.003 -0.4097  0.0657  0.3304
   88MOL   C18528199   3.223   4.064   4.999  0.7581 -0.3751  0.0841
   88MOL   C18628200   3.097   3.783   5.080 -0.2827  0.2030  0.1916
   88MOL   H18728201   2.936   3.869   4.976 -0.3889  0.7110  2.3458
   88MOL   H18828202   2.949   4.344   5.010 -0.7645 -0.4356 -0.7107
   88MOL   H18928203   3.177   4.407   5.012 -0.6862  0.0817 -1.7152
   88MOL   H19028204   3.365   4.226   4.998 -0.5566  0.2704 -1.8920
   88MOL   H19128205   3.294   3.985   4.979  1.2446  0.4686 -1.6065
   88MOL   H19228206   3.204   3.769   5.064 -0.5171 -1.6026  0.0779
   88MOL   H19328207   3.035   3.694   5.068 -0.3148 -0.2071  2.9613
   88MOL   C19428208   3.091   3.813   5.233 -0.1994 -0.8156 -0.1784
   88MOL   C19528209   3.180   3.713   5.320  0.7949  1.0538 -0.1241
   88MOL   C19628210   3.254   3.766   5.424 -0.2191  0.1669 -0.3218
   88MOL  Cl19728211   3.254   3.937   5.460 -0.0543  0.0255 -0.0126
   88MOL   C19828212   3.327   3.680   5.501 -0.4415  0.7981  0.3323
   88MOL   C19928213   3.321   3.540   5.484 -0.2292 -0.1646 -0.1813
   88MOL   C20028214   3.246   3.484   5.377  0.2243 -0.4097  0.3639
   88MOL   C20128215   3.169   3.574   5.295  0.2127  0.1380  0.2918
   88MOL   C20228216   2.950   3.844   5.290  0.0168 -0.0371  0.2336
   88MOL   H20328217   3.150   3.905   5.232 -0.4917 -0.6367 -1.4713
   88MOL   H20428218   3.390   3.720   5.578  1.1226 -1.0193  0.0463
   88MOL   H20528219   3.369   3.475   5.555 -0.5610  1.3925  1.4975
   88MOL   H20628220   3.230   3.377   5.372 -1.3527 -0.1838  0.4297
   88MOL   H20728221   3.115   3.525   5.215  0.8925 -1.7565  0.9901
   88MOL   H20828222   2.916   3.944   5.264 -1.0487  0.1832  2.3339
   88MOL   H20928223   2.954   3.849   5.399 -0.5104 -0.9007  0.3018
   88MOL   C21028224   2.832   3.743   5.265 -0.0529  0.0478 -0.1984
   88MOL   C21128225   2.696   3.824   5.267  0.4761 -0.0524  0.1975
   88MOL   C21228226   2.601   3.824   5.159 -0.2094 -0.7735 -0.4568
   88MOL  Cl21328227   2.639   3.735   5.016  0.1596  0.2146 -0.1230
   88MOL   C21428228   2.476   3.886   5.173 -0.6315 -0.4145 -0.5735
   88MOL   C21528229   2.452   3.954   5.300 -0.3996  0.3573  0.0016
   88MOL   C21628230   2.550   3.959   5.402 -0.2531 -0.0543  0.1939
   88MOL   C21728231   2.668   3.887   5.388  0.3547 -0.0073  0.4117
   88MOL   C21828232   2.824   3.619   5.361 -0.7382  0.1788  0.0185
   88MOL   H21928233   2.845   3.711   5.162  2.8762 -0.9394  0.4279
   88MOL   H22028234   2.414   3.885   5.084 -2.1664  2.6927  0.4037
   88MOL   H22128235   2.361   4.012   5.304 -0.0842  0.9700 -1.3557
   88MOL   H22228236   2.523   4.015   5.490  1.9218  2.4453 -0.6618
   88MOL   H22328237   2.732   3.867   5.473  1.3972  0.7746 -0.1810
   88MOL   H22428238   2.821   3.647   5.466 -1.3733 -1.7955  0.5441
   88MOL   H22528239   2.916   3.562   5.353 -1.6841 -1.0852 -2.1504
   88MOL   C22628240   2.707   3.519   5.329 -0.4098  0.5156 -0.1364
   88MOL   C22728241   2.577   3.558   5.389  0.1996  0.1160 -0.1218
   88MOL   C22828242   2.454   3.552   5.319  0.2069 -0.0413  0.4079
   88MOL  Cl22928243   2.448   3.476   5.158 -0.0149 -0.0880  0.6194
   88MOL   C23028244   2.335   3.610   5.376 -0.1870 -0.9651  0.6811
   88MOL   C23128245   2.332   3.650   5.507 -0.0822  0.0943  0.5664
   88MOL   C23228246   2.449   3.627   5.586 -0.1328  0.5427  0.2390
   88MOL   C23328247   2.567   3.584   5.524 -0.0651  0.0672 -0.9523
   88MOL   C23428248   2.740   3.376   5.377 -0.7927  0.0669 -0.2029
   88MOL   H23528249   2.694   3.519   5.221 -0.6692 -1.0702 -0.1033
   88MOL   H23628250   2.246   3.619   5.315 -0.4629  1.9354  1.4317
   88MOL   H23728251   2.235   3.668   5.551  0.2158 -0.9325  1.6673
   88MOL   H23828252   2.449   3.633   5.694  0.7550 -1.3294  0.3614
   88MOL   H23928253   2.652   3.563   5.588  0.1155  0.3280 -1.1059
   88MOL   H24028254   2.652   3.315   5.398 -0.4810 -0.0261  0.8545
   88MOL   H24128255   2.771   3.387   5.481 -1.3035 -1.8391  0.1642
   88MOL   C24228256   2.841   3.304   5.277  0.2718 -0.1594  0.2988
   88MOL   C24328257   2.768   3.250   5.157  0.4232 -0.6893 -0.1696
   88MOL   C24428258   2.784   3.310   5.030 -0.5972  0.6314 -0.2625
   88MOL  Cl24528259   2.906   3.422   4.997  0.1604  0.1219 -0.0090
   88MOL   C24628260   2.717   3.261   4.921  0.2138 -0.4230 -0.1772
   88MOL   C24728261   2.617   3.166   4.938  0.2670  0.2895 -0.4516
   88MOL   C24828262   2.604   3.101   5.061 -0.3547 -0.6699  0.2893
   88MOL   C24928263   2.683   3.142   5.170 -0.5398  1.0276 -0.2612
   88MOL   C25028264   2.916   3.182   5.339 -0.3100 -0.5157 -0.3486
   88MOL   H25128265   2.918   3.375   5.247  2.0700 -2.2997 -0.3085
   88MOL   H25228266   2.722   3.298   4.819  0.0034 -0.9543 -0.3804
   88MOL   H25328267   2.549   3.134   4.860 -1.4722 -0.3194  1.2970
   88MOL   H25428268   2.524   3.029   5.075 -0.3510 -0.5543  0.8960
   88MOL   H25528269   2.663   3.096   5.265  2.2074  0.5081  0.1103
   88MOL   H25628270   2.838   3.124   5.389  0.4330  0.3894  1.9221
   88MOL   H25728271   2.968   3.213   5.429 -0.3293  0.5274 -0.6923
   88MOL   C25828272   3.010   3.100   5.242 -0.1156  0.1570 -0.0673
   88MOL   C25928273   3.039   2.956   5.289 -0.1049  0.6085 -0.4525
   88MOL   C26028274   2.982   2.840   5.240 -0.4910 -0.6493 -0.4725
   88MOL  Cl26128275   2.875   2.843   5.109  0.5289 -0.0003 -0.3269
   88MOL   C26228276   3.020   2.714   5.282  0.4662 -0.2289  0.4230
   88MOL   C26328277   3.125   2.705   5.373 -0.6283  0.5595  0.1693
   88MOL   C26428278   3.179   2.820   5.429 -0.1714 -0.5177  0.4401
   88MOL   C26528279   3.139   2.945   5.386  0.4011  0.4371 -0.6620
   88MOL   C26628280   3.144   3.179   5.206 -0.9664  0.4331  0.2106
   88MOL   H26728281   2.956   3.090   5.148  0.4056 -1.2915 -0.2177
   88MOL   H26828282   2.972   2.629   5.236 -0.8822  0.4878  0.4944
   88MOL   H26928283   3.168   2.609   5.397  3.5244  1.5854 -2.5533
   88MOL   H27028284   3.262   2.814   5.498 -0.6163 -0.4107  0.9796
   88MOL   H27128285   3.191   3.030   5.428  1.5551  0.1908 -1.5486
   88MOL   H27228286   3.211   3.179   5.292  2.5559 -0.2876 -2.4123
   88MOL   H27328287   3.120   3.283   5.184  2.1741  0.8886 -1.3020
   88MOL   C27428288   3.217   3.123   5.079 -0.0806 -0.2585  0.2053
   88MOL   C27528289   3.372   3.127   5.083  0.4615  0.1395  0.4236
   88MOL   C27628290   3.451   3.014   5.041  0.6552 -0.3531  0.2932
   88MOL  Cl27728291   3.375   2.864   4.987  0.2221  0.1293 -0.0914
   88MOL   C27828292   3.590   3.026   5.034 -0.1612 -0.4154 -0.9956
   88MOL   C27928293   3.653   3.148   5.065  0.3024 -0.4641 -0.2445
   88MOL   C28028294   3.579   3.258   5.114 -0.0355  0.1358  0.3174
   88MOL   C28128295   3.436   3.246   5.112 -0.1187 -0.3404  0.2986
   88MOL   C28228296   3.159   3.190   4.957 -0.5465  0.5245  0.5606
   88MOL   H28328297   3.192   3.017   5.083  2.1414 -0.8065  0.3904
   88MOL   H28428298   3.642   2.939   4.997  2.7178  1.0529 -0.5088
   88MOL   H28528299   3.761   3.150   5.062  0.2756  3.2507 -0.7765
   88MOL   H28628300   3.626   3.355   5.121  1.6586 -0.6490 -0.0437
   88MOL   H28728301   3.378   3.335   5.134  1.8710  1.1703 -0.4646
   88MOL   H28828302   3.219   3.279   4.939  0.4101  0.5040  3.3269
   88MOL   H28928303   3.054   3.216   4.963 -0.4012  1.2709 -0.1306
   88MOL   C29028304   3.171   3.118   4.817 -0.2060  0.1302 -0.4522
   88MOL   C29128305   3.165   3.219   4.701  0.4204 -0.2161 -0.7754
   88MOL   C29228306   3.270   3.236   4.606  0.0951 -0.1087  0.2269
   88MOL  Cl29328307   3.420   3.155   4.634  0.0382 -0.0383 -0.0968
   88MOL   C29428308   3.250   3.321   4.495  0.5663  0.5986  0.3954
   88MOL   C29528309   3.130   3.396   4.475  0.0318  0.5227  0.1104
   88MOL   C29628310   3.033   3.391   4.574 -0.1806  0.1491 -0.2873
   88MOL   C29728311   3.051   3.307   4.688  0.0910  0.5898 -0.1310
   88MOL   C29828312   3.068   3.006   4.816  0.3826 -0.2491 -0.7351
   88MOL   H29928313   3.272   3.076   4.815  0.2557  1.2106 -0.7593
   88MOL   H30028314   3.325   3.330   4.418 -0.6923  0.2125 -0.9020
   88MOL   H30128315   3.123   3.462   4.389  0.9326  0.7966  0.2441
   88MOL   H30228316   2.945   3.452   4.562  0.7732  1.9840  1.7028
   88MOL   H30328317   2.976   3.288   4.764 -0.1366  2.8805  0.2260
   88MOL   H30428318   2.968   3.043   4.838  0.3600 -0.4615 -0.4892
   88MOL   H30528319   3.090   2.932   4.893  2.1816  1.4219  0.4231
   88MOL   C30628320   3.060   2.935   4.686 -0.5129 -0.0124  0.7724
   88MOL   C30728321   2.944   2.838   4.691 -0.2997 -0.3899 -0.6098
   88MOL   C30828322   2.809   2.873   4.656  0.1245 -0.3549  0.0412
   88MOL  Cl30928323   2.776   3.030   4.587 -0.0931 -0.1855 -0.3189
   88MOL   C31028324   2.699   2.783   4.660  0.6555  0.1811 -0.6269
   88MOL   C31128325   2.723   2.656   4.717  0.7666 -0.0595  0.0797
   88MOL   C31228326   2.850   2.619   4.752  0.1718  0.2662 -0.2397
   88MOL   C31328327   2.959   2.707   4.739 -0.1427 -0.0010  0.7442
   88MOL   C31428328   3.190   2.866   4.642 -0.3139  0.6352 -0.3509
   88MOL   H31528329   3.042   3.011   4.610  0.0645 -0.5880  0.0422
   88MOL   H31628330   2.600   2.812   4.626  0.2053 -0.6244 -0.0377
   88MOL   H31728331   2.646   2.581   4.719  0.2124  0.2099 -4.4984
   88MOL   H31828332   2.866   2.520   4.792  1.0354  0.4309 -0.1702
   88MOL   H31928333   3.052   2.657   4.760  1.2608  2.1738 -0.0494
   88MOL   H32028334   3.179   2.811   4.549 -0.1168 -0.9820  0.5467
   88MOL   H32128335   3.231   2.795   4.715  3.1208  0.2589 -2.5322
   88MOL   H32228336   3.276   2.933   4.637  0.3814 -0.2800 -0.7743
   89MOL     C128337   3.721   4.999   2.803 -0.0977  0.3767  0.3025
   89MOL     C228338   3.734   4.857   2.843  0.3995 -0.3519  0.5864
   89MOL     C328339   3.765   4.749   2.751 -0.4046 -1.1003 -0.4236
   89MOL    Cl428340   3.792   4.782   2.584  0.5533  0.0667 -0.1347
   89MOL     C528341   3.774   4.620   2.803  0.7866  0.4687  0.6634
   89MOL     C628342   3.743   4.595   2.937  0.0908  0.0735 -0.3133
   89MOL     C728343   3.712   4.691   3.028 -0.4975  0.4192  0.2968
   89MOL     C828344   3.710   4.829   2.979 -0.5700 -0.2022  0.2830
   89MOL     C928345   3.585   5.028   2.738 -0.3818 -0.0972 -0.0432
   89MOL    H1028346   3.731   5.060   2.893 -1.5413 -0.2608  0.9111
   89MOL    H1128347   3.803   4.542   2.734 -1.5196  0.9583 -0.9243
   89MOL    H1228348   3.739   4.492   2.970  1.8814  0.2577  0.5297
   89MOL    H1328349   3.690   4.658   3.128  1.9533  1.1835  1.1144
   89MOL    H1428350   3.674   4.901   3.052 -1.8709 -0.2633 -0.2927
   89MOL    H1528351   3.513   5.056   2.815 -1.9149  0.9763 -1.8013
   89MOL    H1628352   3.551   4.934   2.696  2.4478 -0.1551 -2.2984
   89MOL    H1728353   3.784   5.032   2.721 -2.1396  2.4359 -0.5174
   89MOL    C1828354   3.565   5.138   2.623  0.0808 -0.1012 -0.0961
   89MOL    C1928355   3.641   5.271   2.657 -0.0209  0.2068  0.2853
   89MOL    C2028356   3.747   5.321   2.573  0.2372 -0.0764  0.6179
   89MOL   Cl2128357   3.774   5.251   2.415  0.2015  0.7225 -0.1142
   89MOL    C2228358   3.816   5.432   2.605  0.1122 -0.4607  0.0227
   89MOL    C2328359   3.790   5.504   2.723 -0.3813 -0.7578  0.5971
   89MOL    C2428360   3.690   5.457   2.805  0.1473 -0.7172 -0.4595
   89MOL    C2528361   3.609   5.346   2.775 -0.6150 -0.6844 -0.2487
   89MOL    C2628362   3.419   5.167   2.572  0.0349  0.3828 -0.4585
   89MOL    H2728363   3.610   5.108   2.529  2.1440  1.1313  0.4731
   89MOL    H2828364   3.891   5.472   2.537 -0.0178  0.3618  0.3600
   89MOL    H2928365   3.833   5.601   2.746 -0.8128 -0.3472 -0.2993
   89MOL    H3028366   3.667   5.512   2.895 -0.5000  1.0846 -1.7103
   89MOL    H3128367   3.527   5.312   2.837 -0.5097 -0.7396 -0.1407
   89MOL    H3228368   3.413   5.260   2.516  3.0444 -0.0001 -1.4642
   89MOL    H3328369   3.367   5.194   2.664  0.1114 -0.1287 -0.2621
   89MOL    C3428370   3.357   5.063   2.471  0.4262 -0.0637 -0.2013
   89MOL    C3528371   3.437   5.039   2.342 -0.2213 -0.1010  0.0565
   89MOL    C3628372   3.428   4.915   2.279 -0.6023 -0.0358  0.3062
   89MOL   Cl3728373   3.362   4.779   2.357  0.1435 -0.2883  0.1378
   89MOL    C3828374   3.496   4.904   2.153  0.4601  0.2926 -0.0284
   89MOL    C3928375   3.557   5.017   2.091  0.0643 -0.4397  0.8607
   89MOL    C4028376   3.556   5.137   2.152  0.6742  0.8717  0.3383
   89MOL    C4128377   3.499   5.147   2.277 -0.3127 -0.4035  0.0352
   89MOL    C4228378   3.203   5.084   2.433  0.1865  0.7694 -0.2333
   89MOL    H4328379   3.373   4.970   2.524 -1.9351  0.0999  0.8491
   89MOL    H4428380   3.491   4.805   2.109  3.1282 -0.3759  1.0705
   89MOL    H4528381   3.612   5.009   1.999 -0.6373 -0.2594  0.4184
   89MOL    H4628382   3.592   5.231   2.112 -0.5245  0.6981 -1.1595
   89MOL    H4728383   3.506   5.244   2.323  1.6107 -1.2909  1.6815
   89MOL    H4828384   3.181   5.001   2.366 -0.4410  0.5541  0.2496
   89MOL    H4928385   3.192   5.171   2.368 -1.2460  1.3037  0.7141
   89MOL    C5028386   3.095   5.092   2.541 -0.1651  0.6447  0.1816
   89MOL    C5128387   3.114   4.980   2.648 -0.0439 -0.9379  0.8517
   89MOL    C5228388   3.157   5.010   2.783 -0.4963  0.0088  0.2853
   89MOL   Cl5328389   3.159   5.170   2.839 -0.2003 -0.1840  0.0603
   89MOL    C5428390   3.174   4.907   2.875 -0.9261 -0.8347 -0.2701
   89MOL    C5528391   3.144   4.776   2.838  1.0059  0.5266  0.6824
   89MOL    C5628392   3.098   4.745   2.711  0.0858  0.9478 -0.3754
   89MOL    C5728393   3.083   4.845   2.615  0.1250  0.0266 -0.3624
   89MOL    C5828394   2.937   5.093   2.501  0.4792  0.5973 -0.4325
   89MOL    H5928395   3.109   5.189   2.589 -0.1541 -0.3698  2.3313
   89MOL    H6028396   3.200   4.924   2.979 -0.0584  2.3104 -0.9257
   89MOL    H6128397   3.166   4.694   2.904  3.4360  0.1768 -0.4977
   89MOL    H6228398   3.072   4.644   2.681  2.2396  0.2189  0.1720
   89MOL    H6328399   3.056   4.820   2.513  0.2599 -0.8380 -0.1876
   89MOL    H6428400   2.903   4.992   2.477 -0.4179  0.9600 -0.6797
   89MOL    H6528401   2.906   5.156   2.418  0.2868  2.6835  1.1896
   89MOL    C6628402   2.836   5.141   2.611 -0.5874  0.5208  0.2544
   89MOL    C6728403   2.699   5.074   2.601 -0.4370 -0.1296  0.7315
   89MOL    C6828404   2.631   5.021   2.714  0.1859 -0.3367  0.0361
   89MOL   Cl6928405   2.708   5.018   2.874  0.2896 -0.0370 -0.1221
   89MOL    C7028406   2.504   4.968   2.702  0.3425  0.5233  0.3562
   89MOL    C7128407   2.431   4.966   2.580 -0.1037  0.5574 -0.0023
   89MOL    C7228408   2.501   5.004   2.466  0.5895  0.0085  0.0808
   89MOL    C7328409   2.629   5.064   2.477 -0.5360  0.8451 -0.1612
   89MOL    C7428410   2.818   5.297   2.622 -0.6246  0.6318  0.5810
   89MOL    H7528411   2.886   5.098   2.698 -0.7149  0.1052  0.1250
   89MOL    H7628412   2.453   4.950   2.795  0.6988 -0.5621  0.3481
   89MOL    H7728413   2.326   4.941   2.570 -0.0019  1.2857 -3.5129
   89MOL    H7828414   2.448   4.993   2.372  0.0099  2.1038  0.1292
   89MOL    H7928415   2.671   5.106   2.387  0.2949 -0.4715 -0.4031
   89MOL    H8028416   2.752   5.335   2.544  2.2043  2.2137 -1.1235
   89MOL    H8128417   2.914   5.344   2.603  0.4303 -1.4084  0.8251
   89MOL    C8228418   2.766   5.349   2.757  0.3690  0.0723 -0.4360
   89MOL    C8328419   2.742   5.503   2.759  0.5270  0.1247  0.5234
   89MOL    C8428420   2.612   5.558   2.791 -0.0750  0.0254  1.0451
   89MOL   Cl8528421   2.482   5.452   2.824  0.4763  0.0177 -0.1001
   89MOL    C8628422   2.591   5.697   2.799 -0.5098  0.6412  0.1935
   89MOL    C8728423   2.693   5.789   2.768  0.3135  0.6063  0.2609
   89MOL    C8828424   2.821   5.731   2.738  0.2774  0.4152  0.1523
   89MOL    C8928425   2.841   5.595   2.726  0.4314  0.5588 -0.1665
   89MOL    C9028426   2.867   5.317   2.868  0.3348 -0.5389 -0.0947
   89MOL    H9128427   2.678   5.292   2.789 -0.3118  1.0712 -0.4973
   89MOL    H9228428   2.495   5.744   2.813 -0.1379  1.3902  0.2682
   89MOL    H9328429   2.669   5.894   2.769 -0.6522  0.3876  0.2483
   89MOL    H9428430   2.901   5.798   2.711 -0.7472  1.2699 -0.8227
   89MOL    H9528431   2.941   5.558   2.710  0.5114 -0.4212  2.3106
   89MOL    H9628432   2.963   5.355   2.834  0.6446  0.3677  1.7278
   89MOL    H9728433   2.888   5.210   2.872  0.4040 -0.5501 -0.7440
   89MOL    C9828434   2.835   5.361   3.011 -0.1630  0.2414  0.1540
   89MOL    C9928435   2.966   5.342   3.099 -0.1400 -0.5958 -0.3177
   89MOL   C10028436   3.054   5.447   3.111  0.2617  0.2865 -0.2690
   89MOL  Cl10128437   3.032   5.607   3.046 -0.1529 -0.1301  0.2813
   89MOL   C10228438   3.178   5.428   3.186 -0.2723 -0.4281  0.5982
   89MOL   C10328439   3.213   5.307   3.244 -0.0561 -1.2923 -0.2777
   89MOL   C10428440   3.121   5.196   3.228 -0.2139 -0.2963 -0.7670
   89MOL   C10528441   2.997   5.218   3.163 -0.5313 -0.2303 -0.3905
   89MOL   C10628442   2.704   5.294   3.067 -0.0052  0.2498 -0.5290
   89MOL   H10728443   2.802   5.464   3.005  1.0848  0.6518  0.1854
   89MOL   H10828444   3.246   5.512   3.192 -2.4833  1.4520  0.3540
   89MOL   H10928445   3.297   5.281   3.308 -0.3292  0.2611  0.7245
   89MOL   H11028446   3.131   5.100   3.276 -0.4405 -1.6980 -3.4150
   89MOL   H11128447   2.927   5.136   3.167  0.3031 -0.8958  0.7778
   89MOL   H11228448   2.715   5.187   3.083 -1.0140  0.1363 -0.6073
   89MOL   H11328449   2.623   5.313   2.996 -0.8992  0.8082  0.6317
   89MOL   C11428450   2.660   5.350   3.204 -0.2123 -0.4024  0.3709
   89MOL   C11528451   2.735   5.303   3.328 -0.0699  0.1894 -0.0393
   89MOL   C11628452   2.813   5.394   3.403 -0.0142 -1.0955  0.2811
   89MOL  Cl11728453   2.833   5.564   3.377  0.3605 -0.1220  0.3776
   89MOL   C11828454   2.873   5.352   3.521 -0.0386 -0.0191 -0.6145
   89MOL   C11928455   2.855   5.224   3.576  0.1006  0.1422  0.3261
   89MOL   C12028456   2.770   5.135   3.508  0.0427 -0.1916  0.0858
   89MOL   C12128457   2.723   5.173   3.382 -0.2586  0.5490 -0.0157
   89MOL   C12228458   2.503   5.335   3.226 -0.1816 -0.4090 -0.4677
   89MOL   H12328459   2.667   5.458   3.208 -1.7183 -0.3347  1.7014
   89MOL   H12428460   2.924   5.426   3.583 -1.1342  0.4985 -0.3073
   89MOL   H12528461   2.893   5.202   3.674 -0.5960 -2.4242  0.0580
   89MOL   H12628462   2.740   5.044   3.558 -2.1569 -0.2278 -1.2468
   89MOL   H12728463   2.666   5.108   3.318 -0.4577  1.7096 -1.0520
   89MOL   H12828464   2.469   5.232   3.239 -1.7067  0.2499  1.0049
   89MOL   H12928465   2.449   5.363   3.135 -1.2698 -2.4199 -0.4746
   89MOL   C13028466   2.449   5.408   3.352  0.8357  0.0888 -0.5702
   89MOL   C13128467   2.312   5.351   3.390 -0.2536 -0.3529 -0.0247
   89MOL   C13228468   2.281   5.287   3.517  0.1789 -0.3795 -0.4267
   89MOL  Cl13328469   2.408   5.246   3.630  0.0352  0.0610 -0.4605
   89MOL   C13428470   2.150   5.250   3.551 -0.1285 -0.9348  0.8498
   89MOL   C13528471   2.043   5.283   3.459 -0.0551  0.3032  0.1326
   89MOL   C13628472   2.073   5.353   3.343  0.3879 -0.1289  0.2575
   89MOL   C13728473   2.201   5.388   3.304  0.2844  0.5424 -0.0433
   89MOL   C13828474   2.433   5.560   3.342  0.2921  0.2640 -0.0496
   89MOL   H13928475   2.517   5.376   3.431 -1.0087 -3.6048 -0.3795
   89MOL   H14028476   2.128   5.196   3.642  2.6528 -2.3224  0.7527
   89MOL   H14128477   1.939   5.255   3.468 -0.5379  1.0313 -2.7845
   89MOL   H14228478   1.997   5.372   3.269  1.1981  2.1487 -0.0353
   89MOL   H14328479   2.217   5.442   3.212 -1.8478  1.2230 -0.0518
   89MOL   H14428480   2.360   5.591   3.268 -1.8966  0.5658  2.1896
   89MOL   H14528481   2.530   5.598   3.309 -0.5272  1.9603 -0.5237
   89MOL   C14628482   2.404   5.630   3.478  0.2851  0.1351 -0.0275
   89MOL   C14728483   2.393   5.777   3.448  0.5161  0.2313  0.3665
   89MOL   C14828484   2.267   5.834   3.416 -0.1442 -0.8808 -0.4032
   89MOL  Cl14928485   2.125   5.741   3.405  0.1543  0.0202 -0.0148
   89MOL   C15028486   2.254   5.975   3.402  0.8641 -0.1256  0.6111
   89MOL   C15128487   2.367   6.053   3.413 -0.4040  0.0577  0.0451
   89MOL   C15228488   2.492   5.996   3.447 -0.0049  0.0990  0.0423
   89MOL   C15328489   2.509   5.854   3.457  0.1685  0.0674  0.3695
   89MOL   C15428490   2.516   5.596   3.583 -0.3161  0.1156 -0.0469
   89MOL   H15528491   2.305   5.593   3.502  1.1931 -1.7311  0.9588
   89MOL   H15628492   2.165   6.027   3.370 -1.3074 -2.9145  1.9056
   89MOL   H15728493   2.355   6.157   3.386 -2.0039 -0.6407 -2.0667
   89MOL   H15828494   2.572   6.063   3.474 -0.9164  1.3298 -0.3025
   89MOL   H15928495   2.605   5.818   3.490 -0.4927 -1.1319  1.0396
   89MOL   H16028496   2.611   5.622   3.536 -0.0048 -0.5558  0.2105
   89MOL   H16128497   2.523   5.487   3.590  1.3908  0.1134 -1.3154
   89MOL   C16228498   2.505   5.651   3.726 -0.6217  0.1594 -0.9436
   89MOL   C16328499   2.631   5.604   3.799 -0.0285  1.0477 -0.1947
   89MOL   C16428500   2.743   5.691   3.835 -0.3748 -0.2778 -0.4702
   89MOL  Cl16528501   2.738   5.859   3.800 -0.3431 -0.1386 -0.3711
   89MOL   C16628502   2.855   5.643   3.905 -0.6739  0.0022  0.2469
   89MOL   C16728503   2.862   5.508   3.942 -0.0374 -0.5809  0.2680
   89MOL   C16828504   2.759   5.416   3.907  0.0116 -0.5442  0.5076
   89MOL   C16928505   2.649   5.470   3.833 -0.4430 -0.3253 -0.0971
   89MOL   C17028506   2.373   5.602   3.795  0.2631 -0.2962 -0.0631
   89MOL   H17128507   2.499   5.760   3.721  0.8651  0.2007 -2.0034
   89MOL   H17228508   2.942   5.702   3.929 -0.3384 -0.3113 -0.1833
   89MOL   H17328509   2.949   5.480   3.999  1.2550  2.6252 -0.0110
   89MOL   H17428510   2.767   5.314   3.941 -1.9294 -0.7458  0.3983
   89MOL   H17528511   2.570   5.402   3.803  0.3495 -1.3517  0.1311
   89MOL   H17628512   2.376   5.509   3.850 -0.2218  0.4905  1.3147
   89MOL   H17728513   2.303   5.567   3.719  1.8502 -3.6982 -0.0150
   89MOL   C17828514   2.318   5.712   3.892 -0.0014  0.2238 -0.2429
   89MOL   C17928515   2.259   5.831   3.811  0.4806  0.1060  0.1518
   89MOL   C18028516   2.126   5.832   3.758  0.8033  0.3380 -0.0729
   89MOL  Cl18128517   2.037   5.681   3.766  0.0137 -0.3101  0.0155
   89MOL   C18228518   2.072   5.951   3.715  0.7607 -0.9876  0.1822
   89MOL   C18328519   2.143   6.074   3.718  0.5034 -0.6131  0.3047
   89MOL   C18428520   2.275   6.065   3.765  0.5239 -0.1270 -0.1275
   89MOL   C18528521   2.336   5.948   3.810  0.9124 -0.3819  0.2557
   89MOL   C18628522   2.410   5.766   4.016  0.1960  0.2611 -0.1351
   89MOL   H18728523   2.228   5.675   3.940 -0.5981  1.9387  0.0172
   89MOL   H18828524   1.971   5.949   3.676  0.8508 -1.0499 -0.0540
   89MOL   H18928525   2.104   6.169   3.685 -0.3228 -1.6037 -1.6841
   89MOL   H19028526   2.344   6.148   3.767 -1.8083  1.8433  3.4025
   89MOL   H19128527   2.443   5.950   3.820  1.0876 -1.9951 -1.0874
   89MOL   H19228528   2.373   5.854   4.069  3.1698  1.5843 -0.1768
   89MOL   H19328529   2.506   5.797   3.977  0.7871  2.0902  2.6250
   89MOL   C19428530   2.441   5.657   4.118  0.2700 -0.1263  0.3129
   89MOL   C19528531   2.321   5.630   4.214  0.3398  0.4402 -0.5649
   89MOL   C19628532   2.250   5.508   4.219  0.6371  0.0463 -0.3905
   89MOL  Cl19728533   2.285   5.372   4.113  0.0776  0.6605 -0.0166
   89MOL   C19828534   2.146   5.485   4.316 -0.2632  0.0804  0.1975
   89MOL   C19928535   2.108   5.589   4.404  0.6972 -0.3392 -0.2183
   89MOL   C20028536   2.179   5.710   4.399  0.5405 -0.3662  0.2299
   89MOL   C20128537   2.282   5.731   4.310 -0.0412  0.0984  0.0257
   89MOL   C20228538   2.577   5.681   4.190 -0.2583 -0.2860  0.0802
   89MOL   H20328539   2.456   5.564   4.063 -1.6709 -0.7392  0.8088
   89MOL   H20428540   2.097   5.391   4.338 -0.5252 -0.2012 -1.5166
   89MOL   H20528541   2.028   5.568   4.473  0.5862  3.2890  0.8895
   89MOL   H20628542   2.146   5.788   4.465  0.2633 -0.8169  0.6269
   89MOL   H20728543   2.334   5.826   4.306 -1.4749  0.8522 -1.1307
   89MOL   H20828544   2.574   5.780   4.235 -1.5978 -1.6746  3.1958
   89MOL   H20928545   2.661   5.675   4.121 -1.3912  0.7182 -1.4145
   89MOL   C21028546   2.610   5.582   4.314  0.1833  0.1268 -0.1079
   89MOL   C21128547   2.729   5.634   4.398 -0.3127 -0.2209  0.3319
   89MOL   C21228548   2.724   5.649   4.543  0.0478  0.2386  0.3828
   89MOL  Cl21328549   2.583   5.611   4.636 -0.0176  0.2492  0.2862
   89MOL   C21428550   2.837   5.702   4.619  0.3421 -0.0389  0.1628
   89MOL   C21528551   2.951   5.736   4.548 -0.2149  0.2551  0.5369
   89MOL   C21628552   2.954   5.716   4.411 -0.2087 -0.6638  0.4832
   89MOL   C21728553   2.843   5.678   4.332  0.1160 -0.2081  0.3076
   89MOL   C21828554   2.641   5.441   4.263 -1.1294 -0.3009 -0.5655
   89MOL   H21928555   2.519   5.575   4.373 -0.6469 -0.8292 -1.4627
   89MOL   H22028556   2.831   5.719   4.726 -0.3936  0.9407 -0.0299
   89MOL   H22128557   3.040   5.767   4.600  0.2958 -0.5097  0.1371
   89MOL   H22228558   3.054   5.734   4.374 -0.9048  1.0848 -0.5871
   89MOL   H22328559   2.852   5.663   4.226 -0.2645  0.1668  0.2216
   89MOL   H22428560   2.729   5.455   4.201 -1.9044  1.3964 -1.3301
   89MOL   H22528561   2.570   5.417   4.184 -1.5110 -0.5545 -0.1538
   89MOL   C22628562   2.640   5.330   4.370 -0.1253  0.5980 -0.2217
   89MOL   C22728563   2.717   5.220   4.322 -0.3521  0.3320 -0.0194
   89MOL   C22828564   2.831   5.170   4.385 -0.1549 -0.5711 -0.3603
   89MOL  Cl22928565   2.904   5.244   4.530  0.1208 -0.0348  0.0728
   89MOL   C23028566   2.891   5.047   4.343  0.4398 -0.5209 -0.2515
   89MOL   C23128567   2.845   4.986   4.222 -1.0506  0.0346 -0.9382
   89MOL   C23228568   2.740   5.046   4.147  0.4519 -0.1292 -0.4045
   89MOL   C23328569   2.671   5.155   4.202 -0.8199 -0.3651  0.2446
   89MOL   C23428570   2.498   5.279   4.408 -0.4315  0.0342 -0.3955
   89MOL   H23528571   2.687   5.380   4.455 -1.1985  0.6012  0.3890
   89MOL   H23628572   2.979   5.014   4.397 -0.2479 -0.4735  0.9266
   89MOL   H23728573   2.887   4.895   4.180  2.2092  0.8224  0.4538
   89MOL   H23828574   2.703   5.001   4.056  1.9586  0.3831 -1.2956
   89MOL   H23928575   2.584   5.192   4.149 -0.4929  1.1223  0.7060
   89MOL   H24028576   2.444   5.262   4.314  1.7040  2.8088 -2.2034
   89MOL   H24128577   2.447   5.357   4.465  1.2876  0.1485  1.0085
   89MOL   C24228578   2.477   5.146   4.490 -0.3729 -0.4488  0.4042
   89MOL   C24328579   2.319   5.112   4.467 -0.2585 -0.1555  0.3305
   89MOL   C24428580   2.284   5.008   4.375  0.1702 -0.2839  0.6392
   89MOL  Cl24528581   2.402   4.940   4.269 -0.4694 -0.0045  0.2616
   89MOL   C24628582   2.151   4.965   4.371 -0.3290 -0.0032  0.0187
   89MOL   C24728583   2.050   5.035   4.437 -0.4863  0.0707  0.4198
   89MOL   C24828584   2.081   5.143   4.519  0.5390 -0.3412 -1.0460
   89MOL   C24928585   2.216   5.184   4.536  0.4142 -0.1261  0.7912
   89MOL   C25028586   2.524   5.157   4.638  0.8503 -0.2415  0.1427
   89MOL   H25128587   2.539   5.075   4.435 -1.4452 -0.8907 -0.2525
   89MOL   H25228588   2.126   4.874   4.318  0.1527  1.1579 -2.2786
   89MOL   H25328589   1.953   4.991   4.420 -0.1554 -0.4479 -0.1302
   89MOL   H25428590   1.996   5.195   4.562  0.8769  0.3694 -1.2356
   89MOL   H25528591   2.237   5.277   4.587  0.2139  0.5546 -0.3472
   89MOL   H25628592   2.455   5.221   4.695 -0.2796  0.7528 -2.2500
   89MOL   H25728593   2.625   5.197   4.631  1.9271 -2.6324  1.5791
   89MOL   C25828594   2.530   5.017   4.707  0.0111 -0.4178 -1.4917
   89MOL   C25928595   2.519   5.037   4.861  0.0588 -0.2832  0.6781
   89MOL   C26028596   2.423   4.963   4.937  0.0655  0.2717  0.6089
   89MOL  Cl26128597   2.316   4.852   4.861  0.1711  0.2862  0.2100
   89MOL   C26228598   2.421   4.977   5.073  0.5075  0.6488 -0.5418
   89MOL   C26328599   2.512   5.061   5.137 -0.0539  0.2969 -0.3145
   89MOL   C26428600   2.608   5.130   5.068  0.1495  0.1029 -0.2621
   89MOL   C26528601   2.612   5.117   4.928  0.2102  0.2296  0.0190
   89MOL   C26628602   2.652   4.931   4.661 -0.4392 -0.6337 -0.1968
   89MOL   H26728603   2.444   4.962   4.670 -0.9273  0.0576 -0.0460
   89MOL   H26828604   2.344   4.923   5.125 -1.0205  0.9761 -2.4192
   89MOL   H26928605   2.509   5.079   5.244 -3.0472 -2.4765  0.1380
   89MOL   H27028606   2.679   5.191   5.122 -1.7923  2.0471  0.1718
   89MOL   H27128607   2.689   5.162   4.867 -0.8498 -1.6817 -2.8240
   89MOL   H27228608   2.734   4.971   4.720  0.7617 -3.3479  0.0223
   89MOL   H27328609   2.678   4.945   4.556  1.4380  0.5361  0.4065
   89MOL   C27428610   2.648   4.783   4.700  0.0737  0.1957  0.8582
   89MOL   C27528611   2.785   4.724   4.698  0.1352 -0.0965  0.4241
   89MOL   C27628612   2.835   4.657   4.811  0.2578  0.0563 -0.1223
   89MOL  Cl27728613   2.757   4.636   4.960 -0.6981 -0.0493  0.1904
   89MOL   C27828614   2.970   4.620   4.807 -0.0247 -0.8944 -0.0291
   89MOL   C27928615   3.048   4.651   4.696  0.4368  0.2214 -0.2740
   89MOL   C28028616   2.996   4.707   4.577  0.5789 -0.0561 -0.0351
   89MOL   C28128617   2.859   4.743   4.581 -1.0508  0.4364  0.3598
   89MOL   C28228618   2.553   4.713   4.602 -0.2706 -0.5912 -0.6729
   89MOL   H28328619   2.608   4.766   4.800  0.6042  0.2340  1.0799
   89MOL   H28428620   3.007   4.581   4.901  1.0034  0.1350  0.0028
   89MOL   H28528621   3.152   4.621   4.693  0.1357 -0.8349 -0.7481
   89MOL   H28628622   3.056   4.699   4.488  0.9229  1.3087  0.0663
   89MOL   H28728623   2.821   4.788   4.491 -0.6745  1.7298  0.8383
   89MOL   H28828624   2.595   4.719   4.501  1.2852 -1.6990 -0.1149
   89MOL   H28928625   2.456   4.760   4.607 -1.0277 -1.9860 -1.8164
   89MOL   C29028626   2.526   4.563   4.627 -0.4156 -0.8568  0.4033
   89MOL   C29128627   2.437   4.521   4.509 -0.1152 -0.0436  0.3598
   89MOL   C29228628   2.487   4.435   4.411  1.1313 -0.6081  0.6827
   89MOL  Cl29328629   2.655   4.389   4.410  0.2074 -0.0069 -0.1377
   89MOL   C29428630   2.411   4.404   4.301  0.0877 -0.3120 -0.3962
   89MOL   C29528631   2.273   4.435   4.300  0.0500 -0.3177 -0.9988
   89MOL   C29628632   2.218   4.519   4.403  0.9489  0.5889  0.8016
   89MOL   C29728633   2.299   4.566   4.511  0.6080  0.3787  0.2373
   89MOL   C29828634   2.461   4.527   4.763  1.0343  0.4584  0.0449
   89MOL   H29928635   2.625   4.518   4.630  0.4477  0.8943 -0.9158
   89MOL   H30028636   2.454   4.346   4.221 -1.0504 -0.4504 -0.9265
   89MOL   H30128637   2.218   4.406   4.212 -0.1664 -1.3263 -0.5485
   89MOL   H30228638   2.113   4.541   4.399  0.6640 -0.9352 -0.2820
   89MOL   H30328639   2.252   4.619   4.592 -3.2454 -1.2568 -0.8466
   89MOL   H30428640   2.363   4.576   4.769  0.6048 -0.0599 -2.2063
   89MOL   H30528641   2.515   4.572   4.846  0.9619  0.9201 -0.1572
   89MOL   C30628642   2.442   4.371   4.790 -0.5680  0.5685 -0.0012
   89MOL   C30728643   2.376   4.352   4.932 -0.1528 -0.0857 -0.4691
   89MOL   C30828644   2.240   4.319   4.948 -0.1770 -0.0968 -0.6519
   89MOL  Cl30928645   2.141   4.295   4.812  0.0366  0.1266 -0.0462
   89MOL   C31028646   2.189   4.290   5.077 -0.8018 -0.2737 -0.2384
   89MOL   C31128647   2.274   4.298   5.186  0.5714 -0.9550  0.2494
   89MOL   C31228648   2.406   4.347   5.172  0.1943 -0.8678 -0.3021
   89MOL   C31328649   2.454   4.376   5.043  0.6275  0.6129 -0.2948
   89MOL   C31428650   2.580   4.299   4.781 -0.6481 -0.6346 -0.6315
   89MOL   H31528651   2.372   4.335   4.714 -1.4477  0.4475  0.8580
   89MOL   H31628652   2.089   4.249   5.080 -0.0284 -2.2886 -1.1927
   89MOL   H31728653   2.227   4.276   5.280 -0.5693 -0.5016 -0.2067
   89MOL   H31828654   2.477   4.345   5.253 -0.3046 -1.2190  0.1244
   89MOL   H31928655   2.558   4.402   5.026  1.2803 -0.6127  1.5312
   89MOL   H32028656   2.616   4.291   4.678  0.6934  0.2428 -0.2409
   89MOL   H32128657   2.583   4.202   4.830 -1.6419 -0.5519 -0.3907
   89MOL   H32228658   2.649   4.363   4.836 -0.6263 -0.3123 -1.0294
   90MOL     C128659   5.293   8.213   7.411 -0.1952  0.5078 -0.5085
   90MOL     C228660   5.136   8.193   7.393  0.0028  0.8565  0.6773
   90MOL     C328661   5.063   8.282   7.317  0.1552 -0.3748 -0.3337
   90MOL    Cl428662   5.143   8.393   7.219  0.0548 -0.1243 -0.5223
   90MOL     C528663   4.921   8.275   7.316 -0.3880  0.1317  0.0123
   90MOL     C628664   4.854   8.172   7.379  0.1682 -0.0811  0.0815
   90MOL     C728665   4.930   8.081   7.456 -0.1032 -0.2606 -0.1971
   90MOL     C828666   5.074   8.088   7.466  0.6053  0.0559 -0.9014
   90MOL     C928667   5.324   8.298   7.535 -0.0480 -0.1539  0.3906
   90MOL    H1028668   5.344   8.117   7.412 -0.4837  0.3456 -1.3173
   90MOL    H1128669   4.865   8.346   7.257 -1.5022  0.7171  1.7435
   90MOL    H1228670   4.746   8.170   7.384  0.2136 -1.6911  0.6222
   90MOL    H1328671   4.874   8.010   7.515 -1.2929  0.9129  0.1180
   90MOL    H1428672   5.134   8.030   7.533  0.0399  0.7108  0.1890
   90MOL    H1528673   5.285   8.226   7.607 -2.1272  0.8217  0.2844
   90MOL    H1628674   5.260   8.386   7.545 -0.4232 -0.3013 -0.6376
   90MOL    H1728675   5.341   8.252   7.321 -0.3776  0.2917 -0.6973
   90MOL    C1828676   5.469   8.337   7.547  0.2203 -0.1086  0.8217
   90MOL    C1928677   5.579   8.232   7.491  0.0405 -0.1901  0.4834
   90MOL    C2028678   5.598   8.108   7.551 -0.0886  0.1665  0.1221
   90MOL   Cl2128679   5.492   8.060   7.678 -0.4030 -0.1190  0.3403
   90MOL    C2228680   5.704   8.023   7.519 -0.3563 -0.1928 -0.2182
   90MOL    C2328681   5.795   8.059   7.419  0.5362 -0.2524 -0.0236
   90MOL    C2428682   5.766   8.177   7.352 -0.4043  0.4692 -0.1882
   90MOL    C2528683   5.663   8.262   7.377  0.6938 -1.0154  0.0924
   90MOL    C2628684   5.505   8.407   7.681 -0.0181  0.0107 -1.4682
   90MOL    H2728685   5.472   8.417   7.472  2.3575  0.5478  1.5852
   90MOL    H2828686   5.724   7.937   7.581 -1.1578  0.6501  1.2268
   90MOL    H2928687   5.880   8.000   7.388  0.3147 -0.8846  0.5520
   90MOL    H3028688   5.830   8.223   7.278 -0.3861  0.3393 -0.2528
   90MOL    H3128689   5.644   8.362   7.340 -0.8679 -1.3677 -0.0924
   90MOL    H3228690   5.473   8.334   7.756 -0.9192  0.7619 -1.1218
   90MOL    H3328691   5.441   0.073   7.698 -1.1478 -1.2975  1.1767
   90MOL    C3428692   5.653   0.020   7.710 -0.0214 -0.5152 -0.4471
   90MOL    C3528693   5.673   0.046   7.865 -0.9439 -0.0589 -0.4993
   90MOL    C3628694   5.756   8.385   7.946  0.5907 -0.1285  0.2763
   90MOL   Cl3728695   5.860   8.267   7.876  0.1836 -0.0105 -0.2711
   90MOL    C3828696   5.765   8.412   8.084 -0.1236  0.1458 -0.2194
   90MOL    C3928697   5.696   0.104   8.138  0.1869 -0.0481 -0.1318
   90MOL    C4028698   5.621   0.189   8.057 -0.4996  0.0563 -0.4717
   90MOL    C4128699   5.611   0.158   7.925  0.5218  0.5709  0.2969
   90MOL    C4228700   5.705   0.142   7.628 -0.2253  0.4355  0.7748
   90MOL    H4328701   5.694   8.343   7.684 -0.4736 -0.6740 -0.5707
   90MOL    H4428702   5.835   8.352   8.141 -1.2520 -0.5602  0.4569
   90MOL    H4528703   5.694   0.146   8.238  0.8440 -1.8952  0.6775
   90MOL    H4628704   5.573   0.279   8.092 -1.5877 -0.2311 -1.2148
   90MOL    H4728705   5.550   0.222   7.862  0.7963 -1.1239 -1.7568
   90MOL    H4828706   5.707   0.233   7.689 -2.8816  2.1373 -1.5262
   90MOL    H4928707   5.627   0.161   7.554  0.8094  1.7147 -0.0060
   90MOL    C5028708   5.844   0.120   7.562 -0.0812  0.1362  0.5895
   90MOL    C5128709   5.966   0.097   7.659  0.2751  0.1003  0.1108
   90MOL    C5228710   6.059   8.414   7.632  0.1484  0.5439  0.1882
   90MOL   Cl5328711   6.048   8.313   7.491  0.0569 -0.2434 -0.2158
   90MOL    C5428712   6.176   8.402   7.708  0.0951  0.5899  0.1438
   90MOL    C5528713   6.195   0.065   7.827  0.1278  0.4871  0.0903
   90MOL    C5628714   6.102   0.168   7.852 -0.2952  0.1437 -0.2739
   90MOL    C5728715   5.989   0.180   7.769  0.4344  0.0063 -0.5569
   90MOL    C5828716   5.856   0.252   7.469  0.4143 -0.0637  0.3247
   90MOL    H5928717   5.833   0.033   7.497  0.1927  1.8310 -1.8314
   90MOL    H6028718   6.252   8.331   7.680 -1.7060 -1.5419  0.5782
   90MOL    H6128719   6.280   0.049   7.891  0.3656 -0.1803 -0.3854
   90MOL    H6228720   6.116   0.239   7.933  0.7057  0.6520 -0.8790
   90MOL    H6328721   5.914   0.252   7.798  1.0656  0.6807 -0.5761
   90MOL    H6428722   5.917   0.322   7.526 -0.7558  1.0895  0.1939
   90MOL    H6528723   5.759   0.303   7.466  0.5949  0.2683  0.1018
   90MOL    C6628724   5.904   0.228   7.326  0.2431  0.0384 -0.3638
   90MOL    C6728725   6.051   0.183   7.322 -0.6265 -0.2339 -0.2624
   90MOL    C6828726   6.098   0.087   7.232  0.1014  0.0828 -0.2094
   90MOL   Cl6928727   5.985   0.017   7.119  0.2819  0.4950 -0.1318
   90MOL    C7028728   6.227   0.036   7.240 -0.0674  0.2542  0.5880
   90MOL    C7128729   6.319   0.101   7.325  0.5106  0.5887  0.6087
   90MOL    C7228730   6.286   0.217   7.395  0.1532  0.1603  0.5144
   90MOL    C7328731   6.154   0.250   7.393  0.0941 -0.4665 -0.6431
   90MOL    C7428732   5.866   0.341   7.224 -0.3847  0.4183 -0.6705
   90MOL    H7528733   5.842   0.144   7.296 -0.2327 -0.0587  0.8673
   90MOL    H7628734   6.250   8.372   7.177 -1.7540  0.9195 -0.9492
   90MOL    H7728735   6.421   0.067   7.334  1.3854  2.1964 -2.4045
   90MOL    H7828736   6.364   0.271   7.446  0.6098  1.7387 -1.7658
   90MOL    H7928737   6.125   0.337   7.450  0.9946 -0.1033 -0.7315
   90MOL    H8028738   5.922   0.321   7.132  1.4375  0.0612  0.4930
   90MOL    H8128739   5.925   0.424   7.261 -1.7191  0.8179  0.6128
   90MOL    C8228740   5.717   0.375   7.207 -0.0813  0.5418  0.8148
   90MOL    C8328741   5.643   0.271   7.114  0.4611  0.1755 -0.4709
   90MOL    C8428742   5.531   0.200   7.160 -0.1484 -0.0280 -0.1350
   90MOL   Cl8528743   5.468   0.203   7.321 -0.1679 -0.1662  0.0859
   90MOL    C8628744   5.460   0.114   7.074  0.2708 -0.1340  0.2407
   90MOL    C8728745   5.508   0.095   6.946  0.2956  0.4443 -0.5675
   90MOL    C8828746   5.613   0.170   6.897 -0.1319  0.3052 -0.2253
   90MOL    C8928747   5.683   0.256   6.979 -1.0511 -0.3139 -0.6821
   90MOL    C9028748   5.702   0.514   7.148  1.0719 -0.3652  0.3944
   90MOL    H9128749   5.656   0.375   7.297 -0.3709 -0.2039  0.6249
   90MOL    H9228750   5.373   0.056   7.102  0.4560  0.0395  1.1704
   90MOL    H9328751   5.456   0.019   6.889 -0.9161 -1.3988  2.8401
   90MOL    H9428752   5.648   0.153   6.796  0.7191  1.5227 -0.1523
   90MOL    H9528753   5.768   0.316   6.948  0.4915 -1.7526  0.6757
   90MOL    H9628754   5.616   0.524   7.081  1.0545 -0.2686  0.4316
   90MOL    H9728755   5.786   0.529   7.081  0.5051  1.9978  0.1345
   90MOL    C9828756   5.696   0.621   7.254 -0.1503 -0.1608 -0.4730
   90MOL    C9928757   5.561   0.628   7.330 -1.0810 -0.2853  0.4315
   90MOL   C10028758   5.547   0.582   7.461  0.2419 -0.1936 -0.0243
   90MOL  Cl10128759   5.679   0.552   7.563  0.0445  0.2295 -0.2254
   90MOL   C10228760   5.414   0.583   7.516 -0.6467  0.0874  0.0502
   90MOL   C10328761   5.304   0.633   7.447 -0.0438  0.1224 -0.5388
   90MOL   C10428762   5.324   0.675   7.314 -0.1231  0.3156 -0.6779
   90MOL   C10528763   5.447   0.677   7.253  1.2008  0.2659  0.9951
   90MOL   C10628764   5.737   0.765   7.206 -0.0585 -0.1862 -0.2095
   90MOL   H10728765   5.768   0.590   7.331 -0.5847 -3.2128 -1.2053
   90MOL   H10828766   5.405   0.545   7.617 -2.2579 -0.7254 -0.3972
   90MOL   H10928767   5.204   0.643   7.485  0.4770 -1.0336  1.1764
   90MOL   H11028768   5.239   0.694   7.251  0.6956 -0.6914 -2.1121
   90MOL   H11128769   5.467   0.707   7.152 -0.2528 -1.3552  0.1823
   90MOL   H11228770   5.710   0.838   7.282  0.6748  0.6902 -0.7752
   90MOL   H11328771   5.663   0.783   7.128  1.5972  0.1277 -1.7484
   90MOL   C11428772   5.889   0.795   7.157 -0.5049  0.0043 -0.2774
   90MOL   C11528773   5.994   0.727   7.245  0.0969  0.1275 -0.7029
   90MOL   C11628774   6.092   0.635   7.193  0.5567 -0.7160 -0.0285
   90MOL  Cl11728775   6.094   0.581   7.030 -0.2230 -0.3624 -0.3061
   90MOL   C11828776   6.182   0.565   7.273  0.4439  0.3368 -0.1186
   90MOL   C11928777   6.182   0.599   7.404  0.3634 -0.2971 -0.8583
   90MOL   C12028778   6.102   0.700   7.463  0.6552 -0.1109  0.8709
   90MOL   C12128779   6.006   0.762   7.380 -0.7587 -0.4221 -0.0843
   90MOL   C12228780   5.926   0.941   7.136  0.0016  0.2913  0.1121
   90MOL   H12328781   5.895   0.734   7.067 -0.5678 -0.0342 -0.2561
   90MOL   H12428782   6.247   0.493   7.228  0.0419 -0.3969  0.4628
   90MOL   H12528783   6.259   0.555   7.465  0.7164  0.7767 -0.5182
   90MOL   H12628784   6.128   0.727   7.564  2.0835  0.8335  0.2644
   90MOL   H12728785   5.936   0.836   7.415 -0.8692 -0.4262 -0.2971
   90MOL   H12828786   6.035   0.946   7.137 -0.0620  2.4596  1.0842
   90MOL   H12928787   5.898   1.006   7.219  0.9541  1.7548 -0.6832
   90MOL   C13028788   5.858   1.002   7.011 -0.2814  0.0535 -0.4901
   90MOL   C13128789   5.933   0.946   6.886 -0.2485 -0.0945  0.2434
   90MOL   C13228790   5.876   0.853   6.792 -0.5159  0.4543 -0.2793
   90MOL  Cl13328791   5.718   0.786   6.816 -0.3204 -0.5717 -0.2381
   90MOL   C13428792   5.948   0.822   6.675  0.0215  0.9278  0.2870
   90MOL   C13528793   6.086   0.860   6.661  0.7383 -0.0899  0.8214
   90MOL   C13628794   6.141   0.947   6.756  0.4544 -0.0482  0.3018
   90MOL   C13728795   6.063   0.993   6.862 -0.2233 -0.2803  0.2367
   90MOL   C13828796   5.844   1.156   7.020 -0.1620  0.1066 -0.4728
   90MOL   H13928797   5.759   0.958   7.028 -0.0451 -0.9970 -1.7129
   90MOL   H14028798   5.896   0.773   6.593  2.1710 -1.0486  0.0258
   90MOL   H14128799   6.140   0.834   6.571 -1.1723 -0.3721 -0.2750
   90MOL   H14228800   6.246   0.967   6.741  0.5395 -0.2086  0.6862
   90MOL   H14328801   6.104   1.055   6.940 -0.6081 -2.5260  2.2790
   90MOL   H14428802   5.947   1.192   7.022  1.0983 -3.3857  1.6871
   90MOL   H14528803   5.794   1.176   7.115  0.2527 -3.2002  0.5107
   90MOL   C14628804   5.760   1.231   6.915 -0.0654 -0.2400  0.4117
   90MOL   C14728805   5.851   1.263   6.793  0.2169 -0.0944 -0.1983
   90MOL   C14828806   5.821   1.221   6.662  0.3347 -0.9017 -0.3679
   90MOL  Cl14928807   5.669   1.144   6.613 -0.3361  0.3571  0.0434
   90MOL   C15028808   5.920   1.246   6.566 -0.2254 -0.3153  0.1421
   90MOL   C15128809   6.044   1.313   6.589 -0.1979 -0.5809  1.0718
   90MOL   C15228810   6.072   1.356   6.719  0.4228 -0.0552  0.3051
   90MOL   C15328811   5.972   1.344   6.814  0.0825  0.9343 -0.2058
   90MOL   C15428812   5.691   1.357   6.962  0.0490  0.1082 -0.2498
   90MOL   H15528813   5.676   1.169   6.885 -1.6121  1.4570  1.1593
   90MOL   H15628814   5.904   1.197   6.471 -0.0963  0.4146 -0.2565
   90MOL   H15728815   6.116   1.313   6.509 -1.2197 -1.4967  0.1344
   90MOL   H15828816   6.161   1.413   6.739  1.7681 -2.0156  0.0509
   90MOL   H15928817   5.993   1.388   6.911 -0.4945  1.7992 -0.4680
   90MOL   H16028818   5.657   1.418   6.878  0.5179 -0.8503 -1.1465
   90MOL   H16128819   5.758   1.412   7.028  1.8121 -0.7075 -1.2904
   90MOL   C16228820   5.558   1.328   7.039  0.0848  0.1953  0.3252
   90MOL   C16328821   5.453   1.254   6.940  0.7739  0.3580  0.3485
   90MOL   C16428822   5.413   1.115   6.950  0.1194  0.1691 -0.3504
   90MOL  Cl16528823   5.467   1.017   7.078 -0.2744  0.2438 -0.1297
   90MOL   C16628824   5.317   1.057   6.863  0.3419  0.1082 -0.1933
   90MOL   C16728825   5.262   1.140   6.757  0.0298 -0.5021 -0.0099
   90MOL   C16828826   5.310   1.273   6.742 -0.1636 -0.5222 -0.2273
   90MOL   C16928827   5.393   1.334   6.840 -0.8087  0.1458 -0.0206
   90MOL   C17028828   5.495   1.454   7.110  0.2349  0.4983 -0.6913
   90MOL   H17128829   5.586   1.255   7.115 -2.3755 -1.0927  0.0414
   90MOL   H17228830   5.276   0.959   6.882  0.0474  0.5766  1.6140
   90MOL   H17328831   5.180   1.101   6.698  1.0369 -1.1372 -1.0407
   90MOL   H17428832   5.270   1.342   6.670 -1.1192  0.6193  1.3668
   90MOL   H17528833   5.407   1.440   6.829 -0.5268 -0.0991 -2.1904
   90MOL   H17628834   5.386   1.454   7.121  0.1117 -2.5730 -1.5330
   90MOL   H17728835   5.512   1.537   7.041  2.6970  1.2641  0.7827
   90MOL   C17828836   5.551   1.486   7.256  0.3844  0.1096 -0.0225
   90MOL   C17928837   5.521   1.376   7.354  0.0584 -0.0758 -0.5184
   90MOL   C18028838   5.619   1.300   7.427 -0.4522  0.6584 -1.2008
   90MOL  Cl18128839   5.786   1.319   7.381  0.3097 -0.2452  0.5108
   90MOL   C18228840   5.580   1.208   7.533  0.0422  0.3277  0.2433
   90MOL   C18328841   5.449   1.185   7.556  1.0595  0.1927 -0.3218
   90MOL   C18428842   5.350   1.248   7.478 -0.5444  0.1467  0.2637
   90MOL   C18528843   5.385   1.351   7.387 -0.1357  0.0230  0.1727
   90MOL   C18628844   5.501   1.619   7.307  0.1100 -0.1714  1.0739
   90MOL   H18728845   5.659   1.480   7.246  0.2343  0.9665 -2.6463
   90MOL   H18828846   5.652   1.157   7.596  3.3410  3.8581 -0.4601
   90MOL   H18928847   5.418   1.107   7.624  1.2617 -0.3601 -0.8553
   90MOL   H19028848   5.243   1.235   7.486 -0.2248 -2.3029  0.7684
   90MOL   H19128849   5.299   1.393   7.339  0.2431  0.9638  0.3121
   90MOL   H19228850   5.394   1.625   7.284  0.3965  1.7742  0.0664
   90MOL   H19328851   5.541   1.697   7.241  1.6352 -0.8717  1.1646
   90MOL   C19428852   5.527   1.675   7.443 -0.4538  0.3341  0.7680
   90MOL   C19528853   5.446   1.806   7.442 -0.6125 -0.2192  0.0831
   90MOL   C19628854   5.321   1.814   7.510  0.0163  0.0557 -0.1748
   90MOL  Cl19728855   5.252   1.677   7.595  0.2697  0.1226 -0.1018
   90MOL   C19828856   5.249   1.940   7.514  0.6689  0.1815 -0.0191
   90MOL   C19928857   5.301   2.047   7.439 -0.0892  0.4427 -0.3391
   90MOL   C20028858   5.419   2.034   7.362 -0.1989  0.7463 -0.5895
   90MOL   C20128859   5.496   1.919   7.368  0.4536  0.0124 -0.3351
   90MOL   C20228860   5.675   1.692   7.466 -1.3557 -0.4322 -0.6745
   90MOL   H20328861   5.488   1.599   7.511  2.7335 -1.1154  1.0341
   90MOL   H20428862   5.157   1.962   7.567  0.3004 -0.4588 -0.3877
   90MOL   H20528863   5.246   2.140   7.444  0.5723  0.7964  0.4449
   90MOL   H20628864   5.454   2.119   7.306  0.1850 -1.3987 -3.7086
   90MOL   H20728865   5.591   1.911   7.317  1.6543  0.3434  1.7816
   90MOL   H20828866   5.706   1.795   7.444  0.0335 -0.5652  0.5575
   90MOL   H20928867   5.726   1.647   7.381  0.2436 -0.1266  0.0841
   90MOL   C21028868   5.719   1.641   7.603  0.7313 -0.8233  0.9244
   90MOL   C21128869   5.651   1.719   7.722  0.4976 -0.5756  0.0616
   90MOL   C21228870   5.553   1.645   7.796 -0.1089 -0.8146  0.6201
   90MOL  Cl21328871   5.492   1.490   7.752  0.0793  0.2002 -0.1424
   90MOL   C21428872   5.496   1.714   7.902 -0.1080 -0.7032 -1.2531
   90MOL   C21528873   5.530   1.848   7.938  0.6245 -0.7233  0.6009
   90MOL   C21628874   5.631   1.912   7.868  0.3019 -0.0941  0.3063
   90MOL   C21728875   5.692   1.845   7.760 -0.0889  0.5753 -0.0235
   90MOL   C21828876   5.872   1.640   7.606  0.3869 -0.3262 -0.3985
   90MOL   H21928877   5.682   1.539   7.597 -1.5814  0.0583 -0.5453
   90MOL   H22028878   5.413   1.664   7.951 -0.9752  2.3817  0.5536
   90MOL   H22128879   5.472   1.888   8.020  2.4654  1.3557  0.9371
   90MOL   H22228880   5.668   2.012   7.890  1.8774 -0.1495 -1.9284
   90MOL   H22328881   5.779   1.895   7.720  1.6683 -1.0967  1.5886
   90MOL   H22428882   5.904   1.741   7.577 -0.6022  0.1961  0.2945
   90MOL   H22528883   5.904   1.576   7.524  5.9052  1.6636  0.0256
   90MOL   C22628884   5.925   1.606   7.747 -0.3981 -0.1626 -0.2269
   90MOL   C22728885   6.079   1.616   7.756 -1.2677  0.5361  0.3722
   90MOL   C22828886   6.146   1.707   7.846 -0.1020  0.0718  0.1869
   90MOL  Cl22928887   6.064   1.816   7.943 -0.1800 -0.2727 -0.3508
   90MOL   C23028888   6.292   1.704   7.860 -0.2887 -0.1013 -0.8445
   90MOL   C23128889   6.361   1.605   7.795  0.2630  0.5399 -0.0389
   90MOL   C23228890   6.301   1.519   7.705  0.1751  0.2627  0.0880
   90MOL   C23328891   6.159   1.521   7.687 -0.3586  0.8936 -0.4566
   90MOL   C23428892   5.875   1.463   7.780  1.1113 -0.0146  0.8549
   90MOL   H23528893   5.893   1.684   7.815 -0.0861  2.3314 -2.8454
   90MOL   H23628894   6.338   1.783   7.917 -2.3885 -1.4112  2.8463
   90MOL   H23728895   6.465   1.601   7.822  0.3604 -0.8705 -0.5745
   90MOL   H23828896   6.353   1.446   7.643 -0.7658 -1.3862  1.2086
   90MOL   H23928897   6.113   1.457   7.613 -1.4250  0.0362  0.9145
   90MOL   H24028898   5.912   1.377   7.724  1.1159 -0.9572  2.2846
   90MOL   H24128899   5.766   1.463   7.773  1.2012  0.9324 -0.8179
   90MOL   C24228900   5.893   1.431   7.926 -0.5758 -0.5194 -0.0620
   90MOL   C24328901   5.849   1.283   7.954 -0.1247 -0.0385  0.3927
   90MOL   C24428902   5.938   1.187   8.003  0.0867  0.5313 -0.4865
   90MOL  Cl24528903   6.097   1.222   8.047 -0.0188  0.2056 -0.2669
   90MOL   C24628904   5.887   1.058   8.027  0.1072  0.3563  0.0910
   90MOL   C24728905   5.753   1.022   7.994  0.5847  0.3057 -0.1634
   90MOL   C24828906   5.672   1.121   7.935 -0.1540 -0.1465 -0.5210
   90MOL   C24928907   5.716   1.252   7.917  0.3154 -0.2292  0.2090
   90MOL   C25028908   5.816   1.527   8.029  0.0649  0.1840 -0.3810
   90MOL   H25128909   5.998   1.451   7.947 -0.1376 -0.4157 -2.2092
   90MOL   H25228910   5.951   0.976   8.056  2.5101  2.1451 -0.0088
   90MOL   H25328911   5.721   0.920   8.010  0.8452  0.4115  1.0902
   90MOL   H25428912   5.571   1.098   7.904 -0.7017  0.9813  0.3827
   90MOL   H25528913   5.650   1.330   7.883 -0.8464 -0.7528  1.2353
   90MOL   H25628914   5.709   1.508   8.022 -0.0262 -0.0135  1.3985
   90MOL   H25728915   5.824   1.634   8.010 -0.1126 -0.0743 -1.9695
   90MOL   C25828916   5.852   1.514   8.172  0.4985 -0.0770  0.0622
   90MOL   C25928917   5.725   1.523   8.259  0.1645 -0.5935 -0.4508
   90MOL   C26028918   5.690   1.424   8.352  0.0201  0.5593  0.2767
   90MOL  Cl26128919   5.800   1.296   8.386 -0.1118  0.2387 -0.6545
   90MOL   C26228920   5.583   1.437   0.021  0.6866  0.4044 -0.0134
   90MOL   C26328921   5.492   1.543   0.007 -0.4468  0.5535 -0.1237
   90MOL   C26428922   5.520   1.646   8.329  0.2731 -0.5452 -0.4833
   90MOL   C26528923   5.632   1.631   8.242 -1.0116 -0.4471 -0.7436
   90MOL   C26628924   5.965   1.605   8.216 -0.2839 -0.0212 -0.4679
   90MOL   H26728925   5.890   1.413   8.181 -0.5142 -0.4396  0.3697
   90MOL   H26828926   5.563   1.368   0.101 -1.4171  3.4009  2.1510
   90MOL   H26928927   5.413   1.555   0.079  1.4903  2.0006  1.8576
   90MOL   H27028928   5.458   1.734   8.322  1.6455  0.5530  0.9245
   90MOL   H27128929   5.656   1.709   8.171 -0.3963  1.0011  1.0048
   90MOL   H27228930   5.918   1.701   8.233  2.2849  1.0350  0.9631
   90MOL   H27328931   6.030   1.624   8.130  0.8914 -2.9976 -0.3119
   90MOL   C27428932   6.043   1.577   8.345  0.4020  0.4866  0.8040
   90MOL   C27528933   6.128   1.700   8.391 -0.0332 -0.2205  0.0411
   90MOL   C27628934   6.060   1.810   0.036  0.2208 -0.0734 -0.1445
   90MOL  Cl27728935   5.890   1.812   0.059 -0.0489  0.1004 -0.3443
   90MOL   C27828936   6.127   1.928   0.061 -0.2803 -0.4954  0.6651
   90MOL   C27928937   6.260   1.946   0.024 -0.0307 -0.0361  0.1488
   90MOL   C28028938   6.334   1.839   8.382  0.4413 -0.3628  0.7839
   90MOL   C28128939   6.268   1.714   8.357  0.4473 -0.2874 -0.3185
   90MOL   C28228940   6.128   1.444   8.329 -0.1322  0.3808 -0.0034
   90MOL   H28328941   5.977   1.553   0.008  0.5705 -1.6082  0.3451
   90MOL   H28428942   6.082   2.008   0.117  1.7026 -0.1508  1.8425
   90MOL   H28528943   6.314   2.037   0.045  1.9701 -1.5550  1.9396
   90MOL   H28628944   6.438   1.862   8.362 -0.3262  1.1154 -1.7708
   90MOL   H28728945   6.322   1.632   8.313  0.1000  0.0907 -1.4553
   90MOL   H28828946   6.200   1.458   8.248 -0.4789  1.3587 -0.1483
   90MOL   H28928947   6.067   1.358   8.303 -0.4264  0.3099  0.8995
   90MOL   C29028948   6.205   1.402   0.033  0.1471 -0.1690  0.1980
   90MOL   C29128949   6.315   1.301   8.415 -0.0752 -0.2446  0.3138
   90MOL   C29228950   6.453   1.335   8.408 -0.2347  0.1789 -0.1046
   90MOL  Cl29328951   6.513   1.484   0.048 -0.2262  0.1772 -0.2328
   90MOL   C29428952   6.542   1.245   8.357  0.3722  0.1836  0.2799
   90MOL   C29528953   6.495   1.119   8.333  0.1402  0.8750  0.6369
   90MOL   C29628954   6.362   1.076   8.335 -0.0755  0.0620  0.3058
   90MOL   C29728955   6.265   1.178   8.371  0.3278  0.9942 -0.0086
   90MOL   C29828956   6.121   1.351   0.151  0.9164  0.1994 -0.3757
   90MOL   H29928957   6.262   1.490   0.064 -2.0827  1.1925  0.5337
   90MOL   H30028958   6.649   1.264   8.355  0.5775 -0.7354  2.1303
   90MOL   H30128959   6.570   1.042   8.320  0.7577  1.8390 -1.9240
   90MOL   H30228960   6.328   0.975   8.316  1.1296 -0.1108 -0.9938
   90MOL   H30328961   6.167   1.140   8.394  0.7213 -0.1220 -0.1854
   90MOL   H30428962   6.164   1.258   0.189 -0.3415 -0.7089 -1.1189
   90MOL   H30528963   6.018   1.318   0.135  0.8890 -0.1518  0.4873
   90MOL   C30628964   6.127   1.441   0.271 -0.3972 -0.2326 -0.1662
   90MOL   C30728965   6.269   1.481   0.313  0.1521 -0.4885 -0.1642
   90MOL   C30828966   6.366   1.390   0.369  0.0147  0.1412 -0.2752
   90MOL  Cl30928967   6.346   1.223   0.385  0.1384  0.2105 -0.0918
   90MOL   C31028968   6.494   1.444   0.404  0.0619 -0.4268  0.4011
   90MOL   C31128969   6.522   1.583   0.395  0.1422  0.5292  1.4498
   90MOL   C31228970   6.425   1.671   0.348  0.1567  0.2628 -0.3219
   90MOL   C31328971   6.300   1.620   0.303 -0.2471  0.0662  0.4978
   90MOL   C31428972   6.032   1.383   0.381 -0.1230 -0.4924 -0.2650
   90MOL   H31528973   6.075   1.535   0.252 -1.3847 -0.7593 -0.0714
   90MOL   H31628974   6.572   1.380   0.444  1.3181  0.7098 -0.1985
   90MOL   H31728975   6.625   1.607   0.418  0.3096 -0.3885  1.6977
   90MOL   H31828976   6.436   1.778   0.339 -1.5873  0.5755  0.8349
   90MOL   H31928977   6.238   1.691   0.251  0.8852  2.9535  2.9514
   90MOL   H32028978   5.931   1.379   0.341 -0.4333 -0.0779  0.4504
   90MOL   H32128979   6.033   1.449   0.468  0.1025  1.5634 -1.7889
   90MOL   H32228980   6.063   1.285   0.416  1.0665 -0.0117  0.0316
   91MOL     C128981   8.142   4.232   4.607  0.2484 -0.2763 -0.4464
   91MOL     C228982   8.238   4.128   4.657 -0.3448  0.4807  0.4580
   91MOL     C328983   8.225   3.985   4.649  0.3617  0.0537  0.0134
   91MOL    Cl428984   8.075   3.927   4.587 -0.0802  0.2820  0.5140
   91MOL     C528985   8.335   3.900   4.680  0.3314  0.2894  0.6750
   91MOL     C628986   0.037   3.958   4.722 -0.0141  0.0575  0.2664
   91MOL     C728987   0.048   4.097   4.727 -0.0556  0.1614 -0.2534
   91MOL     C828988   8.361   4.178   4.700  0.5599  0.1928 -0.0258
   91MOL     C928989   8.166   4.271   4.464  0.4864 -0.2563  0.1341
   91MOL    H1028990   8.040   4.195   4.608  0.4312 -0.7905 -0.8412
   91MOL    H1128991   8.332   3.792   4.680 -0.9296  0.3117 -0.0037
   91MOL    H1228992   0.123   3.898   4.750  1.5161  1.9007 -0.3280
   91MOL    H1328993   0.141   4.144   4.755 -0.0505 -1.0865  1.9294
   91MOL    H1428994   8.377   4.285   4.703 -1.1716  0.5200 -1.8375
   91MOL    H1528995   8.207   4.187   4.407  0.0137  1.7735 -3.3466
   91MOL    H1628996   8.249   4.342   4.460  0.8515 -0.7236 -0.7852
   91MOL    H1728997   8.150   4.319   4.672  0.1636 -1.4535  1.1713
   91MOL    C1828998   8.048   4.313   4.381 -0.4574 -0.2343  0.1325
   91MOL    C1928999   7.943   4.204   4.378  0.3455  0.1343  0.3476
   91MOL    C2029000   7.830   4.210   4.464 -0.4156 -0.2240 -0.2632
   91MOL   Cl2129001   7.810   4.350   4.566 -0.0597  0.2166 -0.1758
   91MOL    C2229002   7.737   4.111   4.476 -0.0889  0.1846  0.0927
   91MOL    C2329003   7.755   3.995   4.387  0.2264  0.3120 -0.4818
   91MOL    C2429004   7.870   3.979   4.307  0.0091  0.2237  0.6476
   91MOL    C2529005   7.964   4.084   4.299 -0.2045  0.5470 -0.1615
   91MOL    C2629006   8.100   4.367   4.245 -0.2614 -1.0121 -0.2363
   91MOL    H2729007   8.015   4.403   4.433  2.3802  0.1018  1.4466
   91MOL    H2829008   7.655   4.120   4.546  0.6754  2.1386  0.7784
   91MOL    H2929009   7.679   3.919   4.398  0.0759  0.6346  0.7255
   91MOL    H3029010   7.884   3.892   4.244  1.5091  0.3574  0.7941
   91MOL    H3129011   8.041   4.068   4.226 -1.1605 -2.9711 -0.4872
   91MOL    H3229012   8.151   4.298   4.179  0.4194 -0.6136 -0.1321
   91MOL    H3329013   8.188   4.428   4.265 -0.6622 -0.3596 -0.4364
   91MOL    C3429014   7.997   4.442   4.156 -0.0559 -0.8159  1.0179
   91MOL    C3529015   7.868   4.368   4.112 -0.0777 -0.1453  0.0021
   91MOL    C3629016   7.741   4.398   4.165  0.0958  0.4425  0.5736
   91MOL   Cl3729017   7.722   4.524   4.292  0.2789  0.0921  0.1632
   91MOL    C3829018   7.624   4.331   4.121 -0.1899  0.9029 -0.1321
   91MOL    C3929019   7.641   4.228   4.026 -0.1977  0.1530 -0.2290
   91MOL    C4029020   7.769   4.189   3.983  0.4456 -0.1756  0.2829
   91MOL    C4129021   7.876   4.260   4.027  0.5086  0.1935 -0.1821
   91MOL    C4229022   8.065   4.498   4.032  0.4112 -0.7110 -0.6713
   91MOL    H4329023   7.973   4.527   4.220  2.4958 -2.0074  3.6846
   91MOL    H4429024   7.530   4.348   4.171 -0.1025 -0.7148  0.6377
   91MOL    H4529025   7.561   4.168   3.983  1.3052 -1.6781 -0.5414
   91MOL    H4629026   7.783   4.109   3.913  0.5210  1.3820 -1.5366
   91MOL    H4729027   7.973   4.227   3.993  1.4987 -0.5900  3.1761
   91MOL    H4829028   7.985   4.534   3.967 -0.1091  0.6953  0.7186
   91MOL    H4929029   8.118   4.416   3.983  1.1522 -0.9964  0.5722
   91MOL    C5029030   8.170   4.613   4.048  0.0009  0.1432 -0.5479
   91MOL    C5129031   8.104   4.738   4.108 -0.2961 -0.6056  0.3637
   91MOL    C5229032   8.131   4.788   4.239 -0.5925 -0.2367 -0.2896
   91MOL   Cl5329033   8.239   4.708   4.346  0.0150 -0.3759 -0.6027
   91MOL    C5429034   8.072   4.903   4.295  0.1658 -0.1357  0.1381
   91MOL    C5529035   7.974   4.967   4.218  0.5288 -0.9605 -0.5977
   91MOL    C5629036   7.941   4.918   4.093  0.3424 -0.5934  1.0882
   91MOL    C5729037   7.999   4.803   4.043 -0.1681 -0.1233  0.3516
   91MOL    C5829038   8.236   4.666   3.916 -0.2834  0.3209  0.6371
   91MOL    H5929039   8.251   4.582   4.114  0.5743 -1.8306 -2.1202
   91MOL    H6029040   8.103   4.936   4.393 -1.2191  0.4432  0.3902
   91MOL    H6129041   7.925   5.053   4.259  0.9799 -0.8189 -0.3590
   91MOL    H6229042   7.874   4.979   4.035  4.0964  0.4873 -2.3326
   91MOL    H6329043   7.954   4.757   3.956 -0.0361 -1.4375  0.9708
   91MOL    H6429044   8.291   4.757   3.943  0.0438  1.1633 -2.6884
   91MOL    H6529045   8.156   4.689   3.846 -0.6506  1.0807  1.3008
   91MOL    C6629046   8.336   4.568   3.856  0.3828 -0.0658  0.1008
   91MOL    C6729047   0.041   4.541   3.932  0.6005 -0.5366 -0.6221
   91MOL    C6829048   0.060   4.419   3.999 -0.3345 -0.2648  0.9070
   91MOL   Cl6929049   8.375   4.281   3.995  0.1991 -0.2471 -0.1226
   91MOL    C7029050   0.179   4.411   4.074 -0.8694  0.4948  0.1889
   91MOL    C7129051   0.269   4.517   4.090 -0.3440  0.8020  0.6833
   91MOL    C7229052   0.249   4.635   4.027  0.2031  0.2954 -0.0911
   91MOL    C7329053   0.127   4.650   3.956  0.9117  0.8692 -0.4047
   91MOL    C7429054   8.361   4.604   3.701 -0.4086  0.6240 -0.5150
   91MOL    H7529055   8.288   4.472   3.839 -2.8478  1.2322  1.5745
   91MOL    H7629056   0.196   4.329   4.141 -0.5074 -0.1665 -0.6953
   91MOL    H7729057   0.357   4.493   4.149  0.1742 -1.4393 -0.9493
   91MOL    H7829058   0.327   4.710   4.029  1.1944 -0.7254 -0.1003
   91MOL    H7929059   0.111   4.740   3.898 -0.6987  1.5733  1.0853
   91MOL    H8029060   0.041   4.566   3.679  1.2412  1.9150  4.0982
   91MOL    H8129061   8.368   4.712   3.690 -0.8825  0.5040 -2.0813
   91MOL    C8229062   8.251   4.540   3.609  0.3574 -0.7904  0.0899
   91MOL    C8329063   8.276   4.390   3.595 -0.6370 -0.0206 -0.4953
   91MOL    C8429064   8.177   4.292   3.627 -0.6306 -0.0172  0.6339
   91MOL   Cl8529065   8.015   4.326   3.680  0.1408 -0.3974 -0.0878
   91MOL    C8629066   8.206   4.153   3.623  0.7814  0.3835 -0.2655
   91MOL    C8729067   8.334   4.108   3.588 -0.6810 -0.4479  0.3311
   91MOL    C8829068   0.016   4.204   3.565 -0.3224  0.6212  0.6077
   91MOL    C8929069   8.405   4.342   3.563  0.4850  0.3506  0.4071
   91MOL    C9029070   8.233   4.620   3.480 -0.1748 -0.4877 -0.1209
   91MOL    H9129071   8.153   4.560   3.652 -0.4274  1.3123 -2.5171
   91MOL    H9229072   8.128   4.086   3.653  0.1887  0.9232 -0.5867
   91MOL    H9329073   8.344   4.001   3.576 -1.6185 -0.7760  2.2552
   91MOL    H9429074   0.114   4.174   3.532 -0.9307  0.2434 -0.8813
   91MOL    H9529075   0.066   4.410   3.543 -0.5931  1.1284 -1.4478
   91MOL    H9629076   8.180   4.711   3.512  0.7847 -0.1412  0.4919
   91MOL    H9729077   8.157   4.563   3.427 -1.0506  1.0870 -0.6092
   91MOL    C9829078   8.354   4.645   3.390 -0.2101 -0.0986  0.5982
   91MOL    C9929079   0.035   4.750   3.434  0.3952  0.1949  0.2034
   91MOL   C10029080   0.171   4.725   3.431 -0.0964 -0.3586  0.1042
   91MOL  Cl10129081   0.236   4.568   3.383  0.4282  0.0731  0.2789
   91MOL   C10229082   0.261   4.821   3.472 -0.1484 -0.3550 -0.3493
   91MOL   C10329083   0.213   4.949   3.507  0.4003  0.0582  0.0170
   91MOL   C10429084   0.074   4.978   3.512 -0.7327  0.2225 -0.5123
   91MOL   C10529085   8.407   4.871   3.480 -0.0340  0.7557  0.0353
   91MOL   C10629086   8.313   4.685   3.244  0.1051  0.3119 -0.5317
   91MOL   H10729087   8.407   4.549   3.385  0.9662  0.6014 -0.6541
   91MOL   H10829088   0.369   4.811   3.471 -0.0308  0.2521  2.0488
   91MOL   H10929089   0.293   5.019   3.529  2.1600 -1.3040 -1.8299
   91MOL   H11029090   0.044   5.078   3.539 -0.6832  0.0493  0.2088
   91MOL   H11129091   8.300   4.881   3.494 -0.4167 -1.3672 -1.2648
   91MOL   H11229092   8.376   4.760   3.197  0.3752  1.5255  1.6932
   91MOL   H11329093   8.213   4.729   3.246  0.1697  0.4630 -0.6899
   91MOL   C11429094   8.295   4.571   3.141 -0.3778 -0.7742  0.0258
   91MOL   C11529095   0.008   4.505   3.107  0.0792 -0.0146 -0.1860
   91MOL   C11629096   0.031   4.365   3.138 -0.9256  0.1414  0.0677
   91MOL  Cl11729097   8.336   4.269   3.219  0.1060 -0.1012 -0.1621
   91MOL   C11829098   0.150   4.296   3.088  0.6063 -0.0389  1.1951
   91MOL   C11929099   0.245   4.366   3.019  0.5335 -0.4598 -0.7688
   91MOL   C12029100   0.224   4.502   3.002  0.1168  0.1310  0.8200
   91MOL   C12129101   0.112   4.574   3.044  0.5637  0.1410 -0.1876
   91MOL   C12229102   8.220   4.621   3.016  0.7896  0.1525  0.1131
   91MOL   H12329103   8.227   4.496   3.181 -0.1668 -0.7947  0.3505
   91MOL   H12429104   0.174   4.193   3.110  1.3967 -0.4669 -1.5686
   91MOL   H12529105   0.339   4.322   2.988  1.0380  0.1231 -0.0999
   91MOL   H12629106   0.299   4.558   2.948 -0.4820 -0.9202 -1.1587
   91MOL   H12729107   0.102   4.678   3.015 -1.5435  0.2797  0.9507
   91MOL   H12829108   8.283   4.701   2.977  0.8755 -0.6270 -1.3549
   91MOL   H12929109   8.124   4.667   3.040  0.4638 -0.8083  0.6830
   91MOL   C13029110   8.211   4.519   2.903  0.3628 -0.5119  0.0352
   91MOL   C13129111   8.193   4.589   2.767 -0.0114 -0.1177  0.1216
   91MOL   C13229112   8.269   4.539   2.652  0.6809 -0.9026 -0.6713
   91MOL  Cl13329113   8.399   4.429   2.672 -0.0344  0.0644  0.0277
   91MOL   C13429114   8.244   4.593   2.523 -0.0018  0.4893  0.0589
   91MOL   C13529115   8.153   4.697   2.507  0.3135  0.7788  0.2645
   91MOL   C13629116   8.072   4.736   2.611 -0.1801  0.6385  0.6886
   91MOL   C13729117   8.095   4.686   2.744  0.0518 -0.3630  0.3784
   91MOL   C13829118   8.097   4.419   2.934  0.2358  0.1993  0.2333
   91MOL   H13929119   8.303   4.461   2.895 -0.0878 -0.8945 -3.3923
   91MOL   H14029120   8.316   4.567   2.447  0.1450  0.8551  0.0729
   91MOL   H14129121   8.149   4.749   2.413  0.1327  2.1005  0.9985
   91MOL   H14229122   7.995   4.810   2.593 -1.4905 -1.4915 -3.0026
   91MOL   H14329123   8.046   4.722   2.833 -0.5933  1.2256 -0.5925
   91MOL   H14429124   7.997   4.462   2.944 -0.1536 -0.8024  0.7263
   91MOL   H14529125   8.117   4.377   3.032 -1.4060  1.3673  1.0828
   91MOL   C14629126   8.081   4.299   2.838  0.3374 -0.5490  0.0957
   91MOL   C14729127   7.935   4.258   2.805  0.4243  0.1087 -0.0621
   91MOL   C14829128   7.871   4.318   2.694 -0.0770 -0.0451 -0.6077
   91MOL  Cl14929129   7.951   4.428   2.587 -0.0561 -0.0285  0.3957
   91MOL   C15029130   7.736   4.283   2.668 -0.6120 -0.0239  0.2690
   91MOL   C15129131   7.675   4.187   2.747  0.2811  0.3389 -0.4378
   91MOL   C15229132   7.737   4.122   2.856 -0.2996  0.4014 -0.5527
   91MOL   C15329133   7.867   4.168   2.881  0.0003 -0.3347 -0.1426
   91MOL   C15429134   8.167   4.178   2.886 -0.3031  0.2150  0.0745
   91MOL   H15529135   8.128   4.331   2.745 -2.9979 -0.8690 -1.7853
   91MOL   H15629136   7.686   4.323   2.581 -0.2981 -0.4872 -0.1312
   91MOL   H15729137   7.573   4.158   2.729 -0.5653  2.3295  0.9435
   91MOL   H15829138   7.696   4.043   2.917 -0.1655  0.1897 -0.7371
   91MOL   H15929139   7.919   4.128   2.967  2.6713  1.0966 -1.0155
   91MOL   H16029140   8.137   4.165   2.990 -0.3993  0.4675  0.0806
   91MOL   H16129141   8.273   4.204   2.890 -0.2534 -0.1392  1.6203
   91MOL   C16229142   8.149   4.041   2.805  0.2013  0.0163 -0.3753
   91MOL   C16329143   8.224   3.935   2.879 -1.3047 -0.2887 -0.1526
   91MOL   C16429144   8.171   3.854   2.981  0.4059 -0.1168  0.3876
   91MOL  Cl16529145   7.996   3.852   3.004  0.3775 -0.1656 -0.1541
   91MOL   C16629146   8.256   3.766   3.053  0.0949 -0.4294  0.2286
   91MOL   C16729147   8.395   3.770   3.032  0.0219 -0.2632 -0.6452
   91MOL   C16829148   0.030   3.851   2.932 -0.0289  0.1593  0.5578
   91MOL   C16929149   8.364   3.937   2.864  0.3676 -0.2139 -0.2405
   91MOL   C17029150   8.190   4.055   2.656  0.3187 -1.0078 -0.7003
   91MOL   H17129151   8.045   4.009   2.813 -0.1138  1.5285  2.1709
   91MOL   H17229152   8.206   3.702   3.124 -3.4285 -0.0780 -1.8095
   91MOL   H17329153   0.037   3.700   3.087  1.2371  0.8856 -0.5454
   91MOL   H17429154   0.133   3.867   2.904  0.7889 -0.7708  2.9223
   91MOL   H17529155   8.415   4.012   2.804  2.6186 -0.1454  1.6719
   91MOL   H17629156   8.289   4.101   2.655 -0.0375 -0.2041 -2.7766
   91MOL   H17729157   8.118   4.124   2.612  2.2986  0.9442 -0.9644
   91MOL   C17829158   8.191   3.933   2.562  0.0961  0.0305  0.2938
   91MOL   C17929159   8.211   3.982   2.418  0.2493  0.0217  0.3189
   91MOL   C18029160   8.325   3.946   2.336  0.8665 -0.5400 -0.0778
   91MOL  Cl18129161   0.031   3.847   2.403 -0.4584 -0.0037  0.2599
   91MOL   C18229162   8.329   3.977   2.199 -0.4577 -0.1667  0.9049
   91MOL   C18329163   8.220   4.045   2.143  0.6092 -0.6059 -0.1643
   91MOL   C18429164   8.110   4.085   2.220 -0.4464 -0.7361  0.3153
   91MOL   C18529165   8.103   4.051   2.354 -0.3438 -0.1004 -0.0264
   91MOL   C18629166   8.074   3.844   2.580 -0.6208 -0.5963  0.1156
   91MOL   H18729167   8.272   3.868   2.596 -1.6723 -2.3361  0.1185
   91MOL   H18829168   8.398   3.925   2.133 -2.1732  1.1294 -2.0214
   91MOL   H18929169   8.219   4.061   2.036 -1.9273 -0.8891 -0.2190
   91MOL   H19029170   8.030   4.146   2.179 -0.2873 -0.1855  0.8193
   91MOL   H19129171   8.013   4.071   2.411 -1.8035 -4.1317 -0.7427
   91MOL   H19229172   7.987   3.909   2.587  0.8404  1.2965  1.2880
   91MOL   H19329173   8.084   3.792   2.674 -1.8509  1.2061  1.2699
   91MOL   C19429174   8.046   3.746   2.469 -0.4222 -0.1479 -0.3350
   91MOL   C19529175   7.917   3.665   2.499 -0.0046  0.3575 -0.8283
   91MOL   C19629176   7.798   3.690   2.427 -0.4529 -0.0971  1.0510
   91MOL  Cl19729177   7.794   3.829   2.321  0.4367  0.2676 -0.5352
   91MOL   C19829178   7.681   3.622   2.440  0.3057  0.2182 -0.4412
   91MOL   C19929179   7.674   3.522   2.539  0.2433  0.1587  0.7037
   91MOL   C20029180   7.787   3.482   2.611  0.2966  0.1515 -0.1426
   91MOL   C20129181   7.909   3.558   2.588  0.7019 -0.4126  0.0368
   91MOL   C20229182   8.156   3.639   2.460  0.2454 -0.0427  0.2805
   91MOL   H20329183   8.038   3.797   2.373  0.2976  3.2344  1.3495
   91MOL   H20429184   7.594   3.638   2.378 -0.4580 -2.1027 -0.0040
   91MOL   H20529185   7.588   3.460   2.561 -0.6859  1.3960  0.6527
   91MOL   H20629186   7.793   3.401   2.683  0.1901  0.4837  0.2399
   91MOL   H20729187   7.994   3.530   2.648  0.5681 -1.2715 -0.1657
   91MOL   H20829188   8.169   3.584   2.553 -0.2091 -0.0533  0.3349
   91MOL   H20929189   8.259   3.677   2.458  0.2139  0.1406  1.6997
   91MOL   C21029190   8.155   3.539   2.344 -0.4033 -0.3965  0.9299
   91MOL   C21129191   8.248   3.421   2.398 -0.5317 -0.5509 -0.2690
   91MOL   C21229192   8.203   3.291   2.441 -0.0572  0.6074  0.1651
   91MOL  Cl21329193   8.031   3.253   2.453 -0.3642  0.4140 -0.2794
   91MOL   C21429194   8.291   3.182   2.466  0.2060  0.4526  0.1493
   91MOL   C21529195   0.009   3.208   2.463 -0.3374  0.4574  0.1925
   91MOL   C21629196   0.059   3.334   2.415 -0.2457 -0.3128 -0.1242
   91MOL   C21729197   8.384   3.434   2.383  0.2440 -0.4753 -0.1787
   91MOL   C21829198   8.190   3.593   2.206 -0.2382 -0.0738  0.1362
   91MOL   H21929199   8.051   3.510   2.333  0.1442 -2.3074  0.4623
   91MOL   H22029200   8.254   3.086   2.500  0.5291  0.5798  0.8628
   91MOL   H22129201   0.076   3.132   2.501 -1.0579  1.0814  2.8362
   91MOL   H22229202   0.164   3.351   2.399 -0.8034  1.2387 -2.3212
   91MOL   H22329203   0.012   3.524   2.346 -0.5520 -0.1586 -0.4513
   91MOL   H22429204   8.281   3.652   2.221  0.4115 -0.4774 -2.0235
   91MOL   H22529205   8.119   3.670   2.176 -0.0100  0.5735  1.2422
   91MOL   C22629206   8.209   3.499   2.085  0.3108 -0.3086 -1.0688
   91MOL   C22729207   8.290   3.570   1.976 -0.4895  0.3245 -0.1541
   91MOL   C22829208   8.403   3.506   1.916 -0.1831 -0.0531  0.2924
   91MOL  Cl22929209   0.036   3.342   1.952 -0.1535 -0.1695 -0.5741
   91MOL   C23029210   0.047   3.569   1.804  0.6882  0.1016 -0.3538
   91MOL   C23129211   8.417   3.688   1.750 -0.2065 -0.5669  0.4820
   91MOL   C23229212   8.309   3.752   1.814  0.6954 -0.3284 -0.2451
   91MOL   C23329213   8.248   3.695   1.924  0.1084  0.3815 -0.3856
   91MOL   C23429214   8.074   3.434   2.038  0.9435 -0.1798 -0.1277
   91MOL   H23529215   8.263   3.412   2.123  2.9372  1.0108 -1.7138
   91MOL   H23629216   0.120   3.512   1.749  0.7802 -0.3107  0.1879
   91MOL   H23729217   0.041   3.723   1.658 -1.8321  3.5691  1.1451
   91MOL   H23829218   8.276   3.851   1.784 -1.8671 -1.5994 -1.8273
   91MOL   H23929219   8.163   3.744   1.970  0.8534  0.3953  1.0080
   91MOL   H24029220   8.005   3.507   1.997  0.8738 -0.0003  0.3096
   91MOL   H24129221   8.017   3.406   2.126  2.8035 -1.0313  0.8597
   91MOL   C24229222   8.095   3.306   1.957 -0.9210  0.5105 -0.4769
   91MOL   C24329223   7.973   3.282   1.873  0.0827 -0.6082  0.1982
   91MOL   C24429224   7.985   3.285   1.730 -0.4117 -0.0685 -0.4860
   91MOL  Cl24529225   8.134   3.327   1.651 -0.1642 -0.2435  0.0877
   91MOL   C24629226   7.875   3.254   1.647 -0.2408 -0.2128 -0.3872
   91MOL   C24729227   7.750   3.239   1.702 -0.0829  0.2117 -0.2809
   91MOL   C24829228   7.734   3.233   1.840  0.0384 -1.0995 -0.6236
   91MOL   C24929229   7.841   3.254   1.923 -0.8583  0.0450 -0.0398
   91MOL   C25029230   8.125   3.189   2.060 -0.4809  0.0643  0.0625
   91MOL   H25129231   8.181   3.329   1.895 -1.5674 -1.6507 -2.2618
   91MOL   H25229232   7.884   3.260   1.540  0.5124  1.9384 -0.2205
   91MOL   H25329233   7.667   3.229   1.633  1.7688  1.4802 -2.7593
   91MOL   H25429234   7.637   3.228   1.887  0.3084 -0.2709  0.0173
   91MOL   H25529235   7.819   3.260   2.029 -1.1365 -1.1366 -0.0329
   91MOL   H25629236   8.056   3.190   2.144 -0.0548  0.7123  0.4030
   91MOL   H25729237   8.221   3.196   2.110  1.0936  0.9274 -2.9355
   91MOL   C25829238   8.121   3.049   1.987 -0.3743  0.2638  0.1969
   91MOL   C25929239   8.112   2.941   2.096  0.5321  0.1075 -0.0903
   91MOL   C26029240   8.016   2.838   2.097  0.0447 -0.1350  0.3000
   91MOL  Cl26129241   7.882   2.842   1.978 -0.5811 -0.3262  0.1706
   91MOL   C26229242   8.009   2.741   2.200  0.7354  0.7504 -0.2522
   91MOL   C26329243   8.107   2.736   2.303  0.3082  0.1457 -0.1246
   91MOL   C26429244   8.211   2.837   2.302 -0.3250 -0.5738 -0.2570
   91MOL   C26529245   8.209   2.932   2.201  0.2835 -0.3346 -0.2254
   91MOL   C26629246   8.239   3.031   1.889  0.3958 -0.8650  1.2587
   91MOL   H26729247   8.031   3.053   1.926 -0.3219  2.1807  0.2153
   91MOL   H26829248   7.919   2.682   2.193 -0.5087  2.6836 -1.0233
   91MOL   H26929249   8.101   2.663   2.381 -1.1750  1.7554  1.3144
   91MOL   H27029250   8.275   2.837   2.389 -0.8961 -0.7536  0.1642
   91MOL   H27129251   8.284   3.010   2.198  0.2486 -0.3017 -0.2359
   91MOL   H27229252   8.328   3.009   1.948  0.3857 -2.0301  0.8553
   91MOL   H27329253   8.254   3.126   1.838 -2.3783 -0.0916  1.8172
   91MOL   C27429254   8.226   2.919   1.785  0.7383 -0.1430  0.2825
   91MOL   C27529255   8.358   2.848   1.746 -0.4191  0.1109  0.0363
   91MOL   C27629256   0.029   2.905   1.653 -0.3436 -0.4997  0.5047
   91MOL  Cl27729257   0.010   3.073   1.613 -0.0887 -0.2196 -0.4641
   91MOL   C27829258   0.134   2.828   1.597 -0.1741  0.1394  0.0018
   91MOL   C27929259   0.149   2.689   1.627 -0.6063 -0.3866 -0.1819
   91MOL   C28029260   0.054   2.632   1.718 -0.0098 -0.2380 -0.0395
   91MOL   C28129261   8.375   2.712   1.782  0.3395 -0.1837 -0.0227
   91MOL   C28229262   8.129   2.962   1.668 -0.0144  0.0956  0.0734
   91MOL   H28329263   8.173   2.846   1.847  0.5791  0.9297  1.4148
   91MOL   H28429264   0.201   2.881   1.531 -0.5640 -0.4553 -0.8825
   91MOL   H28529265   0.221   2.623   1.582  0.0131  0.6870 -0.7900
   91MOL   H28629266   0.062   2.526   1.736  1.6107 -0.2617 -0.8099
   91MOL   H28729267   8.315   2.678   1.865  0.2890  0.0184  0.0232
   91MOL   H28829268   8.186   3.021   1.596  2.9902 -1.6005  0.9965
   91MOL   H28929269   8.064   3.039   1.709  1.7535  0.5817  2.0056
   91MOL   C29029270   8.039   2.852   1.602  0.1707 -0.7547 -0.6091
   91MOL   C29129271   8.126   2.742   1.536  0.2808 -0.6836  0.3651
   91MOL   C29229272   8.126   2.610   1.589 -0.1157 -0.9280  0.4864
   91MOL  Cl29329273   8.028   2.557   1.719  0.0933 -0.2429 -0.1198
   91MOL   C29429274   8.218   2.520   1.534  0.1655 -0.2019 -0.1110
   91MOL   C29529275   8.288   2.545   1.421  0.2650  0.5339 -0.3534
   91MOL   C29629276   8.282   2.672   1.360 -0.1916  0.4157  0.5388
   91MOL   C29729277   8.208   2.773   1.425  0.0612  0.5698 -0.0772
   91MOL   C29829278   7.956   2.922   1.502  0.6393 -0.0562  0.4991
   91MOL   H29929279   7.970   2.814   1.678 -0.3066 -1.8010 -1.5475
   91MOL   H30029280   8.224   2.420   1.575 -0.6486  0.1954  0.9761
   91MOL   H30129281   8.359   2.473   1.382 -0.5228  0.3488 -1.4501
   91MOL   H30229282   8.330   2.706   1.269  0.2660  1.9210  1.3323
   91MOL   H30329283   8.212   2.873   1.382  2.5292  0.3556 -0.4267
   91MOL   H30429284   8.020   2.981   1.437  1.3844 -0.7801  0.5585
   91MOL   H30529285   7.907   3.003   1.555  1.0074  0.3041  0.2889
   91MOL   C30629286   7.860   2.854   1.407 -0.2827  0.3891  0.1828
   91MOL   C30729287   7.797   2.963   1.317 -0.2020  0.1509 -0.4619
   91MOL   C30829288   7.858   3.003   1.194 -0.4285 -0.7736  0.2478
   91MOL  Cl30929289   7.992   2.916   1.114 -0.3170 -0.1841  0.0178
   91MOL   C31029290   7.808   3.114   1.121  0.1914 -0.0814 -0.1724
   91MOL   C31129291   7.699   3.189   1.175 -0.9403  0.1497  0.2813
   91MOL   C31229292   7.635   3.144   1.290 -0.1506  0.0199  0.0805
   91MOL   C31329293   7.685   3.036   1.366  0.1106 -0.5977  0.1152
   91MOL   C31429294   7.761   2.759   1.472  0.1694  0.0426  0.3640
   91MOL   H31529295   7.915   2.793   1.336  2.8874  5.0721 -1.6245
   91MOL   H31629296   7.857   3.158   1.036 -1.8619  0.7982 -0.9364
   91MOL   H31729297   7.676   3.284   1.128 -0.0983  1.2045  1.9472
   91MOL   H31829298   7.552   3.200   1.330 -2.1203 -2.3764 -0.5219
   91MOL   H31929299   7.634   3.017   1.459 -0.6416  2.7757  0.4739
   91MOL   H32029300   7.707   2.716   1.388 -1.3853  2.7175 -0.0979
   91MOL   H32129301   7.688   2.807   1.538  0.7790  0.4366  0.7604
   91MOL   H32229302   7.798   2.674   1.529 -2.0209 -1.9183 -1.0252
   92MOL     C129303   4.848   2.448   0.300 -0.3007 -0.7509  0.8936
   92MOL     C229304   4.885   2.328   0.210 -0.4613 -0.2082 -0.4985
   92MOL     C329305   4.968   2.226   0.250  0.1626  0.0525 -0.0523
   92MOL    Cl429306   5.054   2.232   0.401  0.0156  0.1988  0.0675
   92MOL     C529307   4.984   2.110   0.179  0.3712 -0.1891 -0.3529
   92MOL     C629308   4.931   2.097   0.046  0.1567  0.2060 -0.1689
   92MOL     C729309   4.852   2.202   0.001  0.2317 -0.5802  0.0395
   92MOL     C829310   4.819   2.314   0.085  0.4679 -0.2928 -0.1863
   92MOL     C929311   4.721   2.424   0.373  0.0921 -0.9295 -0.5862
   92MOL    H1029312   4.925   2.474   0.371 -0.0009  2.2548 -0.4793
   92MOL    H1129313   5.064   2.043   0.207  0.1399  0.0594  0.9192
   92MOL    H1229314   4.956   2.010   8.407 -0.5488 -0.7983  0.9765
   92MOL    H1329315   4.832   2.191   8.316 -1.1908 -0.7053  0.3036
   92MOL    H1429316   4.752   2.384   0.036  2.4047  2.4585  0.9661
   92MOL    H1529317   4.723   2.326   0.420  0.0383  0.3280  2.1360
   92MOL    H1629318   4.636   2.436   0.305 -0.4019 -1.1575 -0.0146
   92MOL    H1729319   4.835   2.526   0.226 -0.2679 -1.0624  0.5557
   92MOL    C1829320   4.706   2.520   0.494 -0.4721  0.3180 -0.2120
   92MOL    C1929321   4.611   2.452   0.591 -0.1530 -0.1880 -0.1048
   92MOL    C2029322   4.639   2.455   0.731 -0.7083 -0.2434 -0.5386
   92MOL   Cl2129323   4.781   2.517   0.810 -0.0053  0.7687 -0.0517
   92MOL    C2229324   4.532   2.410   0.815 -0.6419 -1.0560  0.1106
   92MOL    C2329325   4.421   2.336   0.760 -0.3866  0.1850  0.0684
   92MOL    C2429326   4.411   2.315   0.622 -0.5257  0.0495  0.3942
   92MOL    C2529327   4.497   2.384   0.538  0.8756 -0.2839  0.2446
   92MOL    C2629328   4.662   2.660   0.449  0.0995  0.5478  0.4743
   92MOL    H2729329   4.802   2.529   0.545 -0.0618  0.1884 -0.9467
   92MOL    H2829330   4.540   2.413   0.922  0.0001 -2.6006  0.1294
   92MOL    H2929331   4.352   2.289   0.829 -0.5566 -0.7908 -0.7654
   92MOL    H3029332   4.333   2.256   0.577  0.1343 -1.2949  0.9972
   92MOL    H3129333   4.482   2.395   0.432  1.5708  2.7798  0.4005
   92MOL    H3229334   4.566   2.649   0.399  0.6920  3.8773 -1.5617
   92MOL    H3329335   4.724   2.691   0.365  1.5238  0.8631  1.6290
   92MOL    C3429336   4.662   2.785   0.546  0.3791  0.2741 -0.0141
   92MOL    C3529337   4.564   2.769   0.661 -0.7420  0.1939 -0.7858
   92MOL    C3629338   4.603   2.799   0.800 -0.6072 -0.3694  0.2097
   92MOL   Cl3729339   4.765   2.856   0.838 -0.0056  0.0145 -0.0807
   92MOL    C3829340   4.513   2.781   0.903 -0.4323  0.0093 -0.2818
   92MOL    C3929341   4.381   2.738   0.875 -0.3390 -0.4548  0.4963
   92MOL    C4029342   4.339   2.725   0.738 -0.2304  0.7122  0.3950
   92MOL    C4129343   4.428   2.748   0.633  0.1952 -0.4110  0.4933
   92MOL    C4229344   4.662   2.923   0.484 -0.0312  0.1550  0.1758
   92MOL    H4329345   4.760   2.787   0.594  0.7429 -0.1856 -0.7305
   92MOL    H4429346   4.541   2.816   1.001 -0.3606 -0.5197 -0.1106
   92MOL    H4529347   4.297   2.749   0.942  0.9603  0.7360  1.9618
   92MOL    H4629348   4.236   2.714   0.707 -0.4795  0.3427  1.3233
   92MOL    H4729349   4.388   2.728   0.535 -2.2842  0.0912  1.3608
   92MOL    H4829350   4.647   2.988   0.570 -0.7277 -0.2495  0.3677
   92MOL    H4929351   4.572   2.928   0.424 -0.5948 -3.5304  0.5636
   92MOL    C5029352   4.777   2.957   0.390 -0.5024 -0.4404  0.5021
   92MOL    C5129353   4.909   2.981   0.468  0.0278  0.1230  0.6944
   92MOL    C5229354   5.027   2.909   0.432 -0.1219 -0.0344 -0.1636
   92MOL   Cl5329355   5.033   2.805   0.291 -0.2996 -0.0789  0.4102
   92MOL    C5429356   5.143   2.938   0.501 -0.0462  0.5348  0.2329
   92MOL    C5529357   5.148   3.014   0.620  0.0374  0.2494  1.2436
   92MOL    C5629358   5.030   3.078   0.656 -0.4161  1.3384  0.0015
   92MOL    C5729359   4.910   3.068   0.582 -0.6968  0.2043  0.5114
   92MOL    C5829360   4.752   3.077   0.298  0.2841  0.4618  1.3548
   92MOL    H5929361   4.791   2.872   0.323 -1.6915  0.1326 -0.5057
   92MOL    H6029362   5.228   2.879   0.472  0.8038  2.1308 -0.5659
   92MOL    H6129363   5.240   3.029   0.674  0.8129 -2.5255  0.7808
   92MOL    H6229364   5.025   3.132   0.750 -0.9237  0.3503  0.5479
   92MOL    H6329365   4.820   3.118   0.613 -0.1504  0.9674  0.8761
   92MOL    H6429366   4.845   3.091   0.243  0.4587  0.4581  1.6491
   92MOL    H6529367   4.746   3.160   0.369 -1.1953  1.5129  0.0237
   92MOL    C6629368   4.632   3.057   0.203 -0.5126  0.2180  0.0730
   92MOL    C6729369   4.652   2.933   0.114 -0.4358 -0.3302 -0.4097
   92MOL    C6829370   4.578   2.813   0.133  0.0692 -0.7166  0.1152
   92MOL   Cl6929371   4.433   2.804   0.225  0.0738  0.1141  0.1735
   92MOL    C7029372   4.623   2.696   0.065  1.0591 -0.0265  0.0205
   92MOL    C7129373   4.729   2.693   8.398  0.2212  0.3867  0.4024
   92MOL    C7229374   4.796   2.808   8.382  0.0352 -0.4228 -0.5122
   92MOL    C7329375   4.761   2.922   0.033 -0.3333 -0.1234 -0.5875
   92MOL    C7429376   4.605   3.185   0.116  0.1898  0.2982 -0.1763
   92MOL    H7529377   4.537   3.036   0.253 -1.7429  2.1812 -1.3449
   92MOL    H7629378   4.558   2.611   0.076  2.5421 -1.2891 -0.6936
   92MOL    H7729379   4.747   2.599   8.348 -0.8702  1.1915 -1.5438
   92MOL    H7829380   4.879   2.812   8.314  0.0522 -0.1151 -0.4785
   92MOL    H7929381   4.818   3.010   0.007 -0.6257  0.0177 -0.7641
   92MOL    H8029382   4.663   3.174   0.025  1.6426 -0.7762  0.8477
   92MOL    H8129383   4.620   3.283   0.162  0.0982 -1.1675  3.1211
   92MOL    C8229384   4.460   3.183   0.057 -0.2988  0.4440 -0.4385
   92MOL    C8329385   4.469   3.255   8.343 -0.0532  0.5123  0.3390
   92MOL    C8429386   4.457   3.176   8.224  0.0596 -0.5748 -0.2102
   92MOL   Cl8529387   4.454   3.001   8.240  0.2116 -0.1815  0.3055
   92MOL    C8629388   4.456   3.229   8.094 -0.8425  0.3189 -0.4183
   92MOL    C8729389   4.469   3.370   8.085 -0.0422  0.3965  0.0828
   92MOL    C8829390   4.487   3.451   8.202  0.4716 -0.3456 -0.0055
   92MOL    C8929391   4.477   3.394   8.332  0.1440 -0.0293  0.0163
   92MOL    C9029392   4.348   3.241   0.147 -0.3605 -0.3587 -0.5023
   92MOL    H9129393   4.431   3.078   0.044 -1.1616  0.7385 -0.9153
   92MOL    H9229394   4.457   3.171   8.003 -0.5097  1.8459 -1.4076
   92MOL    H9329395   4.491   3.411   7.987 -3.1149 -0.3586 -0.9733
   92MOL    H9429396   4.511   3.556   8.201 -0.1934 -0.1774  0.9125
   92MOL    H9529397   4.488   3.451   0.003  1.7765  2.5465 -1.7067
   92MOL    H9629398   4.365   3.348   0.161  2.4499 -1.0107  1.6819
   92MOL    H9729399   4.360   3.200   0.247 -0.8303 -0.5499 -0.5239
   92MOL    C9829400   4.198   3.223   0.098 -0.3593  0.3870  0.2175
   92MOL    C9929401   4.168   3.075   0.096 -0.2932  0.6281  0.4821
   92MOL   C10029402   4.142   2.990   0.207 -0.1746  0.9890 -0.3594
   92MOL  Cl10129403   4.113   3.059   0.368 -0.3279  0.1670 -0.4793
   92MOL   C10229404   4.112   2.852   0.192  0.5895 -0.0002  0.1447
   92MOL   C10329405   4.115   2.799   0.063 -0.1684 -0.7260 -0.4380
   92MOL   C10429406   4.161   2.878   8.373 -0.1980  0.5297 -0.1775
   92MOL   C10529407   4.190   3.015   8.396  0.3046  0.0208  0.0853
   92MOL   C10629408   4.144   3.310   8.397 -0.4220 -0.4474 -0.1358
   92MOL   H10729409   4.138   3.261   0.181 -0.5917 -1.1638  0.7777
   92MOL   H10829410   4.082   2.785   0.270  2.0212 -0.9738 -0.1268
   92MOL   H10929411   4.091   2.695   0.046  1.6399 -1.6826  2.4445
   92MOL   H11029412   4.161   2.842   8.271 -2.8606  0.4691 -0.1811
   92MOL   H11129413   4.219   3.065   8.305 -0.2593  1.1887  0.5369
   92MOL   H11229414   4.187   3.269   8.305 -0.0501 -1.0946  0.3209
   92MOL   H11329415   4.185   3.411   8.397 -0.5132 -0.3998  1.4901
   92MOL   C11429416   3.989   3.315   8.387  0.2181  0.4115  0.1880
   92MOL   C11529417   3.938   3.389   8.265 -1.0692 -0.4748  0.1492
   92MOL   C11629418   3.910   3.317   8.144  0.2516 -0.3373  0.2833
   92MOL  Cl11729419   3.909   3.144   8.130  0.1694 -0.2079 -0.0077
   92MOL   C11829420   3.879   3.381   8.025 -0.1690 -0.0236 -0.0376
   92MOL   C11929421   3.857   3.519   8.021 -0.7342  0.1541 -0.1405
   92MOL   C12029422   3.879   3.597   8.148 -0.0789  0.6225  0.2906
   92MOL   C12129423   3.925   3.530   8.262  0.4758 -0.2107  0.4533
   92MOL   C12229424   3.912   3.355   0.096  0.0329  0.6209  0.3045
   92MOL   H12329425   3.971   3.209   8.371  0.0017  0.2001  1.7404
   92MOL   H12429426   3.860   3.328   7.933  2.5201 -2.3240  0.6714
   92MOL   H12529427   3.840   3.570   7.928  2.8879  0.5495 -0.6521
   92MOL   H12629428   3.864   3.704   8.150 -1.4305  0.5695 -3.4215
   92MOL   H12729429   3.941   3.586   8.352 -0.9571  0.6544  0.1759
   92MOL   H12829430   3.954   3.451   0.123  0.8223  0.1166  0.8802
   92MOL   H12929431   3.932   3.286   0.178 -1.2698 -1.1409 -0.8032
   92MOL   C13029432   3.751   3.371   0.081 -0.5351  0.5406  0.1946
   92MOL   C13129433   3.701   3.444   0.207 -0.0524 -0.6822 -0.1206
   92MOL   C13229434   3.635   3.570   0.200 -0.9401  0.5452  0.1657
   92MOL  Cl13329435   3.623   3.670   0.058  0.2373 -0.0903  0.2405
   92MOL   C13429436   3.586   3.620   0.319  0.0076 -0.6502 -0.3311
   92MOL   C13529437   3.584   3.543   0.438 -0.1757 -0.6866  0.0976
   92MOL   C13629438   3.653   3.418   0.439  0.2196 -0.7375 -0.7380
   92MOL   C13729439   3.719   3.376   0.328 -0.3260 -0.2852  0.5181
   92MOL   C13829440   3.674   3.247   0.053  0.0449 -0.0474 -0.0237
   92MOL   H13929441   3.721   3.437   8.420  0.0351 -0.9745 -1.2651
   92MOL   H14029442   3.531   3.713   0.322  0.0231 -0.6523  0.1338
   92MOL   H14129443   3.527   3.578   0.523  0.0328 -0.6556  0.2241
   92MOL   H14229444   3.651   3.351   0.524 -1.1761 -0.4438 -0.5136
   92MOL   H14329445   3.763   3.278   0.331  2.4666  0.8644 -1.4917
   92MOL   H14429446   3.698   3.166   0.122  0.3754 -1.1581 -1.3928
   92MOL   H14529447   3.707   3.209   8.376  2.0903  3.0559 -0.5750
   92MOL   C14629448   3.510   3.252   0.058 -0.1862 -0.2604  0.8045
   92MOL   C14729449   3.449   3.113   0.044  0.7738  0.4262  0.4587
   92MOL   C14829450   3.419   3.023   0.156 -0.2608 -0.0889 -0.1098
   92MOL  Cl14929451   3.464   3.051   0.319  0.1211  0.2941 -0.3103
   92MOL   C15029452   3.357   2.900   0.130  0.6005 -0.7603 -0.1500
   92MOL   C15129453   3.319   2.859   8.418  0.1763 -0.3811 -0.5104
   92MOL   C15229454   3.360   2.944   8.311 -0.0196 -0.1025 -0.2263
   92MOL   C15329455   3.415   3.066   8.339  0.1832  0.7084  0.4511
   92MOL   C15429456   3.459   3.360   8.384 -0.5981 -0.0386  0.1683
   92MOL   H15529457   3.486   3.279   0.161 -2.9921 -0.8835  0.3529
   92MOL   H15629458   3.337   2.844   0.220  1.1492  0.7345  0.9169
   92MOL   H15729459   3.265   2.766   8.409  0.8939 -1.1550  2.5806
   92MOL   H15829460   3.333   2.900   8.216  2.5434  0.2551 -1.1706
   92MOL   H15929461   3.432   3.121   8.248  0.6713  1.9888  1.3008
   92MOL   H16029462   3.470   3.333   8.279 -1.2275  0.2439  0.0255
   92MOL   H16129463   3.517   3.452   8.393 -1.0881  0.1846  1.1403
   92MOL   C16229464   3.311   3.398   8.406 -1.0374  0.4440 -0.0568
   92MOL   C16329465   3.209   3.294   8.357 -0.1961 -0.1814 -0.2436
   92MOL   C16429466   3.130   3.207   0.021 -0.0859 -0.2776 -0.1316
   92MOL  Cl16529467   3.161   3.192   0.185 -0.2405 -0.3180  0.1207
   92MOL   C16629468   3.038   3.121   8.389  0.4333  0.6625  0.4395
   92MOL   C16729469   3.020   3.118   8.253  0.4664 -0.4897  0.0629
   92MOL   C16829470   3.087   3.199   8.163  0.4198 -1.2731 -0.3820
   92MOL   C16929471   3.193   3.283   8.217  0.1554 -0.1446  0.3492
   92MOL   C17029472   3.276   3.545   8.360  0.6901 -0.0510 -0.5867
   92MOL   H17129473   3.300   3.405   0.093 -1.0912  0.8748 -0.0916
   92MOL   H17229474   2.981   3.058   0.035  0.4145  1.1968  0.9406
   92MOL   H17329475   2.941   3.057   8.212 -0.1612  0.4484 -0.1074
   92MOL   H17429476   3.060   3.200   8.059 -1.4188 -1.1563  0.0673
   92MOL   H17529477   3.266   3.343   8.165 -0.8391 -0.8913 -1.9529
   92MOL   H17629478   3.298   3.551   8.253  1.4862 -0.7104 -0.4697
   92MOL   H17729479   3.340   3.621   8.405 -1.5512  2.6301 -1.7838
   92MOL   C17829480   3.126   3.583   8.368 -0.0063 -0.4744  0.0794
   92MOL   C17929481   3.092   3.698   8.275 -0.0614  0.3636 -0.3675
   92MOL   C18029482   3.069   3.691   8.136 -0.2196  0.3173 -0.6826
   92MOL  Cl18129483   3.051   3.539   8.059  0.0117  0.1371 -0.1353
   92MOL   C18229484   3.035   3.803   8.060 -0.0925  0.0981 -0.1763
   92MOL   C18329485   3.033   3.928   8.117 -0.2915 -0.0626  0.1681
   92MOL   C18429486   3.066   3.939   8.254  0.1041 -0.4075  0.4159
   92MOL   C18529487   3.090   3.827   8.330 -0.2005 -0.0301  0.6050
   92MOL   C18629488   3.097   3.601   0.094 -0.0446  0.9262  0.1793
   92MOL   H18729489   3.067   3.500   8.327 -0.5506  0.5932 -1.3268
   92MOL   H18829490   3.005   3.793   7.957 -0.0134  0.7774 -0.2709
   92MOL   H18929491   3.007   4.014   8.056 -3.7530 -0.7453  0.5775
   92MOL   H19029492   3.064   4.035   8.303 -0.2939 -0.3960  0.3847
   92MOL   H19129493   3.111   3.833   0.016  1.6585  1.0088  0.2092
   92MOL   H19229494   3.147   3.690   0.133 -2.0791  1.1214  2.5054
   92MOL   H19329495   3.144   3.520   0.151 -2.2061 -1.1545 -0.8867
   92MOL   C19429496   2.950   3.612   0.141 -0.5299  0.4787  0.1454
   92MOL   C19529497   2.947   3.669   0.276  0.4451 -0.6310  0.3378
   92MOL   C19629498   2.991   3.611   0.399  0.5509 -0.4503 -0.0833
   92MOL  Cl19729499   3.062   3.459   0.410  0.3776 -0.2235 -0.4817
   92MOL   C19829500   2.991   3.693   0.519  0.0672 -0.1187  0.2811
   92MOL   C19929501   2.935   3.823   0.518 -0.2574  0.2071  0.2930
   92MOL   C20029502   2.906   3.879   0.394 -0.1420  1.1378 -0.3144
   92MOL   C20129503   2.906   3.804   0.277 -0.6276 -0.4866  0.5161
   92MOL   C20229504   2.866   3.488   0.118 -0.5373  0.1719  0.9615
   92MOL   H20329505   2.904   3.684   0.073 -0.1426  2.4170  1.9010
   92MOL   H20429506   3.030   3.647   0.609 -2.5876 -2.0436  0.5008
   92MOL   H20529507   2.931   3.883   0.608  2.6536  2.4625 -0.9809
   92MOL   H20629508   2.876   3.982   0.396 -4.0243  0.0760  0.4467
   92MOL   H20729509   2.872   3.848   0.184  2.6208  0.3715 -0.3425
   92MOL   H20829510   2.792   3.468   0.195 -1.6629 -1.4364 -0.4994
   92MOL   H20929511   2.934   3.403   0.121 -0.3815  0.2295 -0.5062
   92MOL   C21029512   2.771   3.500   8.413  0.4141  0.1318  0.1370
   92MOL   C21129513   2.639   3.575   0.032 -0.5238  0.3298  0.2383
   92MOL   C21229514   2.614   3.711   0.011 -0.5940 -0.8136 -1.1222
   92MOL  Cl21329515   2.719   3.808   8.331 -0.1689  0.2389 -0.2548
   92MOL   C21429516   2.500   3.770   0.058 -0.1305  0.5425  0.1076
   92MOL   C21529517   2.402   3.695   0.125 -0.1696  0.0860 -0.0959
   92MOL   C21629518   2.429   3.561   0.151 -0.2725 -0.0666 -0.1576
   92MOL   C21729519   2.546   3.503   0.106 -0.2174 -0.0259 -0.1729
   92MOL   C21829520   2.737   3.364   8.338 -0.0038  0.0109  0.5912
   92MOL   H21929521   2.808   3.558   8.329  0.0710 -0.2844 -0.2993
   92MOL   H22029522   2.492   3.877   0.052  0.1305  0.4777 -1.5448
   92MOL   H22129523   2.313   3.750   0.150 -0.6399  1.1700 -3.9075
   92MOL   H22229524   2.354   3.503   0.203 -0.6770  2.2039  1.8958
   92MOL   H22329525   2.563   3.400   0.132  1.2400  0.8905  2.7500
   92MOL   H22429526   2.688   3.289   8.400 -1.6956 -0.6999 -1.5499
   92MOL   H22529527   2.831   3.311   8.323  1.2738  1.8019  2.0448
   92MOL   C22629528   2.652   3.374   8.208  0.7486 -0.0200 -0.8743
   92MOL   C22729529   2.613   3.230   8.169  0.0190  0.4343 -0.3271
   92MOL   C22829530   2.494   3.170   8.214 -0.2735 -0.4646 -0.0434
   92MOL  Cl22929531   2.387   3.251   8.321 -0.0802  0.0506 -0.3714
   92MOL   C23029532   2.458   3.044   8.179  0.0952  0.1576  0.2396
   92MOL   C23129533   2.535   2.971   8.085  0.2310 -0.5070 -0.4612
   92MOL   C23229534   2.653   3.028   8.039  0.2278  0.6947 -0.7541
   92MOL   C23329535   2.693   3.158   8.076 -0.1152  0.4325 -0.3038
   92MOL   C23429536   2.713   3.461   8.098  0.1147  0.0992 -0.1372
   92MOL   H23529537   2.559   3.426   8.232  2.1496  2.0183  0.2758
   92MOL   H23629538   2.363   2.998   8.203 -0.1713 -0.0166 -1.1299
   92MOL   H23729539   2.512   2.870   8.053  0.3595 -0.8776  0.5887
   92MOL   H23829540   2.708   2.967   7.970 -0.9372 -1.0205 -0.1874
   92MOL   H23929541   2.779   3.202   8.028  0.7176 -0.0706  0.6781
   92MOL   H24029542   2.792   3.407   8.046  0.4102  0.8067 -0.4267
   92MOL   H24129543   2.749   3.558   8.133  2.3057 -0.7126 -0.0688
   92MOL   C24229544   2.609   3.501   7.991  0.1014  0.1876 -0.2906
   92MOL   C24329545   2.681   3.520   7.858  0.3822 -0.3442 -0.0063
   92MOL   C24429546   2.643   3.443   7.740 -0.7566  0.2099  0.8558
   92MOL  Cl24529547   2.519   3.323   7.746  0.0444 -0.0716  0.0733
   92MOL   C24629548   2.711   3.465   7.617 -0.2567  0.1981  0.3954
   92MOL   C24729549   2.813   3.568   7.611 -0.2791  0.6893 -0.1376
   92MOL   C24829550   2.839   3.646   7.727  0.3158 -0.7849  0.7295
   92MOL   C24929551   2.779   3.620   7.852 -0.3222  0.1964 -0.1012
   92MOL   C25029552   2.518   3.622   8.034  0.4912  0.5274 -0.6989
   92MOL   H25129553   2.533   3.425   7.974 -0.3963  0.7779 -0.7686
   92MOL   H25229554   2.688   3.412   7.526 -2.4048 -2.3495  2.3323
   92MOL   H25329555   2.858   3.589   7.516  0.4282 -0.8531 -0.1513
   92MOL   H25429556   2.921   3.716   7.731  0.9338 -1.4949  0.6480
   92MOL   H25529557   2.813   3.680   7.935 -2.7970  0.4196  0.7925
   92MOL   H25629558   2.537   3.707   7.969 -1.5509  0.7630 -1.0295
   92MOL   H25729559   2.557   3.655   8.131 -1.9158 -0.8735  0.8123
   92MOL   C25829560   2.364   3.591   8.042  0.2028  0.4017 -0.0110
   92MOL   C25929561   2.303   3.565   7.905 -0.0161 -0.1650 -0.2061
   92MOL   C26029562   2.229   3.444   7.874  0.6357 -0.4517  0.1278
   92MOL  Cl26129563   2.221   3.318   7.996  0.0849  0.0906 -0.0387
   92MOL   C26229564   2.186   3.428   7.742 -0.2379  0.1041 -0.0209
   92MOL   C26329565   2.181   3.539   7.661  0.7647 -0.1996 -0.1047
   92MOL   C26429566   2.241   3.658   7.693 -0.4780  0.3661  0.0678
   92MOL   C26529567   2.312   3.668   7.811 -0.1322 -0.4248  0.7392
   92MOL   C26629568   2.282   3.697   8.120  0.4573  0.3072 -0.4562
   92MOL   H26729569   2.353   3.508   8.112 -0.4456 -0.1231 -0.7286
   92MOL   H26829570   2.153   3.337   7.695 -0.0177 -0.2411  0.4891
   92MOL   H26929571   2.131   3.523   7.566 -0.6896 -2.5118  1.0251
   92MOL   H27029572   2.233   3.746   7.630 -3.9490  1.4826  1.9670
   92MOL   H27129573   2.366   3.760   7.827 -0.2372 -0.0806 -0.8593
   92MOL   H27229574   2.261   3.781   8.054  2.0785  0.8677 -0.2928
   92MOL   H27329575   2.333   3.734   8.210 -0.4301 -2.5902  1.2863
   92MOL   C27429576   2.138   3.646   8.159  0.7338  0.0985 -0.2235
   92MOL   C27529577   2.043   3.763   8.197  0.6267  0.1669  0.4168
   92MOL   C27629578   1.940   3.794   8.104 -0.0806  0.4823  0.6461
   92MOL  Cl27729579   1.933   3.731   7.944 -0.1237 -0.0761  0.2239
   92MOL   C27829580   1.854   3.906   8.137 -0.3147  0.6987 -0.0841
   92MOL   C27929581   1.868   3.974   8.255 -0.1113 -0.3272  0.3661
   92MOL   C28029582   1.964   3.930   8.352 -0.3557 -0.4624 -0.5579
   92MOL   C28129583   2.055   3.826   8.322  0.5603  0.1271  0.6255
   92MOL   C28229584   2.134   3.545   8.275  0.3437 -0.5471 -0.2912
   92MOL   H28329585   2.105   3.589   8.071  1.3794  0.4349 -0.6868
   92MOL   H28429586   1.791   3.941   8.057 -2.9623  2.1300  2.5224
   92MOL   H28529587   1.818   4.069   8.265  1.4726  0.4169  1.2403
   92MOL   H28629588   1.981   3.978   0.027 -1.3115 -1.9659  0.3847
   92MOL   H28729589   2.133   3.791   8.388 -0.3604  0.2180  1.7777
   92MOL   H28829590   2.194   3.589   8.355 -2.3909  2.6064  0.1060
   92MOL   H28929591   2.190   3.454   8.254 -0.0150 -0.8012 -0.1517
   92MOL   C29029592   1.997   3.501   8.316 -1.0534  0.1238 -0.2215
   92MOL   C29129593   2.009   3.420   0.025  0.1331 -0.1532  0.0719
   92MOL   C29229594   2.012   3.483   0.152  0.6365 -0.7439 -0.8131
   92MOL  Cl29329595   1.988   3.649   0.185  0.0355 -0.3027 -0.0231
   92MOL   C29429596   2.062   3.409   0.264  0.5923 -0.1967 -0.2473
   92MOL   C29529597   2.102   3.275   0.257  0.3387  0.1285  0.1527
   92MOL   C29629598   2.094   3.216   0.128 -0.2332  0.0341  0.2424
   92MOL   C29729599   2.047   3.282   0.014  0.5043  1.0260 -0.1429
   92MOL   C29829600   1.932   3.416   8.205 -0.3861 -0.0034 -0.2875
   92MOL   H29929601   1.935   3.586   8.343 -1.1673  0.0602 -0.2815
   92MOL   H30029602   2.073   3.453   0.361 -0.0608 -2.9419  1.1355
   92MOL   H30129603   2.133   3.221   0.345 -1.1279 -2.4002 -0.8181
   92MOL   H30229604   2.131   3.116   0.116  0.3995  0.4791 -1.6127
   92MOL   H30329605   2.044   3.233   8.339  1.4931  0.8134 -0.0746
   92MOL   H30429606   2.005   3.339   8.183  0.5394  0.5281  0.8371
   92MOL   H30529607   1.928   3.476   8.114 -1.4015 -0.8756 -0.8176
   92MOL   C30629608   1.801   3.347   8.231  0.0848 -0.5139 -0.1155
   92MOL   C30729609   1.789   3.229   8.138 -0.8175 -0.0710  0.1117
   92MOL   C30829610   1.785   3.243   7.997  1.5390 -0.2524  0.6697
   92MOL  Cl30929611   1.758   3.393   7.919  0.0696 -0.0738 -0.4831
   92MOL   C31029612   1.790   3.127   7.915  0.0198  0.1980 -0.1340
   92MOL   C31129613   1.779   2.998   7.973  0.5093 -0.2560  0.2585
   92MOL   C31229614   1.767   2.987   8.111 -0.0046  0.4224 -0.8996
   92MOL   C31329615   1.772   3.103   8.193  0.2191  1.0579 -0.0315
   92MOL   C31429616   1.671   3.425   8.242 -0.2050  0.6741  0.6951
   92MOL   H31529617   1.809   3.304   8.331 -1.3611 -2.0795 -0.6370
   92MOL   H31629618   1.801   3.140   7.808  0.0444  1.8375  0.0501
   92MOL   H31729619   1.770   2.911   7.911  1.1153 -1.5280  1.9027
   92MOL   H31829620   1.764   2.889   8.156  0.5118  1.4049  1.3566
   92MOL   H31929621   1.789   3.096   8.299 -1.0470  0.8989  0.1664
   92MOL   H32029622   1.589   3.356   8.260  1.1235 -0.7458  1.3887
   92MOL   H32129623   1.656   3.482   8.150  0.1577  2.0762  1.4916
   92MOL   H32229624   1.673   3.505   8.316  0.5035 -0.1319  1.5639
   93MOL     C129625   0.529   8.124   4.868 -0.1029 -0.3069  0.0854
   93MOL     C229626   0.502   8.239   4.769  0.4177  0.0574 -0.3240
   93MOL     C329627   0.371   8.267   4.721 -0.8111 -0.0008  0.3676
   93MOL    Cl429628   0.230   8.170   4.753  0.1127  0.0991 -0.1349
   93MOL     C529629   0.349   8.378   4.631 -0.2208  0.4552  0.0201
   93MOL     C629630   0.461   0.036   4.590  0.1301  0.0725  0.0952
   93MOL     C729631   0.591   0.007   4.639  0.3016 -0.3349 -0.3324
   93MOL     C829632   0.605   8.321   4.725 -0.0564 -0.5511  0.2496
   93MOL     C929633   0.600   8.006   4.807  0.1292 -0.5189  0.1260
   93MOL    H1029634   0.594   8.171   4.942  2.6989  0.7924 -2.9524
   93MOL    H1129635   0.253   8.407   4.591  0.6168  0.5919 -1.9772
   93MOL    H1229636   0.449   0.116   4.519 -0.1496 -0.2670 -0.2454
   93MOL    H1329637   0.672   0.074   4.613 -1.2064  0.7835 -2.3430
   93MOL    H1429638   0.705   8.301   4.762 -0.1678  0.3445  1.0462
   93MOL    H1529639   0.693   8.051   4.770  0.7159  0.1950  2.4088
   93MOL    H1629640   0.543   7.964   4.724 -1.5809  0.0142  1.0156
   93MOL    H1729641   0.436   8.091   4.913 -1.0415  1.9443 -0.1203
   93MOL    C1829642   0.654   7.902   4.909 -0.0942 -0.1516 -0.0247
   93MOL    C1929643   0.769   7.821   4.853  0.5601 -0.7150 -0.2128
   93MOL    C2029644   0.885   7.796   4.925 -0.1084  0.1673  0.4039
   93MOL   Cl2129645   0.892   7.830   5.093  0.1240 -0.2469  0.9018
   93MOL    C2229646   0.984   7.713   4.866  0.7248 -0.1178 -0.0216
   93MOL    C2329647   0.967   7.674   4.731  0.3559 -1.0288 -0.2099
   93MOL    C2429648   0.848   7.700   4.657  0.6811  0.2684 -0.2299
   93MOL    C2529649   0.752   7.785   4.716  0.0428  0.0485 -0.5656
   93MOL    C2629650   0.543   7.800   4.950  0.1185  0.1659  0.1517
   93MOL    H2729651   0.696   7.951   4.996  0.0239 -1.0661  0.4413
   93MOL    H2829652   1.071   7.676   4.918 -0.9318 -2.2417  1.3057
   93MOL    H2929653   1.045   7.615   4.686  1.3676  1.8906 -2.4266
   93MOL    H3029654   0.846   7.661   4.556 -0.9825 -0.6251  0.1273
   93MOL    H3129655   0.658   7.803   4.666  0.4419 -0.7895 -1.6565
   93MOL    H3229656   0.581   7.700   4.971 -1.4187 -0.7909 -1.5213
   93MOL    H3329657   0.484   7.771   4.863 -0.8297  1.9582  0.1846
   93MOL    C3429658   0.448   7.847   5.064  0.8716  0.1050 -0.2623
   93MOL    C3529659   0.517   7.899   5.195 -0.1466 -0.5216  0.0639
   93MOL    C3629660   0.480   8.008   5.271  0.4326 -0.3291  0.4360
   93MOL   Cl3729661   0.336   8.094   5.248  0.1634 -0.0842  0.1122
   93MOL    C3829662   0.555   8.052   5.383 -1.0911  1.0666 -0.2813
   93MOL    C3929663   0.668   7.987   5.429  0.0580  0.1161 -0.0474
   93MOL    C4029664   0.702   7.869   5.368  1.1892  0.4521  0.3870
   93MOL    C4129665   0.626   7.825   5.254 -0.4658 -0.0948  0.6661
   93MOL    C4229666   0.375   7.727   5.115 -0.7062  0.3852  0.2487
   93MOL    H4329667   0.374   7.910   5.015  0.2506 -0.0529  0.4762
   93MOL    H4429668   0.533   8.138   5.445 -0.6050 -1.2388  3.1942
   93MOL    H4529669   0.723   8.031   5.511 -0.7208  2.0918 -0.5603
   93MOL    H4629670   0.794   7.822   5.400  0.0368 -1.0011  1.5701
   93MOL    H4729671   0.660   7.732   5.211 -0.1613 -0.6417  2.0905
   93MOL    H4829672   0.331   7.744   5.213 -1.6636 -4.4792  0.7887
   93MOL    H4929673   0.449   7.652   5.141  1.1707  1.9042 -0.5589
   93MOL    C5029674   0.256   7.675   5.021  0.2163 -0.5846  0.1512
   93MOL    C5129675   0.141   7.777   4.992  0.7196  0.2969  0.1046
   93MOL    C5229676   0.073   7.846   5.095 -0.3999 -0.2861  0.4823
   93MOL   Cl5329677   0.093   7.822   5.264  0.3374  0.0030  0.2148
   93MOL    C5429678   8.399   7.940   5.057 -0.6331  0.0933  0.2752
   93MOL    C5529679   8.368   7.964   4.924 -0.1524 -0.2880  0.2967
   93MOL    C5629680   0.023   7.902   4.826  1.3839 -0.2165 -0.0087
   93MOL    C5729681   0.117   7.802   4.856  0.0156 -0.0368  1.1292
   93MOL    C5829682   0.204   7.540   5.057  0.5978 -0.0463  0.3175
   93MOL    H5929683   0.308   7.664   4.925 -0.8547  1.6682 -0.7094
   93MOL    H6029684   8.343   7.992   5.134  0.7254  2.3782 -0.2238
   93MOL    H6129685   8.293   8.037   4.896 -0.3193 -0.6615 -0.2594
   93MOL    H6229686   0.004   7.924   4.722  2.5108  0.0908 -0.1620
   93MOL    H6329687   0.170   7.752   4.776 -1.2804  1.3593 -0.6356
   93MOL    H6429688   0.128   7.524   4.981  1.6926  1.7963 -1.2271
   93MOL    H6529689   0.149   7.548   5.151 -2.2118  1.5318 -1.3696
   93MOL    C6629690   0.300   7.425   5.060  0.0579 -0.4030 -0.6105
   93MOL    C6729691   0.389   7.411   4.937 -0.5035  0.2318  0.2338
   93MOL    C6829692   0.341   7.384   4.806  0.0975 -0.4130  0.2158
   93MOL   Cl6929693   0.172   7.377   4.776 -0.2455 -0.2504  0.1005
   93MOL    C7029694   0.430   7.376   4.699 -0.3552  0.1505  0.1023
   93MOL    C7129695   0.561   7.403   4.721 -0.0789 -0.7583  0.4866
   93MOL    C7229696   0.613   7.431   4.846  0.0051 -0.2989  0.5016
   93MOL    C7329697   0.528   7.439   4.953 -0.0382  0.5286  0.2348
   93MOL    C7429698   0.243   7.289   5.112  0.6242  0.5165  0.0258
   93MOL    H7529699   0.370   7.454   5.138 -0.1412  1.4610 -1.1009
   93MOL    H7629700   0.392   7.344   4.603  1.5750  0.8014 -0.9083
   93MOL    H7729701   0.634   7.410   4.642 -0.6795 -0.9907 -0.0897
   93MOL    H7829702   0.719   7.436   4.866  0.6791 -0.1376 -2.7832
   93MOL    H7929703   0.568   7.470   5.049  1.9148  0.6919 -0.6157
   93MOL    H8029704   0.187   7.236   5.036  0.3141  2.1499 -0.8906
   93MOL    H8129705   0.171   7.311   5.191  0.1550 -2.9230  0.6364
   93MOL    C8229706   0.344   7.194   5.184  0.1209  0.7387  0.4645
   93MOL    C8329707   0.458   7.142   5.093  0.3598  0.0773  0.2021
   93MOL    C8429708   0.592   7.162   5.116  0.2564 -0.4356 -0.3646
   93MOL   Cl8529709   0.643   7.240   5.263 -0.1651 -0.2450  0.2861
   93MOL    C8629710   0.690   7.124   5.022 -0.0041  0.0799 -0.0003
   93MOL    C8729711   0.661   7.052   4.908 -0.2473  0.8963  0.0131
   93MOL    C8829712   0.525   7.021   4.890 -0.4468 -0.0361 -0.0257
   93MOL    C8929713   0.423   7.073   4.973  0.8297 -0.8438 -0.1425
   93MOL    C9029714   0.280   7.078   5.255  0.6304 -0.8242 -0.5995
   93MOL    H9129715   0.387   7.253   5.265 -1.8230 -0.8163  2.6552
   93MOL    H9229716   0.795   7.129   5.049  0.1643  0.4582 -0.7119
   93MOL    H9329717   0.747   7.024   4.850 -0.4492  1.8784 -0.7720
   93MOL    H9429718   0.488   6.956   4.812 -2.8759  0.6304  0.5275
   93MOL    H9529719   0.324   7.055   4.934  0.2161  1.4588  0.2936
   93MOL    H9629720   0.256   7.004   5.180  2.7285 -0.9278 -1.1960
   93MOL    H9729721   0.187   7.117   5.297  0.9329  0.3987 -1.0195
   93MOL    C9829722   0.361   7.008   5.367  0.3597 -0.3738 -0.1406
   93MOL    C9929723   0.325   6.861   5.387 -0.6116 -0.6779 -0.0493
   93MOL   C10029724   0.419   6.758   5.411  0.1653 -0.2248 -0.2246
   93MOL  Cl10129725   0.592   6.795   5.423  0.2973  0.0510  0.2408
   93MOL   C10229726   0.376   6.627   5.439 -0.0043  0.4326 -0.1332
   93MOL   C10329727   0.238   6.597   5.429 -0.0748  0.0189 -0.0933
   93MOL   C10429728   0.145   6.701   5.394  0.0467  0.5751  0.1574
   93MOL   C10529729   0.194   6.831   5.379  0.2833 -0.0265 -1.1113
   93MOL   C10629730   0.340   7.095   5.501  0.2085 -0.3009  0.1940
   93MOL   H10729731   0.461   7.021   5.328  0.3896  1.2467  0.4209
   93MOL   H10829732   0.439   6.544   5.467  0.8049  1.3301  0.7376
   93MOL   H10929733   0.191   6.503   5.455  0.9738 -0.0271  1.7465
   93MOL   H11029734   0.042   6.670   5.402 -0.5408  1.9438 -1.6819
   93MOL   H11129735   0.116   6.900   5.354 -0.2754 -1.3150 -3.0784
   93MOL   H11229736   0.236   7.081   5.530 -0.2548 -0.3440 -1.4364
   93MOL   H11329737   0.340   7.199   5.469 -3.5088 -0.8751 -1.9081
   93MOL   C11429738   0.438   7.067   5.619 -0.1235  0.4114 -0.3497
   93MOL   C11529739   0.384   7.116   5.757  0.0418 -0.1364 -0.4403
   93MOL   C11629740   0.334   7.027   5.860 -0.1189  0.3606 -0.3179
   93MOL  Cl11729741   0.300   6.865   5.811 -0.5847 -0.0287  0.3538
   93MOL   C11829742   0.284   7.072   5.987  0.0527 -0.2047 -0.1654
   93MOL   C11929743   0.292   7.207   6.014 -0.3391 -0.1006 -0.5968
   93MOL   C12029744   0.344   7.300   5.924 -0.0542 -0.2926  0.4002
   93MOL   C12129745   0.382   7.254   5.793  0.3835  0.7831  0.5948
   93MOL   C12229746   0.582   7.118   5.590  0.2821 -0.3391  0.4534
   93MOL   H12329747   0.430   6.959   5.614  2.0753  0.2277 -0.5658
   93MOL   H12429748   0.252   6.999   6.061  0.6278  0.4935  0.7834
   93MOL   H12529749   0.275   7.241   6.115 -0.0221 -1.6065 -0.0243
   93MOL   H12629750   0.356   7.406   5.941  0.7414  0.2029 -2.7480
   93MOL   H12729751   0.410   7.325   5.716 -0.2226 -0.0700 -0.4316
   93MOL   H12829752   0.589   7.225   5.607  1.3491 -0.4802  0.9241
   93MOL   H12929753   0.585   7.097   5.483  2.2457  0.4091  0.3510
   93MOL   C13029754   0.693   7.039   5.662  0.5325  0.0809  0.7772
   93MOL   C13129755   0.699   7.061   5.818 -0.3743  0.3060  0.8334
   93MOL   C13229756   0.681   6.954   5.906 -0.3603  0.4353  0.1009
   93MOL  Cl13329757   0.644   6.803   5.843 -0.4350 -0.0563 -0.1269
   93MOL   C13429758   0.683   6.973   6.042  0.1152 -0.4656  0.9965
   93MOL   C13529759   0.699   7.107   6.093  0.0743  0.7130 -0.0881
   93MOL   C13629760   0.712   7.213   6.005  0.3754  0.1277 -0.2059
   93MOL   C13729761   0.710   7.191   5.868  0.0892  0.2286  0.4314
   93MOL   C13829762   0.831   7.077   5.593  0.0452  0.2380  0.3896
   93MOL   H13929763   0.674   6.935   5.636  1.5062  0.4015 -1.3264
   93MOL   H14029764   0.667   6.895   6.115 -0.7973 -0.9011  0.3438
   93MOL   H14129765   0.695   7.129   6.199  0.9633 -0.6293  0.2306
   93MOL   H14229766   0.716   7.314   6.045 -0.8450 -0.3946  1.3052
   93MOL   H14329767   0.723   7.273   5.798 -1.5048  0.1295 -0.0081
   93MOL   H14429768   0.880   7.156   5.650 -0.2564  1.6768 -1.3104
   93MOL   H14529769   0.820   7.115   5.491  0.4814  1.0693  0.6518
   93MOL   C14629770   0.938   6.960   5.576  0.1441 -0.5311  0.2397
   93MOL   C14729771   0.974   6.884   5.700  0.0889 -0.1201 -0.4701
   93MOL   C14829772   0.957   6.746   5.715 -0.5476  0.1858  0.2781
   93MOL  Cl14929773   0.881   6.643   5.599 -0.2141  0.3644  0.2496
   93MOL   C15029774   0.998   6.683   5.833 -1.1208  0.3943 -0.3393
   93MOL   C15129775   1.062   6.750   5.941 -0.3606  0.4965 -0.0849
   93MOL   C15229776   1.076   6.894   5.931 -0.1627 -0.1028  0.1038
   93MOL   C15329777   1.039   6.957   5.809 -0.2120  0.1840  0.1462
   93MOL   C15429778   1.066   7.010   5.503  0.0358  0.7342  0.2081
   93MOL   H15529779   0.889   6.896   5.502 -1.3028 -0.9285  1.5117
   93MOL   H15629780   0.977   6.578   5.834  1.6978 -0.1983  0.4751
   93MOL   H15729781   1.073   6.695   6.033 -2.6262  0.3469  0.1164
   93MOL   H15829782   1.123   6.948   6.012 -1.0320  2.4745 -1.0940
   93MOL   H15929783   1.041   7.065   5.804 -0.0960  0.1593 -0.3462
   93MOL   H16029784   1.121   7.084   5.562  1.1674  0.0201  0.0754
   93MOL   H16129785   1.044   7.073   5.417  2.5407 -2.8070 -3.1994
   93MOL   C16229786   1.158   6.893   5.451 -0.0687  0.7268  0.4046
   93MOL   C16329787   1.257   6.829   5.554 -0.0127  0.0575  0.7266
   93MOL   C16429788   1.280   6.687   5.553  0.1175  0.0460  0.0459
   93MOL  Cl16529789   1.207   6.561   5.441  0.1703  0.0794 -0.0012
   93MOL   C16629790   1.372   6.633   5.647  0.2757 -0.2088  0.6131
   93MOL   C16729791   1.442   6.719   5.732 -0.7540 -0.6677  0.1004
   93MOL   C16829792   1.423   6.863   5.725  0.4199 -0.1390 -0.3518
   93MOL   C16929793   1.325   6.917   5.638  0.8436 -0.5823  0.0672
   93MOL   C17029794   1.226   6.921   5.316  0.3737  0.1068 -0.8646
   93MOL   H17129795   1.084   6.817   5.426  1.0562 -0.4461  0.6451
   93MOL   H17229796   1.396   6.528   5.645 -1.5830 -0.6802  1.7450
   93MOL   H17329797   1.512   6.679   5.804  1.3011 -1.4262 -2.2167
   93MOL   H17429798   1.475   6.924   5.797 -0.7671 -1.3602  1.5940
   93MOL   H17529799   1.306   7.023   5.647  1.4114 -0.2530 -2.3247
   93MOL   H17629800   1.304   6.853   5.282  0.3542  0.2932 -1.2862
   93MOL   H17729801   1.285   7.011   5.335 -0.1793  0.6401 -1.6800
   93MOL   C17829802   1.123   6.933   5.208  0.3692 -0.1333 -0.3631
   93MOL   C17929803   1.055   6.801   5.165  0.5343 -0.6539 -0.7242
   93MOL   C18029804   0.920   6.773   5.174  0.1886 -0.0785 -0.3955
   93MOL  Cl18129805   0.803   6.893   5.221 -0.0602 -0.2665 -0.0627
   93MOL   C18229806   0.870   6.645   5.141  0.1203 -0.3064 -0.6360
   93MOL   C18329807   0.953   6.548   5.086  0.9592  0.4718 -0.1174
   93MOL   C18429808   1.086   6.577   5.068 -0.9662  0.0172 -0.7938
   93MOL   C18529809   1.138   6.698   5.119  0.4297  0.1277  0.3416
   93MOL   C18629810   1.184   6.985   5.077 -0.0299 -0.2063 -1.1034
   93MOL   H18729811   1.045   7.006   5.230  0.7658  0.3271 -0.4790
   93MOL   H18829812   0.764   6.628   5.144  0.3087 -1.3276  0.7001
   93MOL   H18929813   0.914   6.451   5.058 -0.0095  1.7508 -3.3707
   93MOL   H19029814   1.153   6.496   5.042 -0.2918  0.8451 -1.6534
   93MOL   H19129815   1.244   6.716   5.115  0.5804 -0.0494  3.0425
   93MOL   H19229816   1.110   6.970   4.999 -0.1511 -0.5702 -0.9209
   93MOL   H19329817   1.262   6.915   5.047 -0.2459 -0.7587 -0.4100
   93MOL   C19429818   1.242   7.127   5.086 -0.3110 -0.0949  0.0817
   93MOL   C19529819   1.141   7.238   5.080  0.4452 -0.5002 -0.5862
   93MOL   C19629820   1.120   7.324   5.194  0.0426 -0.2860 -0.2901
   93MOL  Cl19729821   1.226   7.311   5.329  0.3375  0.1675 -0.0698
   93MOL   C19829822   1.022   7.422   5.197  0.0005 -0.3902 -0.8787
   93MOL   C19929823   0.938   7.436   5.087  0.0340  0.4055  0.6513
   93MOL   C20029824   0.966   7.363   4.965  0.1024  0.4195 -0.6043
   93MOL   C20129825   1.063   7.265   4.967  0.2105  0.4101 -0.4225
   93MOL   C20229826   1.359   7.148   4.980 -0.4715  0.3998  0.2389
   93MOL   H20329827   1.290   7.139   5.183  0.4527 -0.1284 -0.2871
   93MOL   H20429828   1.022   7.497   5.275  1.8371  0.6788 -1.8699
   93MOL   H20529829   0.857   7.506   5.102  1.3172  2.0873 -0.0095
   93MOL   H20629830   0.913   7.376   4.872 -1.1178 -0.1472  0.0012
   93MOL   H20729831   1.084   7.208   4.878  3.2896  1.4080 -0.3936
   93MOL   H20829832   1.405   7.244   5.001  1.8183 -0.5799 -0.1410
   93MOL   H20929833   1.321   7.153   4.878  3.0264 -4.0521 -1.4808
   93MOL   C21029834   1.478   7.046   4.983 -0.4306  0.5261 -0.6429
   93MOL   C21129835   1.527   7.014   5.123 -0.3809  0.7223  0.1805
   93MOL   C21229836   1.552   6.882   5.167  0.4900 -0.3304  0.7903
   93MOL  Cl21329837   1.537   6.750   5.058  0.2567 -0.1156  0.1811
   93MOL   C21429838   1.611   6.854   5.294  0.3191 -0.2011 -0.6732
   93MOL   C21529839   1.638   6.964   5.380 -0.2581  0.0521  0.2765
   93MOL   C21629840   1.610   7.096   5.335 -0.0293  0.3265  0.3366
   93MOL   C21729841   1.557   7.122   5.205 -0.6840  0.4553  0.1530
   93MOL   C21829842   1.587   7.086   4.886 -0.1971  0.3554  0.2512
   93MOL   H21929843   1.439   6.952   4.945 -1.4251  0.1398  1.2663
   93MOL   H22029844   1.630   6.751   5.321 -2.0792 -0.7051 -0.8205
   93MOL   H22129845   1.681   6.953   5.479  1.8154  0.2350 -0.5803
   93MOL   H22229846   1.624   7.172   5.409 -0.1930  1.7699 -1.0827
   93MOL   H22329847   1.557   7.224   5.168  0.6109  0.0364 -1.0078
   93MOL   H22429848   1.672   7.020   4.900  1.3914  2.0873 -0.9653
   93MOL   H22529849   1.631   7.180   4.919  1.1317 -0.3139  0.4074
   93MOL   C22629850   1.543   7.088   4.736  1.0280  0.1531 -0.3647
   93MOL   C22729851   1.468   6.961   4.696 -0.0269  0.2881  0.1599
   93MOL   C22829852   1.336   6.963   4.633 -0.0719 -0.4242  0.1418
   93MOL  Cl22929853   1.250   7.109   4.589  0.4127  0.1991  0.1584
   93MOL   C23029854   1.271   6.839   4.605 -0.5389 -0.3534 -1.2148
   93MOL   C23129855   1.331   6.718   4.637 -0.3979  0.3113  0.0777
   93MOL   C23229856   1.468   6.714   4.685  0.0903 -0.2909  0.0887
   93MOL   C23329857   1.538   6.835   4.708 -0.0335 -0.0376 -0.5002
   93MOL   C23429858   1.673   7.120   4.651  0.5179  0.3768 -0.0694
   93MOL   H23529859   1.466   7.164   4.719  0.4979 -0.2225  0.3298
   93MOL   H23629860   1.169   6.839   4.568 -0.9866 -0.1185 -0.0214
   93MOL   H23729861   1.292   6.623   4.603 -2.4409  0.2790  2.3178
   93MOL   H23829862   1.510   6.617   4.705  1.4223  0.2997  0.1848
   93MOL   H23929863   1.639   6.821   4.743 -0.8988 -0.6389  1.8185
   93MOL   H24029864   1.665   7.074   4.552 -1.7196 -1.4299  0.8986
   93MOL   H24129865   1.751   7.077   4.713 -0.3512 -0.7247  0.2820
   93MOL   C24229866   1.696   7.263   4.614 -0.1476  0.0487 -0.0140
   93MOL   C24329867   1.617   7.313   4.494 -0.8857 -0.4338 -0.6849
   93MOL   C24429868   1.502   7.390   4.515 -0.1103 -0.0523 -0.4069
   93MOL  Cl24529869   1.453   7.439   4.679  0.2229  0.3833 -0.2778
   93MOL   C24629870   1.410   7.416   4.414 -0.1441 -0.5039 -0.4413
   93MOL   C24729871   1.436   7.379   4.283  0.0508 -0.0279 -0.5411
   93MOL   C24829872   1.556   7.321   4.252  0.4433  0.2794 -0.2927
   93MOL   C24929873   1.649   7.281   4.359  0.6464  0.1026  0.2209
   93MOL   C25029874   1.844   7.294   4.592  0.5339  0.0411  0.3617
   93MOL   H25129875   1.677   7.336   4.694  2.3564  0.0900  0.5872
   93MOL   H25229876   1.313   7.460   4.431  0.2086 -0.4024  1.4089
   93MOL   H25329877   1.367   7.390   4.201 -0.9875 -2.4641 -0.0426
   93MOL   H25429878   1.573   7.295   4.149  1.3769  1.3129 -0.4123
   93MOL   H25529879   1.731   7.215   4.338 -0.1530 -0.4099 -1.3093
   93MOL   H25629880   1.850   7.380   4.525  0.0003 -0.8057 -0.7959
   93MOL   H25729881   1.898   7.210   4.549  1.4156  0.9844 -0.4141
   93MOL   C25829882   1.928   7.323   4.724 -0.0610 -0.6632 -0.6716
   93MOL   C25929883   1.931   7.478   4.753 -0.3552 -1.0973  0.3826
   93MOL   C26029884   1.853   7.530   4.853  0.3541  0.1225 -0.4968
   93MOL  Cl26129885   1.769   7.436   4.973 -0.0683 -0.0040 -0.2567
   93MOL   C26229886   1.851   7.672   4.862  0.1634 -0.2406  0.4092
   93MOL   C26329887   1.933   7.759   4.787  0.9257  0.1017  0.3715
   93MOL   C26429888   2.016   7.699   4.687  0.3995 -0.1400  0.2034
   93MOL   C26529889   2.017   7.562   4.674 -0.2413  0.0782 -0.1332
   93MOL   C26629890   2.072   7.277   4.699 -0.3102 -0.2485 -0.4962
   93MOL   H26729891   1.873   7.260   4.794 -1.1904  0.4784 -0.5208
   93MOL   H26829892   1.788   7.705   4.943  0.6831  3.3677 -0.5216
   93MOL   H26929893   1.936   7.866   4.802 -0.8624  0.4552 -1.4859
   93MOL   H27029894   2.083   7.763   4.632  0.6801  0.1034  0.8145
   93MOL   H27129895   2.089   7.527   4.602  0.5490 -0.3757  0.8723
   93MOL   H27229896   2.142   7.347   4.743 -0.3659 -1.8156  2.2105
   93MOL   H27329897   2.100   7.281   4.594 -0.8196  0.6464 -0.6056
   93MOL   C27429898   2.119   7.151   4.777  0.0447  0.5500 -0.2648
   93MOL   C27529899   2.054   7.140   4.918 -0.8789 -0.1530 -0.1132
   93MOL   C27629900   1.968   7.028   4.947 -0.2070  0.5623  0.0121
   93MOL  Cl27729901   1.930   6.899   4.838 -0.4062 -0.0444  0.5169
   93MOL   C27829902   1.907   7.025   5.072  0.1882 -0.0248 -0.8681
   93MOL   C27929903   1.935   7.122   5.174 -0.5515 -0.3673  0.0253
   93MOL   C28029904   2.010   7.241   5.145  0.2507 -0.0169  0.5924
   93MOL   C28129905   2.073   7.248   5.013  0.6925 -0.6197 -0.1054
   93MOL   C28229906   2.269   7.115   4.773 -0.0308  0.2807  0.3722
   93MOL   H28329907   2.066   7.075   4.720 -0.0470 -0.3700  1.0278
   93MOL   H28429908   1.848   6.938   5.098 -0.4634  0.5087 -0.5335
   93MOL   H28529909   1.890   7.103   5.270 -1.8053  2.8933  0.1405
   93MOL   H28629910   2.031   7.309   5.227  0.6073 -1.4546  1.7067
   93MOL   H28729911   2.125   7.338   4.984  1.7213  0.0465  3.4924
   93MOL   H28829912   2.275   7.014   4.813  0.1255  0.2977  0.3928
   93MOL   H28929913   2.314   7.177   4.850  1.4056 -0.8229  0.4484
   93MOL   C29029914   2.348   7.129   4.641  0.5226 -0.1574  0.1671
   93MOL   C29129915   2.306   7.025   4.539  0.0033 -0.2485  0.5681
   93MOL   C29229916   2.252   7.054   4.410  0.3057  0.6132 -0.2602
   93MOL  Cl29329917   2.220   7.217   4.372  0.3665 -0.2191 -0.3727
   93MOL   C29429918   2.215   6.950   4.319  0.2350 -0.8145  0.4576
   93MOL   C29529919   2.236   6.819   4.358  0.4292 -0.1204  0.4989
   93MOL   C29629920   2.306   6.785   4.477  0.8266  0.5161 -0.1867
   93MOL   C29729921   2.335   6.889   4.567  0.1056  0.3752 -0.2193
   93MOL   C29829922   2.503   7.136   4.659  0.0294  0.0253 -0.1090
   93MOL   H29929923   2.325   7.228   4.601 -1.1674 -0.2397  0.8665
   93MOL   H30029924   2.169   6.977   4.225  0.9455 -4.5844 -1.0758
   93MOL   H30129925   2.206   6.736   4.295 -1.9208  0.8761  0.2492
   93MOL   H30229926   2.317   6.681   4.503 -0.7406  0.1167 -1.0437
   93MOL   H30329927   2.363   6.856   4.666  1.6699 -0.3907 -0.9098
   93MOL   H30429928   2.560   7.121   4.567  1.1660 -0.0001  0.5849
   93MOL   H30529929   2.513   7.050   4.725 -0.5640  0.3951  0.4701
   93MOL   C30629930   2.557   7.258   4.738 -0.2875 -0.6150 -0.5309
   93MOL   C30729931   2.493   7.393   4.695 -0.1890 -0.1751 -0.0169
   93MOL   C30829932   2.490   7.439   4.562  0.1026  0.1465 -0.5822
   93MOL  Cl30929933   2.568   7.361   4.434  0.0133  0.3118  0.0968
   93MOL   C31029934   2.421   7.556   4.535 -0.3800  0.1353 -0.4639
   93MOL   C31129935   2.360   7.631   4.634 -0.2993  0.6057 -0.6657
   93MOL   C31229936   2.369   7.595   4.769  0.0715  0.0058 -0.2805
   93MOL   C31329937   2.434   7.475   4.798 -0.6995  0.5831  0.2981
   93MOL   C31429938   2.710   7.268   4.728  0.8834 -0.3243  0.3628
   93MOL   H31529939   2.533   7.250   4.844  1.3380  0.4195 -0.0726
   93MOL   H31629940   2.416   7.589   4.432 -0.6268  0.0324 -0.4856
   93MOL   H31729941   2.307   7.716   4.595 -0.5034  0.9243  0.3199
   93MOL   H31829942   2.331   7.655   4.850  0.0284  2.4722 -2.0445
   93MOL   H31929943   2.443   7.445   4.901  0.8126 -0.1454 -0.0291
   93MOL   H32029944   2.743   7.275   4.624  2.8507 -0.6103  0.9512
   93MOL   H32129945   2.769   7.194   4.781  0.2207 -1.5913 -0.6547
   93MOL   H32229946   2.734   7.367   4.769 -1.0722  0.2038  0.2737
   94MOL     C129947   7.271   3.096   2.347 -0.5595 -0.2108 -0.1232
   94MOL     C229948   7.423   3.097   2.309 -0.0408  0.1238 -0.0439
   94MOL     C329949   7.491   3.220   2.317 -0.0469  0.1697 -0.3178
   94MOL    Cl429950   7.410   3.369   2.370  0.1629 -0.4206  0.1056
   94MOL     C529951   7.629   3.228   2.296 -0.0056 -0.8341  0.2517
   94MOL     C629952   7.688   3.120   2.228  0.2059  0.2634 -0.7470
   94MOL     C729953   7.619   3.001   2.202  0.2127  0.0094 -0.3486
   94MOL     C829954   7.488   2.986   2.250 -0.0930 -0.0793 -0.2795
   94MOL     C929955   7.190   3.128   2.223 -0.4853  0.3114  0.0094
   94MOL    H1029956   7.247   2.998   2.389  0.5010 -1.0003 -1.3206
   94MOL    H1129957   7.671   3.324   2.321 -0.7987 -0.1205 -1.1512
   94MOL    H1229958   7.793   3.130   2.205  0.8626  0.1987  2.1095
   94MOL    H1329959   7.659   2.911   2.157 -1.6311 -2.7995  3.3459
   94MOL    H1429960   7.442   2.890   2.230  0.4043 -0.2758 -0.4932
   94MOL    H1529961   7.212   3.052   2.148  0.7699 -0.3694  1.0563
   94MOL    H1629962   7.236   3.222   2.190  0.6214 -0.8990 -2.0059
   94MOL    H1729963   7.249   3.167   2.427 -0.6472  0.7725 -1.0094
   94MOL    C1829964   7.041   3.149   2.260 -0.3671  0.1633 -0.1993
   94MOL    C1929965   6.980   3.035   2.344  0.3874  0.5439 -0.5654
   94MOL    C2029966   6.885   3.053   2.452 -0.0588 -0.0051 -0.0785
   94MOL   Cl2129967   6.841   3.211   2.493  0.4700 -0.2441  0.0755
   94MOL    C2229968   6.841   2.940   2.525 -0.1503  0.4499  0.8954
   94MOL    C2329969   6.885   2.810   2.498 -0.0456  0.3706 -0.3568
   94MOL    C2429970   6.978   2.788   2.395 -0.2939  0.1406 -0.4196
   94MOL    C2529971   7.020   2.901   2.318 -0.5575  0.5133 -0.0438
   94MOL    C2629972   6.960   3.164   2.126  0.2794 -0.3099 -0.3745
   94MOL    H2729973   7.036   3.245   2.312 -0.6866  0.6366 -1.0986
   94MOL    H2829974   6.774   2.971   2.605 -1.0526  0.8081  0.0096
   94MOL    H2929975   6.859   2.726   2.561 -0.4035  1.3263  0.7950
   94MOL    H3029976   7.015   2.687   2.384  0.4353  0.4927 -1.3561
   94MOL    H3129977   7.093   2.883   2.240 -2.7424 -2.7381 -1.4385
   94MOL    H3229978   6.853   3.164   2.145  0.7164 -0.9872  2.3123
   94MOL    H3329979   6.991   3.079   2.064 -2.4090 -1.6565  0.0327
   94MOL    C3429980   6.978   3.300   2.053 -0.2959  0.3257  0.6389
   94MOL    C3529981   6.956   3.431   2.131  0.4674 -0.0690  0.1313
   94MOL    C3629982   7.057   3.530   2.144 -0.3807 -0.3593 -0.6495
   94MOL   Cl3729983   7.211   3.511   2.076 -0.0527 -0.0307  0.1478
   94MOL    C3829984   7.036   3.639   2.227 -0.6206 -0.6440 -0.9330
   94MOL    C3929985   6.913   3.658   2.286 -0.3056  0.2358 -0.2183
   94MOL    C4029986   6.808   3.573   2.263  0.3474 -0.1419  0.0643
   94MOL    C4129987   6.825   3.455   2.186 -0.1212 -0.7086 -0.8005
   94MOL    C4229988   6.909   3.308   1.915  0.1518  0.1569 -0.4095
   94MOL    H4329989   7.086   3.286   2.048 -0.3468  0.0124  0.4011
   94MOL    H4429990   7.121   3.703   2.245 -0.9946 -0.2846 -0.4318
   94MOL    H4529991   6.903   3.745   2.350  0.1999 -0.4066  0.7325
   94MOL    H4629992   6.712   3.593   2.307  0.3005  0.6348 -0.3676
   94MOL    H4729993   6.739   3.390   2.176 -1.4688  1.1860 -1.8761
   94MOL    H4829994   6.915   3.413   1.885 -0.3719  1.6098  4.0479
   94MOL    H4929995   6.802   3.289   1.931 -0.0194  0.3715 -1.2566
   94MOL    C5029996   6.966   3.215   1.807 -0.8762  0.0295 -0.4713
   94MOL    C5129997   7.105   3.258   1.760 -0.0200  0.5200  0.0412
   94MOL    C5229998   7.221   3.182   1.785  0.5878 -0.1530  0.0927
   94MOL   Cl5329999   7.211   3.046   1.885 -0.0316 -0.4040 -0.0742
   94MOL    C5430000   7.348   3.227   1.742 -0.5174 -0.0297  0.5880
   94MOL    C5530001   7.363   3.342   1.664  0.1495  0.0932  0.1782
   94MOL    C5630002   7.245   3.416   1.638 -0.5206 -0.4495  0.4340
   94MOL    C5730003   7.120   3.383   1.696  0.2204 -0.2672  0.1488
   94MOL    C5830004   6.873   3.218   1.688  0.0696  0.6481 -0.1137
   94MOL    H5930005   6.970   3.110   1.837  1.7590  0.3206  0.3383
   94MOL    H6030006   7.429   3.160   1.764 -0.9979 -1.1905 -1.1507
   94MOL    H6130007   7.455   3.381   1.624  0.1316 -2.0335 -2.0573
   94MOL    H6230008   7.251   3.498   1.568 -1.9189  0.5151  1.4169
   94MOL    H6330009   7.035   3.445   1.672  1.2091  0.8804 -0.4095
   94MOL    H6430010   6.940   3.200   1.604 -0.8540 -0.2805 -0.6758
   94MOL    H6530011   6.834   3.319   1.673 -1.8795 -0.2562 -1.3862
   94MOL    C6630012   6.760   3.105   1.666  0.0017 -0.2183 -0.0388
   94MOL    C6730013   6.812   2.968   1.657 -0.9075  0.1377  0.4171
   94MOL    C6830014   6.780   2.867   1.750 -0.1968  0.1586  0.8297
   94MOL   Cl6930015   6.677   2.900   1.884 -0.1687 -0.5216  0.3596
   94MOL    C7030016   6.832   2.738   1.736  0.0198  0.0976  0.1959
   94MOL    C7130017   6.912   2.704   1.622 -0.2853  0.6142  0.4098
   94MOL    C7230018   6.938   2.804   1.521  0.5890  0.6499 -0.3280
   94MOL    C7330019   6.893   2.936   1.542  0.6505 -0.3755 -0.1561
   94MOL    C7430020   6.685   3.135   1.532 -0.0368 -0.6470 -0.2260
   94MOL    H7530021   6.682   3.120   1.740  0.1599 -0.6599  0.2194
   94MOL    H7630022   6.812   2.658   1.806  0.5697  1.7750  2.3046
   94MOL    H7730023   6.952   2.605   1.606 -0.9345  0.6864 -1.8503
   94MOL    H7830024   6.999   2.781   1.435  3.2670 -2.6448  2.3537
   94MOL    H7930025   6.914   3.007   1.463  4.3505  0.7213  1.7333
   94MOL    H8030026   6.753   3.134   1.447 -0.3555 -2.0650 -0.4789
   94MOL    H8130027   6.648   3.238   1.532 -0.4209 -0.7699  0.9695
   94MOL    C8230028   6.572   3.036   1.485  0.6287  0.3421 -0.3386
   94MOL    C8330029   6.522   3.094   1.356  0.0257 -0.6478  0.0212
   94MOL    C8430030   6.582   3.054   1.234 -0.3518  0.4615 -0.1898
   94MOL   Cl8530031   6.709   2.935   1.233  0.0650 -0.0523 -0.4898
   94MOL    C8630032   6.542   3.113   1.113 -0.4942 -0.3087 -0.3156
   94MOL    C8730033   6.438   3.210   1.114 -0.3041 -1.2862 -0.2488
   94MOL    C8830034   6.375   3.248   1.232 -0.5629 -0.2131  0.0187
   94MOL    C8930035   6.418   3.189   1.353  0.0117 -0.1056 -0.2511
   94MOL    C9030036   6.464   3.020   1.588 -0.1522  0.3865 -0.2292
   94MOL    H9130037   6.630   2.947   1.462  1.0175  0.5707 -0.2483
   94MOL    H9230038   6.591   3.077   1.024 -0.7457  0.1570 -0.6395
   94MOL    H9330039   6.398   3.250   1.022  0.5543 -1.1343 -0.5564
   94MOL    H9430040   6.294   3.319   1.233  0.4600  0.9746  0.0184
   94MOL    H9530041   6.373   3.235   1.440  0.2016 -1.1374  0.4056
   94MOL    H9630042   6.413   3.108   1.625 -0.0824  0.9421 -1.4551
   94MOL    H9730043   6.512   2.980   1.677 -1.9475  0.1563  0.6598
   94MOL    C9830044   6.360   2.907   1.556 -0.3734 -0.2555 -0.3919
   94MOL    C9930045   6.223   2.929   1.625  0.0523 -0.1188 -0.1173
   94MOL   C10030046   6.110   2.929   1.545  0.2807  0.5585  0.0595
   94MOL  Cl10130047   6.116   2.908   1.372  0.3442 -0.3342 -0.0936
   94MOL   C10230048   5.984   2.951   1.606  0.7269 -1.0046  0.1333
   94MOL   C10330049   5.970   2.991   1.742  0.0504 -0.2153  0.1096
   94MOL   C10430050   6.090   2.990   1.821 -0.7680  0.6871 -0.4503
   94MOL   C10530051   6.214   2.963   1.760 -0.4162 -1.1778 -0.1449
   94MOL   C10630052   6.407   2.765   1.592  0.1400 -0.5003  0.3629
   94MOL   H10730053   6.353   2.897   1.448  0.1742 -1.9038 -0.2837
   94MOL   H10830054   5.895   2.958   1.544  0.9155 -0.2746 -0.0590
   94MOL   H10930055   5.874   3.021   1.781 -0.7777 -0.9353 -1.3342
   94MOL   H11030056   6.087   3.011   1.927 -0.1780  0.8964 -0.4724
   94MOL   H11130057   6.307   2.965   1.815 -0.6028 -2.5676  0.2294
   94MOL   H11230058   6.388   2.758   1.699  0.9444  0.2235  0.5603
   94MOL   H11330059   6.516   2.756   1.594  0.1675 -0.4371 -0.6658
   94MOL   C11430060   6.337   2.658   1.508  0.0008 -0.4353  0.5922
   94MOL   C11530061   6.324   2.524   1.587 -0.8597  0.6182 -0.3479
   94MOL   C11630062   6.415   2.427   1.566 -0.5744  0.1845  0.2364
   94MOL  Cl11730063   6.570   2.463   1.496  0.3553 -0.0658  0.1526
   94MOL   C11830064   6.396   2.299   1.630 -0.4252  0.8726  0.1791
   94MOL   C11930065   6.295   2.284   1.718  0.2810  0.1236  0.4146
   94MOL   C12030066   6.203   2.388   1.738  0.3705  0.4185  0.5531
   94MOL   C12130067   6.207   2.505   1.662  0.3577 -0.0599  0.1900
   94MOL   C12230068   6.340   2.650   1.353 -0.6130  0.5068  0.3502
   94MOL   H12330069   6.238   2.701   1.514 -0.5642 -1.6965  0.4189
   94MOL   H12430070   6.470   2.222   1.612 -3.5472 -2.0091 -0.7634
   94MOL   H12530071   6.288   2.187   1.765  2.8300  0.5004  1.6284
   94MOL   H12630072   6.127   2.368   1.811  0.2685  2.3985  1.0316
   94MOL   H12730073   6.130   2.579   1.675  0.0824 -0.5578  1.4785
   94MOL   H12830074   6.446   2.640   1.329 -1.2190 -1.3406 -1.8012
   94MOL   H12930075   6.318   2.751   1.318 -0.2339  1.1822  2.0234
   94MOL   C13030076   6.271   2.543   1.277 -0.4706 -0.0410  0.0445
   94MOL   C13130077   6.305   2.534   1.130 -0.4095 -0.6366  0.4082
   94MOL   C13230078   6.376   2.430   1.068 -0.1697  0.4018 -0.0461
   94MOL  Cl13330079   6.454   2.315   1.168  0.5643 -0.2498  0.3716
   94MOL   C13430080   6.392   2.428   0.929 -0.5652  0.5244 -0.0271
   94MOL   C13530081   6.314   2.517   0.852  0.0604 -0.2344  0.5222
   94MOL   C13630082   6.254   2.624   0.915 -0.3576 -0.2342  0.0310
   94MOL   C13730083   6.257   2.637   1.050  0.4958 -0.4570 -0.3445
   94MOL   C13830084   6.112   2.527   1.299 -0.0652  0.4419 -0.6965
   94MOL   H13930085   6.318   2.454   1.321  0.8211  0.4477 -0.3198
   94MOL   H14030086   6.457   2.353   0.889 -0.4716  1.0382 -0.8459
   94MOL   H14130087   6.317   2.519   0.744  0.5233  1.7713  0.5455
   94MOL   H14230088   6.203   2.705   0.865 -0.5251 -0.0424  0.5007
   94MOL   H14330089   6.201   2.719   1.093 -0.7188 -1.6794  0.4641
   94MOL   H14430090   6.065   2.607   1.242  2.7979  1.7580 -1.3042
   94MOL   H14530091   6.080   2.556   1.399  1.2119 -1.8008  0.4072
   94MOL   C14630092   6.042   2.393   1.260 -0.3169 -0.4141 -0.8658
   94MOL   C14730093   5.895   2.410   1.218 -0.2278  0.0782 -0.0302
   94MOL   C14830094   5.867   2.426   1.082 -0.2783 -0.1963 -0.0599
   94MOL  Cl14930095   5.984   2.411   0.963 -0.0939 -0.0752 -0.2756
   94MOL   C15030096   5.731   2.460   1.050  0.4023  0.3771  0.1922
   94MOL   C15130097   5.633   2.465   1.145 -0.0649  0.0720  0.2411
   94MOL   C15230098   5.659   2.437   1.278 -0.0343 -0.2346 -0.6914
   94MOL   C15330099   5.795   2.412   1.320  0.7186 -1.3578  0.7367
   94MOL   C15430100   6.064   2.284   1.374 -0.1431  0.4879 -0.4327
   94MOL   H15530101   6.095   2.352   1.174 -0.5474 -0.4263 -1.0039
   94MOL   H15630102   5.710   2.484   0.947 -0.2734  1.9518  0.6838
   94MOL   H15730103   5.534   2.496   1.115  0.6965  2.5839  0.2622
   94MOL   H15830104   5.584   2.443   1.355  1.4130  1.6150  0.6372
   94MOL   H15930105   5.812   2.401   1.426  1.2211  0.8273  0.9144
   94MOL   H16030106   6.012   2.314   1.464  1.0849 -1.9034  1.1486
   94MOL   H16130107   6.167   2.287   1.409 -0.5410  0.6728  0.7229
   94MOL   C16230108   6.042   2.131   1.337 -0.3853  0.0764 -0.5834
   94MOL   C16330109   6.045   2.044   1.462  0.0763  0.6222  0.1667
   94MOL   C16430110   5.931   1.989   1.523  0.2837  0.3146  0.3698
   94MOL  Cl16530111   5.776   2.015   1.459 -0.0815 -0.6090  0.3471
   94MOL   C16630112   5.945   1.920   1.647  0.5727 -0.3192  0.9724
   94MOL   C16730113   6.070   1.894   1.706  0.5547 -0.3404  0.0971
   94MOL   C16830114   6.187   1.946   1.640 -0.0376 -0.3930  0.1003
   94MOL   C16930115   6.171   2.023   1.520  0.3595 -0.0152 -0.4459
   94MOL   C17030116   6.140   2.083   1.233 -0.1829 -0.0318 -0.3298
   94MOL   H17130117   5.942   2.124   1.295  0.0535 -0.3937 -1.5656
   94MOL   H17230118   5.853   1.873   1.680  0.2322 -0.2049  0.2088
   94MOL   H17330119   6.075   1.837   1.798  3.6251 -0.5764 -0.1548
   94MOL   H17430120   6.287   1.927   1.676 -0.2769  0.2376  1.1081
   94MOL   H17530121   6.266   2.051   1.476  0.1633  1.1393 -0.1559
   94MOL   H17630122   6.189   1.994   1.271 -1.9642 -0.5279  0.9027
   94MOL   H17730123   6.209   2.159   1.199  0.4873 -0.3837  0.2342
   94MOL   C17830124   6.070   2.026   1.108  0.1962 -0.7089  0.4576
   94MOL   C17930125   5.970   1.909   1.141 -0.4853 -0.5661 -0.0391
   94MOL   C18030126   5.835   1.923   1.117  0.4340 -0.0964  0.8817
   94MOL  Cl18130127   5.765   2.069   1.050 -0.2309  0.4119  0.1104
   94MOL   C18230128   5.747   1.819   1.138  0.5517  0.4933  0.0060
   94MOL   C18330129   5.797   1.697   1.183  0.2361 -0.2488 -0.5998
   94MOL   C18430130   5.932   1.677   1.215  0.5009  0.2478 -0.3561
   94MOL   C18530131   6.021   1.782   1.192 -0.6542 -0.4516  0.5889
   94MOL   C18630132   6.179   1.983   1.005 -0.1726 -0.1704  0.5718
   94MOL   H18730133   6.008   2.107   1.070 -0.3646 -1.4662 -0.2653
   94MOL   H18830134   5.640   1.819   1.128  0.5811 -0.6952 -0.3313
   94MOL   H18930135   5.727   1.621   1.212  1.2449 -0.8704  0.2693
   94MOL   H19030136   5.959   1.578   1.249  0.5060 -0.2193 -1.6644
   94MOL   H19130137   6.127   1.772   1.208 -0.2424  1.4808 -0.6973
   94MOL   H19230138   6.218   1.883   1.024 -2.0830 -0.9700  0.4274
   94MOL   H19330139   6.259   2.057   0.999  0.3687 -0.7529  0.4867
   94MOL   C19430140   6.126   1.976   0.861 -0.0439  0.3599 -0.4197
   94MOL   C19530141   6.185   1.859   0.780  0.4106 -0.3811 -0.8121
   94MOL   C19630142   6.103   1.752   0.736 -0.1113 -0.1508 -0.1420
   94MOL  Cl19730143   5.934   1.739   0.769 -0.2009 -0.0516 -0.3082
   94MOL   C19830144   6.165   1.635   0.685  0.0627 -0.5371  0.1640
   94MOL   C19930145   6.300   1.625   0.669 -0.6303  0.1639  0.2569
   94MOL   C20030146   6.381   1.729   0.713 -0.6903  0.1684  0.2217
   94MOL   C20130147   6.325   1.848   0.763 -0.1009 -0.8479 -0.3447
   94MOL   C20230148   6.131   2.106   0.782  0.7316  0.5541  0.1284
   94MOL   H20330149   6.019   1.960   0.871  0.2957 -2.3122 -0.7078
   94MOL   H20430150   6.097   1.553   0.672 -1.1730  0.2491  1.4785
   94MOL   H20530151   6.337   1.537   0.619 -0.7865  1.3694 -2.0512
   94MOL   H20630152   6.484   1.721   0.684 -0.6473  0.7667  0.1957
   94MOL   H20730153   6.389   1.931   0.789 -3.0883  1.2775  0.5166
   94MOL   H20830154   6.233   2.112   0.743  0.1417  1.2565 -1.3306
   94MOL   H20930155   6.116   2.198   0.839  0.7386  1.2142 -0.9269
   94MOL   C21030156   6.034   2.105   0.660  0.3961 -0.5174  0.0723
   94MOL   C21130157   6.085   2.194   0.551 -0.7127  0.2951  0.7488
   94MOL   C21230158   6.155   2.137   0.439 -0.0090  0.9007  0.1433
   94MOL  Cl21330159   6.182   1.973   0.409 -0.1557  0.0226 -0.0415
   94MOL   C21430160   6.206   2.225   0.342 -0.2474  0.3937  0.2489
   94MOL   C21530161   6.182   2.362   0.349 -0.2074 -0.6621 -0.0708
   94MOL   C21630162   6.117   2.415   0.458 -0.2771  0.1670 -0.1726
   94MOL   C21730163   6.060   2.330   0.551  0.3796  0.1345  0.1308
   94MOL   C21830164   5.886   2.127   0.699  0.3093  0.1286 -0.0491
   94MOL   H21930165   6.034   2.001   0.627  0.4826 -1.9190  4.2680
   94MOL   H22030166   6.247   2.179   0.254 -0.0484  0.0796  0.5059
   94MOL   H22130167   6.228   2.435   0.285  0.4540 -1.5921 -0.6718
   94MOL   H22230168   6.128   2.522   0.471 -1.2395  0.3553 -0.8092
   94MOL   H22330169   6.001   2.386   0.621  1.4990  1.8020 -0.2139
   94MOL   H22430170   5.883   2.230   0.734  0.2755  0.0576  0.1577
   94MOL   H22530171   5.862   2.081   0.795 -3.1662  2.3289  0.2479
   94MOL   C22630172   5.769   2.116   0.600 -0.0647  0.2218 -0.5228
   94MOL   C22730173   5.633   2.131   0.664 -0.1428  0.5296  0.0670
   94MOL   C22830174   5.541   2.231   0.630 -0.0301  0.9281 -0.5372
   94MOL  Cl22930175   5.588   2.356   0.525  0.4872  0.3475  0.6537
   94MOL   C23030176   5.406   2.241   0.672 -0.4330  0.0671 -0.8513
   94MOL   C23130177   5.371   2.151   0.777  0.0295  0.3024  0.0252
   94MOL   C23230178   5.461   2.049   0.815 -0.5922 -0.3824  0.9768
   94MOL   C23330179   5.587   2.033   0.757 -0.2099 -0.6230 -0.4617
   94MOL   C23430180   5.776   1.990   0.516  0.7491 -0.2372  0.5365
   94MOL   H23530181   5.794   2.195   0.530 -0.1281  1.2400  0.5721
   94MOL   H23630182   5.334   2.320   0.653 -0.2609  1.6676  4.4779
   94MOL   H23730183   5.271   2.160   0.815  0.8568 -1.3100  2.7307
   94MOL   H23830184   5.428   1.970   0.881  4.4945 -2.2939  1.5213
   94MOL   H23930185   5.650   1.952   0.791 -1.2980  0.3783  4.3313
   94MOL   H24030186   5.750   1.908   0.583 -1.0262  0.9852  1.4008
   94MOL   H24130187   5.877   1.972   0.482  0.3204 -2.0585  0.1784
   94MOL   C24230188   5.675   1.997   0.395  0.0498 -0.1336  0.3813
   94MOL   C24330189   5.636   1.856   0.355 -0.2309 -0.0895 -0.7118
   94MOL   C24430190   5.502   1.814   0.337  0.0898 -0.8108 -0.3743
   94MOL  Cl24530191   5.376   1.931   0.341  0.5124 -0.2549  0.5264
   94MOL   C24630192   5.471   1.676   0.321  0.1124 -0.1181  0.5893
   94MOL   C24730193   5.571   1.584   0.316  0.4149  0.2776 -0.1243
   94MOL   C24830194   5.704   1.627   0.327  0.1681  0.2399 -0.1448
   94MOL   C24930195   5.742   1.759   0.343  0.4270 -0.1335  0.2504
   94MOL   C25030196   5.739   2.080   0.281  0.0073  0.2845 -0.0754
   94MOL   H25130197   5.585   2.056   0.415 -1.5691 -1.8199 -1.6906
   94MOL   H25230198   5.370   1.638   0.329 -0.3499  1.3295  1.8033
   94MOL   H25330199   5.548   1.481   0.293 -3.2719  1.0837 -0.3916
   94MOL   H25430200   5.780   1.553   0.304  0.7345  0.7937 -0.0623
   94MOL   H25530201   5.845   1.788   0.336  0.7096 -0.7912  1.4124
   94MOL   H25630202   5.801   2.006   0.230 -0.4964 -1.0411  1.2006
   94MOL   H25730203   5.797   2.165   0.316  0.1895 -0.5001  1.5879
   94MOL   C25830204   5.639   2.137   0.171  0.0868 -0.1543 -0.4057
   94MOL   C25930205   5.714   2.140   0.035  0.0365  0.4208  0.6287
   94MOL   C26030206   5.668   2.078   8.339 -0.3233 -0.0577  0.5823
   94MOL  Cl26130207   5.519   1.991   8.331  0.4126  0.3772  0.1986
   94MOL   C26230208   5.752   2.083   8.222 -0.4067  0.2124 -0.0609
   94MOL   C26330209   5.869   2.158   8.212  0.3716 -0.1494 -0.1099
   94MOL   C26430210   5.910   2.226   8.331  0.9455  0.2330 -0.1683
   94MOL   C26530211   5.833   2.217   0.026  0.2510  0.2072 -1.0662
   94MOL   C26630212   5.567   2.268   0.214 -1.1067  0.5540 -0.9558
   94MOL   H26730213   5.562   2.061   0.161  0.6745 -1.0379  1.5842
   94MOL   H26830214   5.717   2.035   8.132 -0.6698  1.2708 -0.5280
   94MOL   H26930215   5.931   2.154   8.124  1.1163  1.2431  0.3272
   94MOL   H27030216   5.998   2.288   8.324  0.6925  0.9158  2.2600
   94MOL   H27130217   5.869   2.258   0.119 -2.6332 -0.4646  0.4076
   94MOL   H27230218   5.645   2.337   0.246  1.4982 -2.9310  0.6646
   94MOL   H27330219   5.504   2.258   0.302 -0.2703 -2.0371 -0.5919
   94MOL   C27430220   5.497   2.337   0.097 -0.2222 -0.0105 -1.0019
   94MOL   C27530221   5.458   2.481   0.144 -0.3428  0.7397  0.0886
   94MOL   C27630222   5.525   2.589   0.085  0.5709 -0.2387  0.7168
   94MOL  Cl27730223   5.665   2.571   8.396  0.3900  0.1846  0.1400
   94MOL   C27830224   5.481   2.720   0.110 -0.6839  0.0625 -0.3277
   94MOL   C27930225   5.374   2.738   0.196 -0.8185 -0.0915 -0.2701
   94MOL   C28030226   5.323   2.634   0.271 -0.4676 -0.6696 -0.8767
   94MOL   C28130227   5.361   2.501   0.241 -0.1623 -0.3812 -0.1099
   94MOL   C28230228   5.374   2.253   0.041  0.0830  0.1401  0.7164
   94MOL   H28330229   5.560   2.350   0.009 -0.0188 -1.4107 -1.0698
   94MOL   H28430230   5.540   2.799   0.065 -0.5456 -0.3602 -0.8976
   94MOL   H28530231   5.341   2.837   0.223  0.0412 -0.4296  2.1836
   94MOL   H28630232   5.250   2.652   0.348 -2.7363 -1.9309 -2.6795
   94MOL   H28730233   5.315   2.425   0.301  2.1033 -0.8791  1.0761
   94MOL   H28830234   5.293   2.275   0.110 -2.3520  0.1251 -1.9935
   94MOL   H28930235   5.369   2.149   0.073 -0.3287 -0.9956 -2.8302
   94MOL   C29030236   5.326   2.288   8.311  0.2303 -0.0332 -0.2782
   94MOL   C29130237   5.264   2.423   8.304 -0.7402 -0.1828 -0.8260
   94MOL   C29230238   5.312   2.531   8.226 -0.3958  0.3553 -0.1934
   94MOL  Cl29330239   5.424   2.503   8.101 -0.1440  0.0503  0.0975
   94MOL   C29430240   5.258   2.660   8.240 -0.1829  0.1780 -0.4895
   94MOL   C29530241   5.161   2.684   8.335 -0.8404  0.3525  0.3102
   94MOL   C29630242   5.118   2.578   8.417 -0.3106  0.0856  0.0395
   94MOL   C29730243   5.167   2.450   8.398 -0.6754 -0.4384  0.5363
   94MOL   C29830244   5.231   2.181   8.250  0.2539  0.7983  0.0139
   94MOL   H29930245   5.420   2.284   8.256  0.0413  1.7117 -0.7536
   94MOL   H30030246   5.299   2.740   8.179  1.2734 -1.4987 -1.7620
   94MOL   H30130247   5.125   2.786   8.345  0.1907  0.8766 -1.1606
   94MOL   H30230248   5.057   2.601   0.082 -0.0149 -0.7138  0.4665
   94MOL   H30330249   5.133   2.372   0.044  2.0526 -2.5581 -0.4827
   94MOL   H30430250   5.141   2.194   8.310  0.0714 -1.0149  0.1587
   94MOL   H30530251   5.260   2.078   8.267  2.4321  1.4464  0.3289
   94MOL   C30630252   5.191   2.200   8.101 -0.3631  0.0535 -0.3077
   94MOL   C30730253   5.060   2.144   8.071 -0.0771 -1.1025 -0.4170
   94MOL   C30830254   4.943   2.224   8.049 -0.7545  0.0016 -0.6636
   94MOL  Cl30930255   4.954   2.392   8.008  0.3068  0.0433  0.2597
   94MOL   C31030256   4.817   2.161   8.039  0.4147 -0.4562 -0.0353
   94MOL   C31130257   4.804   2.023   8.056 -0.5327  0.5134  0.1076
   94MOL   C31230258   4.917   1.943   8.073 -0.4926 -0.2545  0.5399
   94MOL   C31330259   5.042   2.004   8.073  0.0929  0.0759  0.1172
   94MOL   C31430260   5.310   2.158   8.015  0.1043  0.5058  0.2634
   94MOL   H31530261   5.182   2.304   8.071 -0.5623 -0.2742 -1.3897
   94MOL   H31630262   4.729   2.220   8.020  0.9395  0.2356 -0.3740
   94MOL   H31730263   4.706   1.978   8.055  0.2043 -1.1180 -0.7046
   94MOL   H31830264   4.912   1.836   8.090 -0.3093 -0.5094 -0.9258
   94MOL   H31930265   5.126   1.942   8.100  0.3356  0.0133 -0.7718
   94MOL   H32030266   5.409   2.191   8.045 -0.4467  2.4477 -0.0350
   94MOL   H32130267   5.302   2.176   7.908  0.6712  0.2403  0.1700
   94MOL   H32230268   5.322   2.049   8.018  1.0685  0.6308  1.0471
   95MOL     C130269   2.277   2.063   3.316 -0.2016 -0.3628  0.2986
   95MOL     C230270   2.402   1.977   3.307 -0.9849  0.4257 -0.2159
   95MOL     C330271   2.494   1.975   3.411 -0.1489 -0.3728 -0.4456
   95MOL    Cl430272   2.466   2.061   3.555 -0.3967  0.3383 -0.1525
   95MOL     C530273   2.614   1.903   3.395 -0.0917  0.7554 -0.2171
   95MOL     C630274   2.641   1.830   3.282  0.1869  0.6578 -0.9168
   95MOL     C730275   2.547   1.822   3.181 -1.0518  0.4684 -1.0272
   95MOL     C830276   2.426   1.895   3.191 -0.5632  0.2990  1.0514
   95MOL     C930277   2.145   1.997   3.312 -0.2305 -0.1041 -0.0323
   95MOL    H1030278   2.270   2.140   3.393 -1.2291  1.0800 -1.1927
   95MOL    H1130279   2.687   1.892   3.474  0.4678  1.2836 -0.6496
   95MOL    H1230280   2.730   1.772   3.264 -2.2042 -3.1331 -1.0873
   95MOL    H1330281   2.570   1.754   3.101  2.6786 -0.8368  1.0333
   95MOL    H1430282   2.366   1.893   3.101  2.0359  1.7756 -0.7875
   95MOL    H1530283   2.143   1.913   3.382 -1.0639 -1.1248 -1.2796
   95MOL    H1630284   2.142   1.952   3.213  0.5010 -0.5468  0.1363
   95MOL    H1730285   2.280   2.120   3.222 -1.9084 -1.2722 -0.3248
   95MOL    C1830286   2.021   2.093   3.318 -0.6268  0.0511 -0.1171
   95MOL    C1930287   2.021   2.172   3.441  0.0770 -0.4562  0.3240
   95MOL    C2030288   2.049   2.314   3.450  0.0302 -0.2779 -0.2286
   95MOL   Cl2130289   2.114   2.395   3.307 -0.1958 -0.0620 -0.0488
   95MOL    C2230290   2.044   2.384   3.576 -0.5161 -0.4639  0.3288
   95MOL    C2330291   1.999   2.311   3.692 -0.0180  0.3721  0.1521
   95MOL    C2430292   1.977   2.172   3.688  1.0070 -0.2418  0.3190
   95MOL    C2530293   1.992   2.109   3.566  0.0638  1.1458 -0.4794
   95MOL    C2630294   1.886   2.028   3.277  0.0489 -0.5055  0.1929
   95MOL    H2730295   2.047   2.162   3.238  0.3729  0.0658  0.2132
   95MOL    H2830296   2.070   2.486   3.601 -0.1828  0.2486 -2.7279
   95MOL    H2930297   2.007   2.358   3.789 -0.4131 -0.8963  0.8040
   95MOL    H3030298   1.945   2.115   3.774 -1.8951  0.4808 -0.2556
   95MOL    H3130299   1.969   2.004   3.580  0.1434  1.2756  0.6867
   95MOL    H3230300   1.873   1.950   3.353  1.3620 -0.3516  0.5878
   95MOL    H3330301   1.911   1.963   3.193 -2.8456 -0.4355 -0.7770
   95MOL    C3430302   1.772   2.128   3.258  0.3758  0.3523 -0.3373
   95MOL    C3530303   1.639   2.054   3.241 -0.2841  0.0719  0.1196
   95MOL    C3630304   1.523   2.111   3.310 -0.3201 -0.7758 -0.4400
   95MOL   Cl3730305   1.530   2.269   3.384 -0.0573  0.3818  0.0096
   95MOL    C3830306   1.398   2.046   3.305  0.0958 -0.5275 -0.2700
   95MOL    C3930307   1.391   1.920   3.247 -0.0970 -0.5659  0.7045
   95MOL    C4030308   1.501   1.857   3.196 -0.2124 -0.5768  0.2982
   95MOL    C4130309   1.625   1.922   3.198 -0.5169  0.1935  0.2437
   95MOL    C4230310   1.779   2.227   3.145 -0.2192  0.0722  0.2787
   95MOL    H4330311   1.759   2.195   3.343 -0.7220 -0.4567  0.1567
   95MOL    H4430312   1.312   2.090   3.354  1.7060  2.3501  0.1013
   95MOL    H4530313   1.295   1.872   3.260  0.0870 -0.6532  1.8356
   95MOL    H4630314   1.491   1.756   3.158 -1.8684 -0.4226  0.2760
   95MOL    H4730315   1.711   1.867   3.163  0.8107  2.5984 -0.3604
   95MOL    H4830316   1.852   2.301   3.178 -0.8370  1.3813 -1.3041
   95MOL    H4930317   1.687   2.279   3.123  0.7172  1.5160 -0.2644
   95MOL    C5030318   1.801   2.171   2.998  0.2209 -0.3555 -0.0601
   95MOL    C5130319   1.934   2.103   2.965  1.3106 -0.3001  0.2762
   95MOL    C5230320   1.943   1.977   2.910  0.3701  0.9209  0.2343
   95MOL   Cl5330321   1.816   1.861   2.913 -0.3200 -0.0911 -0.0233
   95MOL    C5430322   2.066   1.940   2.852 -0.1861  0.1790 -0.3757
   95MOL    C5530323   2.186   2.013   2.866  0.4324  0.2790 -0.0872
   95MOL    C5630324   2.175   2.136   2.936  0.0351  0.4279  0.0667
   95MOL    C5730325   2.051   2.190   2.968 -0.3008  0.2837 -0.5432
   95MOL    C5830326   1.773   2.272   2.886  0.4663  0.2696  0.4141
   95MOL    H5930327   1.722   2.097   2.985 -0.6123  0.4250  0.5410
   95MOL    H6030328   2.089   1.842   2.815  0.6549  1.1773 -2.6128
   95MOL    H6130329   2.281   1.975   2.830  0.4901  1.3096 -1.0492
   95MOL    H6230330   2.266   2.192   2.951  2.3060 -2.9719 -0.5327
   95MOL    H6330331   2.062   2.289   3.011  1.6668 -0.2278  0.1841
   95MOL    H6430332   1.802   2.227   2.791 -1.3822  0.6775 -0.3560
   95MOL    H6530333   1.839   2.359   2.891  0.5330  0.1988  0.8250
   95MOL    C6630334   1.636   2.337   2.856  0.1935  0.1959  0.0775
   95MOL    C6730335   1.518   2.228   2.863  0.1372 -0.6922 -0.2407
   95MOL    C6830336   1.414   2.238   2.961  0.1471  0.0919 -0.1824
   95MOL   Cl6930337   1.420   2.358   3.085  0.2999  0.2558 -0.0248
   95MOL    C7030338   1.317   2.138   2.978  0.4774  1.3058 -0.2303
   95MOL    C7130339   1.320   2.029   2.882 -0.4736 -0.3259 -0.5227
   95MOL    C7230340   1.417   2.023   2.780 -0.4797  0.1471  0.4440
   95MOL    C7330341   1.524   2.120   2.774  0.0783 -0.5911  0.0082
   95MOL    C7430342   1.638   2.416   2.717 -0.4264  0.0180  1.2003
   95MOL    H7530343   1.628   2.396   2.948 -0.8448  1.3178 -0.7205
   95MOL    H7630344   1.235   2.132   3.049  1.1285  0.5985  0.4662
   95MOL    H7730345   1.249   1.948   2.884  0.4532 -1.1946 -1.7684
   95MOL    H7830346   1.419   1.935   2.717  0.4950  1.6918 -1.7682
   95MOL    H7930347   1.585   2.115   2.685  0.0530 -0.7891  0.0014
   95MOL    H8030348   1.645   2.347   2.632 -2.8625  1.9015 -0.6220
   95MOL    H8130349   1.717   2.490   2.708 -2.0203  1.4960 -1.6197
   95MOL    C8230350   1.507   2.497   2.697  0.2288  0.2849  0.1508
   95MOL    C8330351   1.464   2.487   2.548 -0.3910  0.3866 -0.5295
   95MOL    C8430352   1.360   2.401   2.501 -0.3253  0.1690 -0.3950
   95MOL   Cl8530353   1.253   2.331   2.610 -0.5742 -0.1868 -0.6605
   95MOL    C8630354   1.326   2.390   2.364  0.3082 -0.0894 -0.1427
   95MOL    C8730355   1.399   2.468   2.276  0.2944 -0.9722  0.3439
   95MOL    C8830356   1.507   2.544   2.318 -0.3416 -0.1223  0.3295
   95MOL    C8930357   1.540   2.560   2.453  0.0686  0.4079  0.3363
   95MOL    C9030358   1.522   2.641   2.744 -0.0554 -0.5195  0.2654
   95MOL    H9130359   1.429   2.448   2.756  0.8207 -1.6150 -0.6360
   95MOL    H9230360   1.252   2.321   2.327 -1.3382  1.3931  0.3403
   95MOL    H9330361   1.377   2.466   2.170 -0.5617  1.8780  0.4300
   95MOL    H9430362   1.571   2.596   2.248 -0.4282  0.1207  0.4329
   95MOL    H9530363   1.620   2.626   2.484 -0.3420  1.5117 -0.9015
   95MOL    H9630364   1.555   2.715   2.671 -0.8862 -0.5136 -0.1091
   95MOL    H9730365   1.604   2.640   2.817 -1.9133 -0.5544  2.3923
   95MOL    C9830366   1.398   2.703   2.810 -0.1654 -0.3731  0.0036
   95MOL    C9930367   1.276   2.706   2.724 -0.7644 -0.7424 -0.2008
   95MOL   C10030368   1.150   2.655   2.769 -0.2948  0.8566 -0.1319
   95MOL  Cl10130369   1.128   2.594   2.930  0.5534  0.4479 -0.1581
   95MOL   C10230370   1.034   2.657   2.693 -0.3817  0.9248  0.1281
   95MOL   C10330371   1.043   2.707   2.560  0.3405  0.0725  0.2375
   95MOL   C10430372   1.168   2.758   2.517 -0.0857  0.0192 -0.6716
   95MOL   C10530373   1.286   2.761   2.600  0.9784 -0.5572  0.2509
   95MOL   C10630374   1.418   2.840   2.887  0.3065  0.1776 -1.1566
   95MOL   H10730375   1.377   2.634   2.892 -1.7016 -1.2009 -1.0603
   95MOL   H10830376   0.942   2.613   2.728 -0.2915 -0.3112 -1.1253
   95MOL   H10930377   0.962   2.711   2.488 -0.2500  2.9675  0.9732
   95MOL   H11030378   1.177   2.794   2.415  2.3945 -1.6148 -1.0692
   95MOL   H11130379   1.380   2.801   2.565  1.3165 -0.6999  1.0110
   95MOL   H11230380   1.330   2.857   2.948  0.6265  2.1412 -1.2278
   95MOL   H11330381   1.404   2.921   2.816 -2.6848  0.8103  0.0960
   95MOL   C11430382   1.546   2.883   2.964  0.2258  0.4492 -0.1834
   95MOL   C11530383   1.615   2.772   3.055 -0.5123  0.4096  0.0142
   95MOL   C11630384   1.757   2.740   3.042 -0.1592  0.6728  0.2632
   95MOL  Cl11730385   1.857   2.824   2.930 -0.0192 -0.0592 -0.4022
   95MOL   C11830386   1.815   2.646   3.127  0.0933 -0.1361 -0.3081
   95MOL   C11930387   1.734   2.580   3.222  0.6644  0.6224  0.1107
   95MOL   C12030388   1.594   2.601   3.232 -0.0381  0.5450 -0.7371
   95MOL   C12130389   1.542   2.697   3.144 -0.2754  0.3495 -0.7584
   95MOL   C12230390   1.509   3.010   3.047  0.8937  0.0725 -0.0869
   95MOL   H12330391   1.618   2.911   2.888  1.7880 -0.9294  0.7566
   95MOL   H12430392   1.919   2.623   3.118  0.5007  0.2166  2.8174
   95MOL   H12530393   1.776   2.515   3.298 -1.3502 -1.7078 -0.7363
   95MOL   H12630394   1.539   2.538   3.300  0.7944 -0.2082 -0.7530
   95MOL   H12730395   1.437   2.718   3.158  0.3226  1.5729  2.4401
   95MOL   H12830396   1.432   2.995   3.123  0.0193  1.6395 -0.6531
   95MOL   H12930397   1.451   3.065   2.974 -0.4809 -0.7052  0.4060
   95MOL   C13030398   1.632   3.095   3.088 -0.1334 -1.1220  0.3896
   95MOL   C13130399   1.652   3.101   3.243  0.0438 -0.0787  0.1490
   95MOL   C13230400   1.781   3.063   3.303  0.4352 -0.1491  0.5156
   95MOL  Cl13330401   1.916   2.999   3.210  0.1319 -0.1802  0.2221
   95MOL   C13430402   1.794   3.080   3.442 -0.3184 -0.3336  0.0221
   95MOL   C13530403   1.685   3.131   3.521  0.8684  0.0231 -0.1648
   95MOL   C13630404   1.568   3.174   3.463 -0.2635  0.4306 -0.2449
   95MOL   C13730405   1.550   3.154   3.325  0.3622  0.0107 -0.7443
   95MOL   C13830406   1.621   3.248   3.047  0.4983  0.0797 -0.0414
   95MOL   H13930407   1.725   3.059   3.044  0.3671  1.0645 -0.3850
   95MOL   H14030408   1.884   3.053   3.495 -1.0202 -2.3785  0.1872
   95MOL   H14130409   1.691   3.148   3.627  0.3778  0.2591 -0.1738
   95MOL   H14230410   1.493   3.227   3.521 -0.1738  0.5713 -0.2574
   95MOL   H14330411   1.453   3.183   3.287  0.6592  0.1237 -1.4290
   95MOL   H14430412   1.718   3.289   3.076  0.6916 -1.9271  2.3792
   95MOL   H14530413   1.537   3.292   3.101  0.9723  1.3466 -0.3255
   95MOL   C14630414   1.608   3.286   2.900  0.1165  0.1076 -0.1685
   95MOL   C14730415   1.696   3.214   2.800 -0.0106  0.5135 -0.0460
   95MOL   C14830416   1.643   3.150   2.682  0.2278  0.0666  0.8947
   95MOL  Cl14930417   1.480   3.159   2.627 -0.0624 -0.1139  0.0560
   95MOL   C15030418   1.732   3.081   2.596 -0.1567 -0.7161  0.5143
   95MOL   C15130419   1.873   3.079   2.620  0.6507  0.2399 -0.3862
   95MOL   C15230420   1.918   3.136   2.741 -0.5434  0.4181 -0.4864
   95MOL   C15330421   1.829   3.196   2.835  0.6525 -0.3296  0.8868
   95MOL   C15430422   1.616   3.442   2.894 -0.0098 -0.3187  0.1127
   95MOL   H15530423   1.504   3.267   2.871 -0.5317  1.8033  0.9880
   95MOL   H15630424   1.703   3.027   2.508 -0.9291 -1.4122  1.1898
   95MOL   H15730425   1.939   3.025   2.554  0.5680 -1.3974  0.8599
   95MOL   H15830426   2.023   3.134   2.766 -0.9963 -1.3204  1.3643
   95MOL   H15930427   1.867   3.243   2.924 -0.1482 -0.9706  1.5753
   95MOL   H16030428   1.702   3.476   2.952 -0.5962 -2.1055  2.0868
   95MOL   H16130429   1.524   3.462   2.948 -0.1941 -0.1273 -0.2721
   95MOL   C16230430   1.635   3.512   2.755  0.4620  1.0579  0.0691
   95MOL   C16330431   1.724   3.636   2.769 -0.3272 -0.5492 -0.0493
   95MOL   C16430432   1.866   3.635   2.732  0.3069  0.5462  0.7547
   95MOL  Cl16530433   1.952   3.499   2.671  0.3853  0.1272 -0.2564
   95MOL   C16630434   1.942   3.752   2.747 -0.2745  0.1079  0.6057
   95MOL   C16730435   1.888   3.866   2.806  0.3273  0.7495  0.4693
   95MOL   C16830436   1.751   3.866   2.846 -0.1978 -0.6107  0.3429
   95MOL   C16930437   1.671   3.754   2.823  0.0775  1.0147  0.8908
   95MOL   C17030438   1.501   3.538   2.685  0.9988 -0.2598  0.2310
   95MOL   H17130439   1.699   3.449   2.693 -1.5789 -0.8844 -0.1552
   95MOL   H17230440   2.038   3.756   2.699 -0.4303  0.1411  0.2963
   95MOL   H17330441   1.947   3.956   2.811 -0.4183  1.2066  1.5317
   95MOL   H17430442   1.711   3.956   2.889 -1.3082 -0.5201 -0.8482
   95MOL   H17530443   1.569   3.765   2.855 -0.4164  2.1162 -0.9945
   95MOL   H17630444   1.445   3.606   2.749 -1.3486 -0.8049 -1.1682
   95MOL   H17730445   1.446   3.444   2.688  0.8577 -0.2547 -1.6088
   95MOL   C17830446   1.510   3.594   2.540  0.0602  0.3726 -0.2096
   95MOL   C17930447   1.379   3.662   2.488 -0.0768  0.0937  0.4952
   95MOL   C18030448   1.369   3.801   2.454 -0.7130  0.4985  0.7979
   95MOL  Cl18130449   1.496   3.913   2.478  0.3003 -0.0716  0.3433
   95MOL   C18230450   1.249   3.851   2.403 -0.3688 -0.4657 -0.0728
   95MOL   C18330451   1.139   3.768   2.388  0.5136  0.3617 -0.2016
   95MOL   C18430452   1.146   3.626   2.417 -0.0291 -0.1356 -0.4393
   95MOL   C18530453   1.266   3.579   2.469 -0.3979 -0.3590 -0.5749
   95MOL   C18630454   1.562   3.492   2.434 -0.7039  0.6441  0.0810
   95MOL   H18730455   1.589   3.668   2.542 -0.5866  1.0414  2.0614
   95MOL   H18830456   1.236   3.958   2.395  0.2451 -0.2545  1.4189
   95MOL   H18930457   1.050   3.806   2.340 -1.1554  1.0802  3.2827
   95MOL   H19030458   1.066   3.556   2.397 -0.1244 -0.6400  1.6732
   95MOL   H19130459   1.270   3.475   2.499 -1.1060 -0.1883  0.1378
   95MOL   H19230460   1.485   3.421   2.403  1.2841 -1.5741  0.0736
   95MOL   H19330461   1.632   3.421   2.476 -0.9113  2.2186  3.2191
   95MOL   C19430462   1.632   3.560   2.307 -0.2894  0.0842  0.1054
   95MOL   C19530463   1.634   3.478   2.178  0.2695  0.8855  0.0664
   95MOL   C19630464   1.578   3.525   2.060  0.0334  0.4332  0.0560
   95MOL  Cl19730465   1.494   3.677   2.053 -0.0814 -0.0063 -0.1349
   95MOL   C19830466   1.571   3.441   1.946  0.1588 -0.0292  0.3830
   95MOL   C19930467   1.611   3.306   1.954  0.3538 -0.5633 -0.7741
   95MOL   C20030468   1.671   3.257   2.066  0.4334 -0.6456  0.8131
   95MOL   C20130469   1.694   3.343   2.175 -0.6191 -0.5776 -0.2226
   95MOL   C20230470   1.770   3.617   2.345  0.4034 -0.0655  0.0738
   95MOL   H20330471   1.571   3.649   2.294 -0.3193 -0.2530 -2.1014
   95MOL   H20430472   1.518   3.480   1.860  1.2203  0.0021 -0.2758
   95MOL   H20530473   1.592   3.243   1.868 -0.0854  0.3122 -1.3313
   95MOL   H20630474   1.704   3.155   2.067  0.1587 -0.7267  2.0497
   95MOL   H20730475   1.738   3.318   2.270 -1.7682  0.7515  0.6823
   95MOL   H20830476   1.826   3.536   2.392  0.6508  0.3972  0.5815
   95MOL   H20930477   1.752   3.689   2.425  2.0446  1.5732 -0.9898
   95MOL   C21030478   1.852   3.682   2.237  0.4380 -0.7766  0.1173
   95MOL   C21130479   1.991   3.631   2.233 -0.3746  0.3159 -0.0108
   95MOL   C21230480   2.051   3.565   2.123  0.2144  0.0991 -0.8341
   95MOL  Cl21330481   1.961   3.513   1.991 -0.2472  0.1083  0.2983
   95MOL   C21430482   2.187   3.522   2.132 -0.3883 -0.8698  0.5584
   95MOL   C21530483   2.258   3.542   2.249 -0.5488 -0.7755 -0.3234
   95MOL   C21630484   2.205   3.611   2.358  0.2012  0.4817  0.5040
   95MOL   C21730485   2.074   3.659   2.348 -0.1092 -0.5170  0.2496
   95MOL   C21830486   1.833   3.836   2.240  0.3185  0.0183 -0.2546
   95MOL   H21930487   1.813   3.648   2.141  1.9494 -1.1138 -0.3882
   95MOL   H22030488   2.240   3.466   2.057 -0.6841  0.6297 -0.7997
   95MOL   H22130489   2.354   3.494   2.254  0.2470  0.7101 -1.0486
   95MOL   H22230490   2.260   3.614   2.451 -0.1416  1.7124  0.6834
   95MOL   H22330491   2.024   3.698   2.436 -0.8408 -1.9944  0.5197
   95MOL   H22430492   1.891   3.861   2.329 -0.4512  2.3211 -0.3569
   95MOL   H22530493   1.735   3.884   2.245  1.8013  3.0712  0.9701
   95MOL   C22630494   1.909   3.911   2.127 -0.2792 -0.3234  0.2925
   95MOL   C22730495   1.947   4.052   2.168  0.0682 -0.0358  0.2060
   95MOL   C22830496   2.080   4.080   2.214 -0.2145  1.1375 -0.2644
   95MOL  Cl22930497   2.209   3.965   2.214  0.1434 -0.1808 -0.1881
   95MOL   C23030498   2.114   4.208   2.265 -0.3263 -0.7249 -0.8455
   95MOL   C23130499   2.012   4.308   2.264  0.6142 -0.3467  0.5335
   95MOL   C23230500   1.882   4.282   2.225 -0.7714  0.5532 -0.4550
   95MOL   C23330501   1.848   4.158   2.171  0.3750  0.2620  0.4141
   95MOL   C23430502   1.841   3.889   1.994 -0.2409  0.3440 -0.0563
   95MOL   H23530503   2.004   3.858   2.113  0.5329  0.2535  3.2690
   95MOL   H23630504   2.209   4.223   2.314  0.0066 -1.8697 -1.1241
   95MOL   H23730505   2.026   4.410   2.297  0.7053 -0.8556  2.1036
   95MOL   H23830506   1.800   4.345   2.253  0.4642  1.6776  0.6986
   95MOL   H23930507   1.747   4.144   2.137  1.1409 -3.0589 -0.6855
   95MOL   H24030508   1.760   3.961   1.994  0.0185  0.6385 -0.1826
   95MOL   H24130509   1.780   3.799   1.988 -0.6002  0.6311 -0.8475
   95MOL   C24230510   1.918   3.917   1.860  0.0305  0.0794  0.0956
   95MOL   C24330511   1.820   3.959   1.749 -0.0028 -0.1903  0.3838
   95MOL   C24430512   1.804   4.092   1.700 -0.2275 -1.3172 -0.6235
   95MOL  Cl24530513   1.890   4.222   1.786 -0.2181  0.1827  0.1017
   95MOL   C24630514   1.734   4.112   1.582  0.5065  1.1755  0.3090
   95MOL   C24730515   1.664   4.011   1.513 -0.0089  0.1193 -0.3083
   95MOL   C24830516   1.675   3.884   1.564  0.4098  0.3682  0.2124
   95MOL   C24930517   1.752   3.854   1.682  0.2121  0.4718  0.3144
   95MOL   C25030518   2.011   3.798   1.829 -0.3791  0.3000 -0.3010
   95MOL   H25130519   1.987   3.999   1.882  1.0153 -0.7012 -0.0146
   95MOL   H25230520   1.730   4.214   1.549 -1.8779  1.7146  2.1225
   95MOL   H25330521   1.601   4.025   1.426  1.5753 -0.6245 -1.5950
   95MOL   H25430522   1.635   3.796   1.515  1.5369  1.3072 -2.5240
   95MOL   H25530523   1.772   3.754   1.718  1.3261 -0.0245 -1.6569
   95MOL   H25630524   1.949   3.708   1.834  0.0518  0.0395  0.6907
   95MOL   H25730525   2.074   3.793   1.918  1.5869 -0.0051 -1.6911
   95MOL   C25830526   2.082   3.806   1.690 -0.1487 -0.0431 -1.4583
   95MOL   C25930527   2.169   3.686   1.666 -0.4588  0.1177  0.0526
   95MOL   C26030528   2.122   3.570   1.605 -0.2645  0.2273  0.6005
   95MOL  Cl26130529   1.957   3.561   1.567 -0.3246 -0.2897 -0.0564
   95MOL   C26230530   2.210   3.466   1.569  0.5490 -0.6671 -0.2038
   95MOL   C26330531   2.344   3.477   1.597  0.6294 -0.4096  0.6490
   95MOL   C26430532   2.393   3.586   1.669 -0.9398 -1.1186  0.0741
   95MOL   C26530533   2.309   3.689   1.707 -0.1019 -0.0879  0.1822
   95MOL   C26630534   2.154   3.940   1.662  0.2692 -0.0717  0.0098
   95MOL   H26730535   1.999   3.800   1.620 -0.5807  0.0029 -0.9501
   95MOL   H26830536   2.174   3.379   1.515  4.2759 -0.5736 -3.0674
   95MOL   H26930537   2.412   3.399   1.567  1.3921 -0.0668  1.4956
   95MOL   H27030538   2.496   3.603   1.699 -1.0364  1.8842 -1.1596
   95MOL   H27130539   2.351   3.770   1.764  1.7400  0.1067 -1.3858
   95MOL   H27230540   2.229   3.948   1.740  0.1496  0.7832  0.0386
   95MOL   H27330541   2.095   4.028   1.687 -1.2466 -0.8689 -0.7104
   95MOL   C27430542   2.205   3.963   1.520  0.4078  0.0641 -0.1940
   95MOL   C27530543   2.322   4.065   1.512 -0.4331  0.5685 -0.3764
   95MOL   C27630544   2.455   4.016   1.505  0.0097 -0.2267  1.0132
   95MOL  Cl27730545   2.486   3.852   1.477 -0.5528  0.1980  0.6553
   95MOL   C27830546   2.558   4.108   1.486 -0.0897 -0.0458 -0.7942
   95MOL   C27930547   2.531   4.246   1.482  0.3713 -0.0134 -0.5575
   95MOL   C28030548   2.406   4.292   1.516 -0.2849 -0.1740  1.1456
   95MOL   C28130549   2.299   4.203   1.531 -0.3601  0.2494 -1.0965
   95MOL   C28230550   2.095   4.006   1.429  0.5441 -1.1329  0.2081
   95MOL   H28330551   2.237   3.863   1.491 -0.0433  0.4308 -2.0079
   95MOL   H28430552   2.651   4.066   1.450  0.2712  0.0221  0.0391
   95MOL   H28530553   2.614   4.311   1.459 -0.9171  1.4999 -0.9737
   95MOL   H28630554   2.402   4.399   1.529  3.2404  0.1632  0.0271
   95MOL   H28730555   2.195   4.230   1.538 -0.8909 -1.1808 -3.1553
   95MOL   H28830556   2.080   4.114   1.430 -1.5395 -1.3968  3.5152
   95MOL   H28930557   1.994   3.970   1.449 -0.9854  0.7447 -3.5043
   95MOL   C29030558   2.124   3.964   1.284 -0.0767 -0.0040 -0.6832
   95MOL   C29130559   2.050   4.053   1.179  0.6136  0.1395  0.2165
   95MOL   C29230560   2.116   4.139   1.084  0.3561 -0.3720  0.0865
   95MOL  Cl29330561   2.291   4.146   1.075 -0.2701 -0.0883 -0.2177
   95MOL   C29430562   2.039   4.211   0.998  0.1113 -0.6122  0.6348
   95MOL   C29530563   1.896   4.201   0.991  0.0090  0.2832 -0.3088
   95MOL   C29630564   1.829   4.126   1.091 -0.0871 -0.4758  0.1333
   95MOL   C29730565   1.904   4.049   1.178 -0.3930 -0.0525  0.6491
   95MOL   C29830566   2.089   3.818   1.261 -0.7835  0.6504  0.3398
   95MOL   H29930567   2.232   3.966   1.269 -0.2030 -0.8952 -1.8408
   95MOL   H30030568   2.095   4.275   0.931 -0.2522  1.8887  2.6197
   95MOL   H30130569   1.839   4.255   0.918 -1.1643  0.3793  0.6653
   95MOL   H30230570   1.722   4.133   1.098 -0.3100 -0.7542 -2.5639
   95MOL   H30330571   1.854   3.983   1.247 -1.0741 -0.3885 -0.1704
   95MOL   H30430572   1.985   3.807   1.294 -0.1141 -3.1933  1.3622
   95MOL   H30530573   2.154   3.755   1.320 -0.6949  0.7287  0.3247
   95MOL   C30630574   2.106   3.767   1.109 -0.0547 -0.3263 -0.2021
   95MOL   C30730575   2.053   3.625   1.104 -0.1607 -0.0280 -0.1404
   95MOL   C30830576   1.926   3.597   1.043 -0.1374 -0.0811  0.2243
   95MOL  Cl30930577   1.831   3.721   0.962 -0.0498  0.1255  0.5581
   95MOL   C31030578   1.870   3.464   1.048  0.5421  0.0131  0.4498
   95MOL   C31130579   1.929   3.365   1.129 -0.0901 -0.3534 -1.0020
   95MOL   C31230580   2.055   3.397   1.189  0.8444  0.1593  0.2415
   95MOL   C31330581   2.117   3.523   1.169  0.0268  0.3206 -0.1173
   95MOL   C31430582   2.250   3.771   1.052 -0.3318 -0.2372 -0.5511
   95MOL   H31530583   2.041   3.834   1.053  0.8447  0.8175  0.0882
   95MOL   H31630584   1.778   3.446   0.994 -0.1592 -0.2803  1.7088
   95MOL   H31730585   1.895   3.264   1.138  0.7996 -0.4507  1.6555
   95MOL   H31830586   2.108   3.322   1.246 -2.1040 -1.8485  0.5018
   95MOL   H31930587   2.212   3.541   1.217 -0.1759 -0.0719  0.4387
   95MOL   H32030588   2.255   3.733   0.949  0.5003 -2.8546  0.4060
   95MOL   H32130589   2.307   3.702   1.115 -2.6007 -0.7118  1.0195
   95MOL   H32230590   2.273   3.877   1.051 -3.7704  0.5619 -2.0021
   96MOL     C130591   6.564   0.171   2.617  0.2227 -0.2744  0.0305
   96MOL     C230592   6.420   0.122   2.625  0.6143  0.4354  0.0059
   96MOL     C330593   6.389   0.007   2.700 -0.4813  0.2468  0.8013
   96MOL    Cl430594   6.515   8.353   2.793  0.1587  0.3430  0.0168
   96MOL     C530595   6.264   8.366   2.689 -0.4726  0.7056  0.3204
   96MOL     C630596   6.165   8.417   2.601 -0.0613  0.2337 -0.2127
   96MOL     C730597   6.195   0.111   2.525 -0.3981 -0.1539 -0.1907
   96MOL     C830598   6.317   0.175   2.547 -0.1679 -0.1110  0.2498
   96MOL     C930599   6.602   0.268   2.730  0.5429 -0.2234 -0.5956
   96MOL    H1030600   6.633   0.087   2.608  2.8733  1.6181  1.7013
   96MOL    H1130601   6.242   8.271   2.736  0.3996 -0.4408 -1.5148
   96MOL    H1230602   6.066   8.376   2.595  0.8272 -1.9669 -0.1808
   96MOL    H1330603   6.133   0.166   2.457 -0.0296 -0.7393 -1.0095
   96MOL    H1430604   6.342   0.263   2.489 -0.3827 -0.9533 -1.1445
   96MOL    H1530605   6.710   0.279   2.738  0.3268  1.0978  0.8101
   96MOL    H1630606   6.577   0.227   2.828 -0.3756 -3.2262 -2.0127
   96MOL    H1730607   6.579   0.221   2.521  1.5299 -0.7999 -0.0483
   96MOL    C1830608   6.527   0.405   2.716  0.0621  0.3571 -0.1247
   96MOL    C1930609   6.571   0.474   2.586 -0.2791 -0.7935 -0.6458
   96MOL    C2030610   6.478   0.567   2.521 -0.3464  0.0287 -0.2977
   96MOL   Cl2130611   6.321   0.591   2.579 -0.3254  0.2713 -0.2484
   96MOL    C2230612   6.531   0.648   2.416  0.1945  0.6037  0.7301
   96MOL    C2330613   6.663   0.629   2.364 -0.0120  0.3753  0.0428
   96MOL    C2430614   6.753   0.543   2.425 -0.0628  0.0942 -0.7402
   96MOL    C2530615   6.707   0.463   2.539  0.6023  0.0486 -0.6980
   96MOL    C2630616   6.561   0.496   2.836 -0.2322 -0.0207  0.1671
   96MOL    H2730617   6.420   0.390   2.700 -0.0472  0.9719  0.0046
   96MOL    H2830618   6.469   0.725   2.370 -0.8684 -0.3308  0.5764
   96MOL    H2930619   6.696   0.685   2.277 -2.1568 -0.0909 -1.0956
   96MOL    H3030620   6.856   0.533   2.394 -0.6529 -1.3668 -2.2769
   96MOL    H3130621   6.779   0.395   2.583  0.7802  0.5038 -0.2856
   96MOL    H3230622   6.523   0.596   2.811  2.9839  1.1777 -0.0711
   96MOL    H3330623   6.668   0.510   2.844 -0.5915  1.9000  2.1841
   96MOL    C3430624   6.510   0.454   2.976  0.3510 -0.1788 -0.2441
   96MOL    C3530625   6.366   0.400   2.952  0.2786 -0.4325  0.2685
   96MOL    C3630626   6.333   0.264   2.988  0.3508  0.1217 -0.7464
   96MOL   Cl3730627   6.446   0.168   3.070  0.0236  0.5055  0.1803
   96MOL    C3830628   6.206   0.219   2.949 -0.7785  0.1594 -0.1910
   96MOL    C3930629   6.110   0.295   2.871  0.3024 -0.1694  0.7431
   96MOL    C4030630   6.149   0.426   2.841  0.0737  0.1474 -0.0934
   96MOL    C4130631   6.273   0.476   2.881  0.3867 -1.3171 -0.0375
   96MOL    C4230632   6.511   0.573   3.076  0.3109 -0.4979 -0.0710
   96MOL    H4330633   6.578   0.373   3.002 -1.2745 -1.7916 -0.8658
   96MOL    H4430634   6.169   0.122   2.978 -0.6132  1.1019  3.4351
   96MOL    H4530635   6.011   0.256   2.853 -0.2855  1.7299 -0.3514
   96MOL    H4630636   6.077   0.491   2.794  0.6356  0.6669 -0.2218
   96MOL    H4730637   6.296   0.578   2.854 -1.4609  0.0820  3.3479
   96MOL    H4830638   6.479   0.540   3.175  0.4644 -0.9175 -0.1639
   96MOL    H4930639   6.440   0.648   3.042 -0.8575 -0.4811  2.2940
   96MOL    C5030640   6.648   0.641   3.102  0.0445 -0.3601  0.0646
   96MOL    C5130641   6.753   0.553   3.172  0.3934 -0.4805 -0.4537
   96MOL    C5230642   6.887   0.573   3.132 -0.2956 -0.4342 -0.0980
   96MOL   Cl5330643   6.935   0.677   2.997  0.1287  0.2569  0.0249
   96MOL    C5430644   6.989   0.482   3.191 -0.1400  0.4345  0.0314
   96MOL    C5530645   6.949   0.391   3.292 -0.1587  0.1844 -0.0002
   96MOL    C5630646   6.816   0.368   3.324  0.0511 -0.2213  0.0257
   96MOL    C5730647   6.721   0.452   3.266  0.1856  0.8202  0.1766
   96MOL    C5830648   6.642   0.782   3.168  0.4026  0.3573 -0.3506
   96MOL    H5930649   6.681   0.666   3.001 -2.4041  1.0601 -0.4254
   96MOL    H6030650   7.087   0.507   3.155 -0.6158  1.8121 -0.3486
   96MOL    H6130651   7.017   0.337   3.357 -0.8802 -2.1522 -1.1323
   96MOL    H6230652   6.792   0.289   3.393 -0.4970 -0.3777 -0.3348
   96MOL    H6330653   6.619   0.442   3.300  0.2773 -0.3284  0.1552
   96MOL    H6430654   6.742   0.818   3.191 -0.6758  1.7596  2.3243
   96MOL    H6530655   6.602   0.758   3.266 -0.6541 -1.4879 -1.2032
   96MOL    C6630656   6.556   0.900   3.101  0.1272  0.0991 -0.0660
   96MOL    C6730657   6.557   0.900   2.945 -0.4352  0.1174 -0.1365
   96MOL    C6830658   6.436   0.921   2.867 -0.1173  0.3638  0.3523
   96MOL   Cl6930659   6.289   0.962   2.941 -0.1649 -0.4165  0.0145
   96MOL    C7030660   6.448   0.920   2.729  0.2925  0.4858  0.2138
   96MOL    C7130661   6.569   0.899   2.664  0.0744 -0.2660  0.0075
   96MOL    C7230662   6.687   0.885   2.741  0.2235 -0.6713 -0.1339
   96MOL    C7330663   6.681   0.886   2.879  0.0511  0.6163  0.3250
   96MOL    C7430664   6.602   1.037   3.153 -0.6437 -0.1043  0.3356
   96MOL    H7530665   6.453   0.884   3.133  0.8821 -1.8677  1.5791
   96MOL    H7630666   6.356   0.944   2.678 -1.0076 -2.0842  1.2691
   96MOL    H7730667   6.576   0.891   2.557 -1.4008 -0.2771 -0.1036
   96MOL    H7830668   6.783   0.879   2.691  1.4653 -0.2119  2.1604
   96MOL    H7930669   6.775   0.883   2.932  1.1838 -0.3730 -1.6533
   96MOL    H8030670   6.563   1.109   3.081  4.0463  0.8745 -1.3790
   96MOL    H8130671   6.710   1.050   3.145 -0.0944 -3.4615  1.3600
   96MOL    C8230672   6.554   1.066   3.296  0.0036  0.3068 -0.7095
   96MOL    C8330673   6.403   1.046   3.309  1.0174 -0.3979 -0.3754
   96MOL    C8430674   6.346   0.958   3.406 -0.5770  0.1318 -1.0049
   96MOL   Cl8530675   6.451   0.852   3.498  0.1201 -0.3207 -0.1079
   96MOL    C8630676   6.205   0.941   3.407  0.4667  0.1225 -0.7081
   96MOL    C8730677   6.124   1.009   3.315  0.0356 -0.4432  0.1201
   96MOL    C8830678   6.176   1.096   3.223 -0.5380  0.8775 -0.6065
   96MOL    C8930679   6.314   1.115   3.216  0.4996  0.0518  0.3528
   96MOL    C9030680   6.595   1.198   3.353  0.0441 -0.6212  0.0856
   96MOL    H9130681   6.608   0.997   3.361 -1.7545 -0.2962  0.1333
   96MOL    H9230682   6.162   0.867   3.473  0.6113 -0.7065 -1.5406
   96MOL    H9330683   6.017   0.991   3.316  0.0254 -0.6798 -2.5667
   96MOL    H9430684   6.105   1.144   3.158 -1.2811 -0.2113 -0.6084
   96MOL    H9530685   6.361   1.180   3.144 -0.0231 -0.3432 -0.3470
   96MOL    H9630686   6.539   1.276   3.301 -0.2695 -1.1216 -0.3337
   96MOL    H9730687   6.701   1.213   3.333  0.1411  1.1948  1.8656
   96MOL    C9830688   6.575   1.230   3.508 -0.3085 -0.1016 -0.5145
   96MOL    C9930689   6.624   1.369   3.539  0.9770  0.0610 -0.0420
   96MOL   C10030690   6.578   1.434   3.656 -0.3496  0.2374 -0.3241
   96MOL  Cl10130691   6.488   1.356   3.771 -0.2320  0.0046  0.3052
   96MOL   C10230692   6.619   1.569   3.683 -0.0504  0.1188 -0.2480
   96MOL   C10330693   6.693   1.642   3.587 -0.3189 -0.4297  0.0949
   96MOL   C10430694   6.729   1.581   3.469  0.3370  0.3379  0.7825
   96MOL   C10530695   6.690   1.451   3.440 -0.3619 -0.7937  0.2586
   96MOL   C10630696   6.642   1.124   3.603  0.5393 -0.4339  0.4802
   96MOL   H10730697   6.470   1.228   3.538  0.2715 -1.8247  1.4817
   96MOL   H10830698   6.587   1.628   3.768 -3.4713  2.8139 -3.2423
   96MOL   H10930699   6.727   1.744   3.601  0.2149 -0.6644  0.5001
   96MOL   H11030700   6.786   1.640   3.399  1.3075 -0.2861  1.0414
   96MOL   H11130701   6.708   1.406   3.344 -0.4846  1.3569 -0.7925
   96MOL   H11230702   6.661   1.029   3.554 -0.9001 -0.3389 -0.2685
   96MOL   H11330703   6.568   1.109   3.681 -0.4759  3.5226  0.3828
   96MOL   C11430704   6.784   1.162   3.659 -0.3557 -0.2717  0.7422
   96MOL   C11530705   6.883   1.195   3.554  0.2153 -0.4493  0.9829
   96MOL   C11630706   6.965   1.314   3.557  0.4140  0.5235 -0.1834
   96MOL  Cl11730707   6.952   1.431   3.678  0.0906  0.1241 -0.0790
   96MOL   C11830708   7.061   1.339   3.465 -0.1223  0.6765 -1.1406
   96MOL   C11930709   7.084   1.245   3.360 -0.0560  0.1890 -0.5412
   96MOL   C12030710   7.011   1.130   3.348  0.1137 -0.1325 -0.1043
   96MOL   C12130711   6.913   1.103   3.450 -0.0115 -1.0931  0.1747
   96MOL   C12230712   6.834   1.048   3.754  0.0396  0.3911  0.1122
   96MOL   H12330713   6.769   1.256   3.714 -1.5302 -1.3286  2.2666
   96MOL   H12430714   7.114   1.434   3.468  1.7209 -0.3181 -1.1826
   96MOL   H12530715   7.157   1.268   3.284 -0.9046  0.6149 -1.2519
   96MOL   H12630716   7.021   1.065   3.263 -2.6687  0.1096 -0.6520
   96MOL   H12730717   6.858   1.010   3.447 -1.1786 -0.4226  0.3272
   96MOL   H12830718   6.923   1.090   3.800  0.9949 -0.4102 -0.9690
   96MOL   H12930719   6.882   0.965   3.701  0.7344  0.2872  0.8988
   96MOL   C13030720   6.737   0.995   3.866 -0.3016 -0.1750  0.2794
   96MOL   C13130721   6.705   1.111   3.966  0.0951  0.0933  0.2781
   96MOL   C13230722   6.567   1.134   3.996  0.6138 -0.0228  0.3759
   96MOL  Cl13330723   6.434   1.034   3.939  0.1934  0.2299  0.0280
   96MOL   C13430724   6.530   1.233   4.091 -0.2072 -0.1679 -0.6481
   96MOL   C13530725   6.634   1.306   4.156  0.3348  0.8460 -0.0100
   96MOL   C13630726   6.768   1.283   4.130 -0.5228 -0.2707  0.3615
   96MOL   C13730727   6.807   1.187   4.033  0.0864  0.8754 -0.0478
   96MOL   C13830728   6.788   0.874   3.940 -0.3851  0.2327 -0.3014
   96MOL   H13930729   6.644   0.959   3.822 -0.2438 -0.4927  0.4208
   96MOL   H14030730   6.430   1.257   4.123 -0.2131  0.0626 -0.8332
   96MOL   H14130731   6.617   1.378   4.236 -2.8350  2.2285 -1.8377
   96MOL   H14230732   6.835   1.339   4.193 -1.0166  0.3766  0.3142
   96MOL   H14330733   6.912   1.164   4.026  0.2013  0.4313  2.8392
   96MOL   H14430734   6.880   0.898   3.993 -0.1172 -2.5880  0.5982
   96MOL   H14530735   6.827   0.805   3.864  0.0393  0.3143 -0.1589
   96MOL   C14630736   6.692   0.808   4.045  0.2405 -0.3004 -0.0097
   96MOL   C14730737   6.754   0.736   4.163 -0.1876 -0.4154 -0.0997
   96MOL   C14830738   6.689   0.740   4.291  0.6502  0.5084 -0.2223
   96MOL  Cl14930739   6.542   0.825   4.319  0.3223 -0.0018 -0.1408
   96MOL   C15030740   6.738   0.656   4.396  1.2215  0.4466  0.2362
   96MOL   C15130741   6.862   0.590   4.378  0.3429  0.4670 -0.0968
   96MOL   C15230742   6.930   0.603   4.257  0.2776  0.4580 -0.1961
   96MOL   C15330743   6.877   0.673   4.149 -0.4618  0.1487 -0.7905
   96MOL   C15430744   6.569   0.726   3.996  0.7500 -0.2594  0.3006
   96MOL   H15530745   6.670   0.896   4.106  3.7250  1.9381 -1.8045
   96MOL   H15630746   6.687   0.638   4.490 -0.1042  0.0767 -0.5289
   96MOL   H15730747   6.911   0.535   4.457 -3.0751 -0.2348  1.6242
   96MOL   H15830748   7.027   0.558   4.246 -0.3206 -1.0715  0.6606
   96MOL   H15930749   6.930   0.685   4.056 -0.9433 -2.5416 -1.4538
   96MOL   H16030750   6.527   0.782   3.912 -0.7887 -1.1373  0.4800
   96MOL   H16130751   6.489   0.723   4.070 -2.5573 -1.9189 -3.1574
   96MOL   C16230752   6.599   0.579   3.945 -0.2791  0.3337 -0.7562
   96MOL   C16330753   6.686   0.576   3.817  0.2269 -0.7582 -0.3741
   96MOL   C16430754   6.811   0.504   3.816 -0.7726 -0.1447  0.0506
   96MOL  Cl16530755   6.862   0.402   3.951 -0.5264 -0.0414  0.3134
   96MOL   C16630756   6.909   0.516   3.713  0.5353 -0.0266  0.1685
   96MOL   C16730757   6.860   0.584   3.596 -0.2372 -0.0418 -0.0569
   96MOL   C16830758   6.737   0.657   3.593 -0.1412 -1.1192 -0.2976
   96MOL   C16930759   6.652   0.652   3.705  0.0139  0.6080  0.1064
   96MOL   C17030760   6.475   0.494   3.910  0.1132  0.1465 -0.0438
   96MOL   H17130761   6.648   0.525   4.027 -1.8493 -1.2134 -0.7920
   96MOL   H17230762   6.993   0.449   3.703 -0.2713 -0.8368 -1.2859
   96MOL   H17330763   6.926   0.576   3.511  0.8633  0.0974  0.7720
   96MOL   H17430764   6.701   0.705   3.503 -1.6184 -0.2481  0.7188
   96MOL   H17530765   6.556   0.701   3.703 -0.4969 -0.3377  0.9945
   96MOL   H17630766   6.504   0.413   3.843  0.9825  1.5345 -1.3940
   96MOL   H17730767   6.401   0.550   3.854 -1.5495 -0.8112  1.1478
   96MOL   C17830768   6.407   0.436   4.041 -0.8599 -0.6125 -0.0320
   96MOL   C17930769   6.496   0.336   4.114 -0.6532  0.2008 -0.0768
   96MOL   C18030770   6.508   0.331   4.252  0.1478  0.5375  0.0006
   96MOL  Cl18130771   6.422   0.435   4.354 -0.2203  0.2675  0.1142
   96MOL   C18230772   6.601   0.239   4.311  0.9374  0.0135  0.0935
   96MOL   C18330773   6.669   0.154   4.225  0.6798 -0.1206  0.1635
   96MOL   C18430774   6.656   0.162   4.093  0.9926  0.8562  0.3791
   96MOL   C18530775   6.566   0.244   4.037  0.0964 -0.1177  0.5069
   96MOL   C18630776   6.268   0.374   4.010  0.5381 -0.7441 -0.1605
   96MOL   H18730777   6.395   0.518   4.112 -0.4975  1.0481 -1.8483
   96MOL   H18830778   6.619   0.230   4.417 -1.5496 -2.7385  0.3384
   96MOL   H18930779   6.746   0.084   4.254  1.0728  0.1784 -0.1443
   96MOL   H19030780   6.718   0.102   4.029  0.5516 -0.4174  1.1289
   96MOL   H19130781   6.563   0.243   3.929  1.6941  0.5122  0.4349
   96MOL   H19230782   6.239   0.313   4.096 -1.6744  0.6225  0.0992
   96MOL   H19330783   6.276   0.309   3.923  0.4703  0.7574 -1.3059
   96MOL   C19430784   6.150   0.479   3.981  0.2607 -0.2134 -1.1374
   96MOL   C19530785   6.146   0.593   4.084  0.3122  0.3729  0.5323
   96MOL   C19630786   6.165   0.729   4.050  0.3728 -0.0325  0.0808
   96MOL  Cl19730787   6.199   0.770   3.890 -0.0100  0.0191  0.3874
   96MOL   C19830788   6.158   0.827   4.156  0.0924 -0.3673 -0.0465
   96MOL   C19930789   6.147   0.782   4.290 -0.8380 -0.4687 -0.6317
   96MOL   C20030790   6.119   0.646   4.320  0.0817 -0.2448  0.9861
   96MOL   C20130791   6.119   0.556   4.215 -0.5744 -0.1357  0.4490
   96MOL   C20230792   6.022   0.397   3.964 -0.2393 -0.3570  0.2368
   96MOL   H20330793   6.174   0.513   3.881 -2.2412 -1.8576 -2.3554
   96MOL   H20430794   6.170   0.931   4.130  0.3385 -0.2245  0.6431
   96MOL   H20530795   6.145   0.852   4.372  0.5559 -1.0254 -0.1083
   96MOL   H20630796   6.106   0.618   4.424 -2.2289 -2.6335  0.1047
   96MOL   H20730797   6.094   0.452   4.226 -2.6369  0.1710 -1.1754
   96MOL   H20830798   5.970   0.369   4.055 -2.1501 -0.1169 -0.7561
   96MOL   H20930799   6.043   0.302   3.915 -0.4773 -1.4089  2.1606
   96MOL   C21030800   5.916   0.458   3.857  0.1903  0.2630 -0.2349
   96MOL   C21130801   5.860   0.596   3.889 -0.1328  0.0618  0.5651
   96MOL   C21230802   5.856   0.707   3.805  0.3277  0.1946 -0.1967
   96MOL  Cl21330803   5.929   0.710   3.656  0.1386  0.0307  0.1847
   96MOL   C21430804   5.788   0.827   3.835 -0.5221 -0.1790 -0.4753
   96MOL   C21530805   5.742   0.843   3.970  0.2400  0.1121  0.5032
   96MOL   C21630806   5.741   0.735   4.056 -0.7476  0.2108  0.1669
   96MOL   C21730807   5.805   0.617   4.017 -0.5422  0.7888  0.9870
   96MOL   C21830808   5.802   0.360   3.836 -0.0618  0.4490  0.6604
   96MOL   H21930809   5.970   0.467   3.763 -0.4733 -0.9605 -0.7461
   96MOL   H22030810   5.788   0.919   3.778  2.1844  0.2472  0.1455
   96MOL   H22130811   5.698   0.936   4.003 -0.9296 -0.4017  0.4478
   96MOL   H22230812   5.709   0.729   4.159 -2.2150 -1.6066 -0.3614
   96MOL   H22330813   5.815   0.529   4.079 -0.0537 -0.4812 -0.8654
   96MOL   H22430814   5.746   0.369   3.929 -0.2146  0.4388  0.5692
   96MOL   H22530815   5.848   0.262   3.835  0.4361  0.6846 -0.0227
   96MOL   C22630816   5.711   0.377   3.705 -0.6749 -0.1301 -0.0013
   96MOL   C22730817   5.566   0.349   3.731 -0.1784  0.5876 -0.0631
   96MOL   C22830818   5.466   0.449   3.728  0.0400  0.4283  0.3721
   96MOL  Cl22930819   5.494   0.608   3.683  0.1666 -0.0443 -0.1755
   96MOL   C23030820   5.336   0.417   3.768  0.2862 -0.6139 -0.0484
   96MOL   C23130821   5.299   0.285   3.806  0.4702  0.2028 -0.0931
   96MOL   C23230822   5.399   0.187   3.802 -0.0790  1.2789 -0.0729
   96MOL   C23330823   5.537   0.217   3.774 -0.0907 -0.7850  0.6200
   96MOL   C23430824   5.776   0.294   3.593  0.0792 -0.0550  0.2233
   96MOL   H23530825   5.718   0.483   3.681 -2.7401 -0.3623 -1.7251
   96MOL   H23630826   5.258   0.491   3.769 -0.6183 -1.5477 -0.0080
   96MOL   H23730827   5.199   0.249   3.819  0.5476  0.2488  0.6226
   96MOL   H23830828   5.373   0.089   3.840  2.0210 -0.2320 -2.4006
   96MOL   H23930829   5.614   0.142   3.779  0.5964 -0.2077 -1.0412
   96MOL   H24030830   5.760   0.187   3.605 -0.4345  0.1635  1.5519
   96MOL   H24130831   5.883   0.291   3.614 -0.1691 -2.5968  1.3116
   96MOL   C24230832   5.762   0.339   3.449 -0.1771  0.0043  0.0515
   96MOL   C24330833   5.616   0.349   3.414 -0.0278  0.2945  0.1405
   96MOL   C24430834   5.563   0.466   3.353 -0.2298  0.6753 -0.2927
   96MOL  Cl24530835   5.659   0.603   3.321  0.0318  0.1798 -0.0878
   96MOL   C24630836   5.424   0.470   3.316 -0.7069  0.6474 -0.0614
   96MOL   C24730837   5.340   0.354   3.341 -0.1029  0.0009 -0.7035
   96MOL   C24830838   5.395   0.237   3.399 -0.1938 -0.1570  0.0240
   96MOL   C24930839   5.531   0.235   3.436  0.2020 -0.1199  0.6915
   96MOL   C25030840   5.842   0.256   3.343 -0.0678  1.4888  0.8675
   96MOL   H25130841   5.803   0.440   3.452  0.3593 -0.2477  1.3477
   96MOL   H25230842   5.384   0.550   3.256  0.3501  0.4554 -1.0429
   96MOL   H25330843   5.236   0.350   3.310 -0.9599 -0.6529  2.0896
   96MOL   H25430844   5.338   0.148   3.423  2.9703 -1.8196  1.7300
   96MOL   H25530845   5.576   0.149   3.484  0.6885  0.2758  0.9521
   96MOL   H25630846   5.803   0.276   3.243 -0.8310 -2.6149  0.2522
   96MOL   H25730847   5.817   0.152   3.359  0.5674  1.3878  1.2253
   96MOL   C25830848   5.999   0.273   3.345  0.5993 -0.2252 -0.4312
   96MOL   C25930849   6.038   0.410   3.294  0.2262 -0.1773 -0.5331
   96MOL   C26030850   6.126   0.496   3.367 -0.0979  0.4684 -0.8680
   96MOL  Cl26130851   6.204   0.447   3.511  0.0871 -0.1286 -0.3848
   96MOL   C26230852   6.180   0.614   3.309  0.2771 -1.1444  0.5411
   96MOL   C26330853   6.134   0.659   3.187  0.0848  0.7167 -0.2662
   96MOL   C26430854   6.039   0.580   3.118 -0.1474  0.4048  0.7667
   96MOL   C26530855   5.997   0.457   3.170 -0.3103  0.2204 -1.0332
   96MOL   C26630856   6.070   0.162   3.276  0.0957 -0.6469  0.8456
   96MOL   H26730857   6.037   0.260   3.446  0.6786  1.1172 -0.2841
   96MOL   H26830858   6.260   0.657   3.367  0.5941  0.5825 -1.1312
   96MOL   H26930859   6.173   0.754   3.152  1.0923  0.4157  0.0320
   96MOL   H27030860   5.990   0.618   3.029 -1.2914 -0.5822  0.9561
   96MOL   H27130861   5.928   0.389   3.123 -1.2994  0.1797  0.4606
   96MOL   H27230862   6.171   0.199   3.255 -0.3845  0.4277  0.3868
   96MOL   H27330863   6.024   0.150   3.178 -1.4682 -0.6666  1.5635
   96MOL   C27430864   6.081   0.025   3.345  0.5969 -0.2190  1.2638
   96MOL   C27530865   6.124   0.028   3.488  0.2083 -0.2403  0.0339
   96MOL   C27630866   6.032   0.008   3.594  0.6005  0.1110 -0.4922
   96MOL  Cl27730867   5.868   8.367   3.569 -0.1391  0.4590 -0.0023
   96MOL   C27830868   6.072   0.022   3.729  0.6889 -0.3043  0.9854
   96MOL   C27930869   6.209   0.045   3.757  0.4216 -0.0597 -0.2058
   96MOL   C28030870   6.307   0.057   3.656 -0.0682 -0.0026  0.0428
   96MOL   C28130871   6.264   0.061   3.520 -0.7914  0.0159 -0.5132
   96MOL   C28230872   6.178   8.355   3.260  0.2359 -0.2503  0.5670
   96MOL   H28330873   5.980   8.406   3.335  0.5476  0.3214 -0.4072
   96MOL   H28430874   6.000   8.419   3.805 -0.5871 -2.3177 -0.7890
   96MOL   H28530875   6.242   0.045   3.860  0.1398  0.1330 -0.1142
   96MOL   H28630876   6.408   0.089   3.679 -0.9499  1.8225  1.4757
   96MOL   H28730877   6.336   0.074   3.441  0.7086 -1.3270  0.6172
   96MOL   H28830878   6.281   8.390   3.263 -0.0981  0.7474  0.5393
   96MOL   H28930879   6.162   8.363   3.152 -1.3927  1.6971  0.9390
   96MOL   C29030880   6.174   8.205   3.302  0.8058 -0.0596 -0.0116
   96MOL   C29130881   6.283   8.121   3.237  0.4073  0.7244  0.1793
   96MOL   C29230882   6.326   8.004   3.295  0.7106  0.6198 -0.6866
   96MOL  Cl29330883   6.247   7.947   3.444  0.0738  0.0770  0.0532
   96MOL   C29430884   6.424   7.923   3.230 -0.4316 -0.3635  0.6866
   96MOL   C29530885   6.495   7.968   3.119 -0.7204  0.2251  1.0583
   96MOL   C29630886   6.441   8.079   3.057 -0.0490 -0.1552 -0.1530
   96MOL   C29730887   6.341   8.158   3.116  0.5769 -0.0275 -0.5336
   96MOL   C29830888   6.031   8.140   3.290  0.8477 -0.7074 -0.0833
   96MOL   H29930889   6.192   8.216   3.408 -0.0878  2.0638 -0.0391
   96MOL   H30030890   6.458   7.824   3.257  3.3316  1.0803  1.4408
   96MOL   H30130891   6.571   7.922   3.057 -0.5441  3.2599 -1.0735
   96MOL   H30230892   6.485   8.107   2.962 -0.7686  1.6023  0.0146
   96MOL   H30330893   6.321   8.246   3.057  0.8245 -0.2166 -0.9014
   96MOL   H30430894   5.962   8.175   3.367 -0.1679 -0.2975 -1.1468
   96MOL   H30530895   6.045   8.035   3.312  2.1294 -0.4787  0.2364
   96MOL   C30630896   5.965   8.164   3.150  0.1680  0.0720 -0.4202
   96MOL   C30730897   5.856   8.266   3.155  0.0123 -0.4277 -0.3960
   96MOL   C30830898   5.853   8.369   3.052  0.3452 -0.0270 -0.5909
   96MOL  Cl30930899   5.972   8.373   2.933 -0.4419 -0.1142 -0.2411
   96MOL   C31030900   5.750   0.040   3.061 -0.2053 -0.1829  0.3292
   96MOL   C31130901   5.644   0.030   3.151  0.4645 -0.1992 -0.2637
   96MOL   C31230902   5.642   8.345   3.248  0.4649  0.3778 -0.0723
   96MOL   C31330903   5.749   8.254   3.247 -0.1940  0.0767 -0.2832
   96MOL   C31430904   5.916   8.029   3.087 -0.3766  0.0140  0.3555
   96MOL   H31530905   6.043   8.186   3.077  0.1428  0.0497 -0.4535
   96MOL   H31630906   5.759   0.134   3.010  0.4829  0.0948  0.9443
   96MOL   H31730907   5.576   0.112   3.167  1.6965  0.3184  2.4566
   96MOL   H31830908   5.562   8.330   3.320 -1.2481 -0.2887 -2.0634
   96MOL   H31930909   5.749   8.173   3.318 -1.9602  0.4828  0.2020
   96MOL   H32030910   5.868   7.972   3.167  0.0087  1.4677  1.6593
   96MOL   H32130911   6.000   7.967   3.056 -0.3184  0.8526 -1.1642
   96MOL   H32230912   5.858   8.039   2.996  0.6990  0.8519 -0.2431
   97MOL     C130913   6.365   0.898   1.169 -0.6982 -0.0137 -0.2288
   97MOL     C230914   6.227   0.860   1.165  0.3099  0.2843 -0.1398
   97MOL     C330915   6.135   0.894   1.262  0.5799 -0.2820  0.4864
   97MOL    Cl430916   6.177   0.992   1.400 -0.2814 -0.0585  0.1376
   97MOL     C530917   6.001   0.844   1.265 -0.7125  0.1926  0.4783
   97MOL     C630918   5.962   0.754   1.159 -0.0192  0.0657  0.1296
   97MOL     C730919   6.046   0.741   1.049  0.1635 -0.1100 -0.3209
   97MOL     C830920   6.178   0.783   1.049  0.4067  0.6516 -0.3944
   97MOL     C930921   6.386   1.047   1.128  0.6827 -0.0738 -0.7058
   97MOL    H1030922   6.382   0.903   1.277  2.4116 -0.3432 -0.6477
   97MOL    H1130923   5.932   0.867   1.345 -1.0459  1.6168 -0.2231
   97MOL    H1230924   5.863   0.712   1.159  0.1634 -0.3953  1.4966
   97MOL    H1330925   6.008   0.685   0.965 -1.9740 -0.4680  0.8732
   97MOL    H1430926   6.243   0.763   0.965 -0.3160 -3.0533 -0.1210
   97MOL    H1530927   6.492   1.071   1.136  0.2120  1.2257  2.3036
   97MOL    H1630928   6.326   1.110   1.193  0.3636 -0.5522 -0.5331
   97MOL    H1730929   6.433   0.828   1.121 -0.5965 -0.4643  0.5656
   97MOL    C1830930   6.335   1.074   0.985 -0.2915 -0.0862 -0.3926
   97MOL    C1930931   6.393   0.991   0.876  0.5234  0.1212  0.6444
   97MOL    C2030932   6.306   0.960   0.766  0.3573 -0.3277  0.5475
   97MOL   Cl2130933   6.148   1.024   0.750  0.2284  0.1370 -0.0458
   97MOL    C2230934   6.360   0.902   0.646 -0.2897 -0.0677  0.0795
   97MOL    C2330935   6.483   0.848   0.653 -0.0458  0.0685  0.2242
   97MOL    C2430936   6.568   0.867   0.764  0.3084  0.5409  0.4536
   97MOL    C2530937   6.526   0.943   0.877 -0.7715 -0.1195 -0.6641
   97MOL    C2630938   6.365   1.225   0.961  0.2113 -0.3038  0.5289
   97MOL    H2730939   6.227   1.065   0.993 -0.1842  0.5821  2.0848
   97MOL    H2830940   6.294   0.886   0.562  1.0663 -2.8779 -0.5138
   97MOL    H2930941   6.509   0.783   0.570  1.8559  3.1537 -1.6803
   97MOL    H3030942   6.665   0.819   0.762  0.4803  0.9441 -1.3502
   97MOL    H3130943   6.601   0.962   0.953 -1.2709  1.1718 -0.4808
   97MOL    H3230944   6.354   1.253   0.856 -2.0763  0.8227  1.0144
   97MOL    H3330945   6.471   1.239   0.982  0.0860  2.3427 -0.4014
   97MOL    C3430946   6.292   1.331   1.050  0.3535  0.2062 -0.5768
   97MOL    C3530947   6.142   1.349   1.023  0.1568  0.1118 -0.0060
   97MOL    C3630948   6.046   1.338   1.132  0.5633 -0.5907 -0.0643
   97MOL   Cl3730949   6.096   1.306   1.293  0.1052  0.0673  0.4212
   97MOL    C3830950   5.915   1.357   1.106  0.4209  0.5797 -0.0825
   97MOL    C3930951   5.868   1.369   0.971  0.0845  0.0707 -0.2150
   97MOL    C4030952   5.953   1.376   0.862 -0.8739  0.3597 -0.3565
   97MOL    C4130953   6.094   1.368   0.892 -0.1581  0.2525 -1.0128
   97MOL    C4230954   6.348   1.470   1.025 -0.5410 -1.0370  0.2983
   97MOL    H4330955   6.307   1.316   1.157 -0.6931 -2.3058 -0.7615
   97MOL    H4430956   5.842   1.371   1.183 -0.1150  0.0039 -0.4745
   97MOL    H4530957   5.764   1.388   0.946  0.4012 -0.2560 -1.8456
   97MOL    H4630958   5.913   1.383   0.762  0.1758 -1.4514 -0.9214
   97MOL    H4730959   6.171   1.373   0.816  3.0089  0.2821  2.0401
   97MOL    H4830960   6.278   1.546   1.059 -0.8635 -0.8215 -0.8265
   97MOL    H4930961   6.358   1.489   0.918  1.9566 -0.5533  0.5807
   97MOL    C5030962   6.488   1.500   1.097  0.2661 -0.0068 -0.2702
   97MOL    C5130963   6.455   1.524   1.245 -0.0462 -0.0184 -0.3504
   97MOL    C5230964   6.517   1.449   1.351  0.5359 -0.9323 -0.4967
   97MOL   Cl5330965   6.628   1.331   1.321  0.3533 -0.0274  0.1371
   97MOL    C5430966   6.485   1.481   1.486  0.2282 -0.0422  0.3622
   97MOL    C5530967   6.399   1.587   1.519  0.0261  0.8823 -0.1661
   97MOL    C5630968   6.337   1.664   1.413 -0.2132 -0.1058  0.0305
   97MOL    C5730969   6.371   1.633   1.281 -0.0489  0.6478  0.0513
   97MOL    C5830970   6.554   1.607   1.010  0.0709  0.1023  0.8464
   97MOL    H5930971   6.551   1.411   1.096 -1.3411 -1.2499  2.3123
   97MOL    H6030972   6.538   1.434   1.568 -0.8693  0.1485  1.1877
   97MOL    H6130973   6.398   1.622   1.621 -1.0952  2.2280 -0.6171
   97MOL    H6230974   6.263   1.736   1.447 -0.0322 -0.4355  1.1257
   97MOL    H6330975   6.325   1.693   1.203 -1.6565 -1.2929 -0.5594
   97MOL    H6430976   6.468   1.668   0.982 -2.2281 -3.2863  0.2319
   97MOL    H6530977   6.589   1.556   0.921  0.3232  0.0793  0.9586
   97MOL    C6630978   6.652   1.698   1.079 -0.0390  0.0465 -0.2864
   97MOL    C6730979   6.698   1.800   0.977  0.0777 -0.7019  0.4041
   97MOL    C6830980   6.660   1.937   0.986 -0.0312  0.7201 -0.2562
   97MOL   Cl6930981   6.547   1.988   1.100  0.0043  0.3351  0.1525
   97MOL    C7030982   6.708   2.029   0.892  0.0355 -0.3385 -0.2311
   97MOL    C7130983   6.801   1.990   0.797 -0.2052  0.0532  1.3824
   97MOL    C7230984   6.834   1.858   0.782  0.2323 -0.0221  0.1991
   97MOL    C7330985   6.783   1.763   0.871  0.3811 -0.5040  0.4351
   97MOL    C7430986   6.768   1.618   1.149 -0.1480  0.0700 -0.2427
   97MOL    H7530987   6.593   1.750   1.154  1.6600  0.1352  1.0205
   97MOL    H7630988   6.688   2.135   0.893 -0.0990 -0.3646 -0.1886
   97MOL    H7730989   6.841   2.066   0.731 -0.7180 -0.5103  0.4036
   97MOL    H7830990   6.902   1.832   0.702 -1.5387  1.3674 -1.8003
   97MOL    H7930991   6.812   1.659   0.873  0.0336 -0.6672 -1.6202
   97MOL    H8030992   6.840   1.596   1.070  1.5964  3.5779  0.2977
   97MOL    H8130993   6.735   1.520   1.185  2.1985 -0.9977 -0.8617
   97MOL    C8230994   6.851   1.689   1.258  0.0510 -0.5501 -0.1769
   97MOL    C8330995   6.983   1.618   1.276  0.4029 -0.1980  0.0990
   97MOL    C8430996   7.106   1.672   1.233  0.0448 -0.0320 -0.7876
   97MOL   Cl8530997   7.117   1.824   1.153  0.2030  0.3166  0.0792
   97MOL    C8630998   7.229   1.604   1.260 -0.0765 -0.2177 -0.4939
   97MOL    C8730999   7.221   1.468   1.311 -0.0346  0.1963 -0.0669
   97MOL    C8831000   7.099   1.415   1.360  0.7319  0.4515  0.4062
   97MOL    C8931001   6.983   1.488   1.339  0.1606  0.3888 -0.1578
   97MOL    C9031002   6.767   1.697   1.388  0.6923  0.4899  0.0371
   97MOL    H9131003   6.863   1.795   1.235 -0.3577 -0.0018  2.0566
   97MOL    H9231004   7.324   1.642   1.226 -0.2092  1.1263  0.5774
   97MOL    H9331005   7.311   1.410   1.325 -0.2455  0.2357  1.6196
   97MOL    H9431006   7.091   1.315   1.400 -1.4657 -0.7580 -2.8289
   97MOL    H9531007   6.887   1.446   1.368  0.8080 -0.9468  0.0749
   97MOL    H9631008   6.762   1.591   1.415  2.3147  0.3695 -0.0970
   97MOL    H9731009   6.661   1.722   1.379  0.4646 -1.2384 -2.4488
   97MOL    C9831010   6.817   1.792   1.503 -0.0095 -0.8135 -0.0369
   97MOL    C9931011   6.814   1.938   1.463 -0.1307  0.4360  0.3279
   97MOL   C10031012   6.692   2.012   1.464  0.3050 -0.8548 -0.8613
   97MOL  Cl10131013   6.545   1.935   1.522  0.4079  0.1070 -0.4443
   97MOL   C10231014   6.689   2.145   1.414  0.4071  0.3092 -0.2336
   97MOL   C10331015   6.808   2.204   1.371  0.2032  0.2494 -0.2188
   97MOL   C10431016   6.932   2.138   1.367  0.4008 -0.0903  0.7451
   97MOL   C10531017   6.929   2.003   1.404 -0.1752 -0.1048 -0.1145
   97MOL   C10631018   6.952   1.743   1.568 -0.1084 -0.2167  0.6003
   97MOL   H10731019   6.734   1.777   1.572 -0.1521 -0.5284 -0.1413
   97MOL   H10831020   6.598   2.202   1.413  0.5236  0.4958 -0.3548
   97MOL   H10931021   6.801   2.305   1.334  0.1893  1.1535  2.1845
   97MOL   H11031022   7.012   2.185   1.313  0.9213 -0.9475  0.7599
   97MOL   H11131023   7.010   1.936   1.380 -1.8214 -1.5772 -1.7036
   97MOL   H11231024   6.995   1.835   1.606 -2.3982  1.2569 -0.2374
   97MOL   H11331025   7.030   1.708   1.500  0.5570  3.3088 -0.5398
   97MOL   C11431026   6.925   1.638   1.678  0.0153  0.4861 -0.1713
   97MOL   C11531027   6.867   1.692   1.809  0.0453 -0.3930  0.0341
   97MOL   C11631028   6.737   1.662   1.853  0.4874 -1.1977 -0.7459
   97MOL  Cl11731029   6.636   1.574   1.756  0.2267 -0.3912 -0.0825
   97MOL   C11831030   6.692   1.708   1.974 -0.1892  0.1384 -0.5127
   97MOL   C11931031   6.770   1.792   2.057 -0.6118 -0.1014  0.2156
   97MOL   C12031032   6.905   1.821   2.019  0.2302 -0.8813  0.5811
   97MOL   C12131033   6.954   1.774   1.893 -0.2056 -0.0719  0.2040
   97MOL   C12231034   7.048   1.556   1.724 -0.7924  0.1421  0.2159
   97MOL   H12331035   6.859   1.563   1.635 -1.3284  0.7106  1.4599
   97MOL   H12431036   6.599   1.672   2.016 -1.0664  0.4161 -2.1659
   97MOL   H12531037   6.730   1.823   2.153 -1.0990 -0.6204  0.1835
   97MOL   H12631038   6.957   1.899   2.073  0.7982  1.0700 -2.6775
   97MOL   H12731039   7.047   1.808   1.851 -0.9678  0.7673 -0.8428
   97MOL   H12831040   7.118   1.618   1.779  0.8927 -0.1548 -1.5487
   97MOL   H12931041   7.106   1.525   1.637 -0.7627 -0.4298  0.4339
   97MOL   C13031042   7.021   1.425   1.809  0.3006 -0.5950  0.2444
   97MOL   C13131043   7.141   1.389   1.903  0.0606 -0.1823  0.2910
   97MOL   C13231044   7.113   1.345   2.035 -0.4632 -0.4304  0.3269
   97MOL  Cl13331045   6.954   1.342   2.105  0.3962  0.1475 -0.0593
   97MOL   C13431046   7.232   1.314   2.110  0.2331  0.3479  0.5223
   97MOL   C13531047   7.360   1.302   2.054  0.4535 -0.3966 -0.2273
   97MOL   C13631048   7.385   1.343   1.927  0.1010 -0.0091  0.1321
   97MOL   C13731049   7.273   1.385   1.853 -0.2993 -0.1876 -0.9221
   97MOL   C13831050   6.977   1.302   1.723  0.5380 -0.3181  1.0922
   97MOL   H13931051   6.933   1.458   1.864  0.4771  2.1545 -1.0841
   97MOL   H14031052   7.222   1.279   2.212  1.6555 -1.5981  0.0243
   97MOL   H14131053   7.440   1.277   2.121 -0.2724 -0.6902  0.5413
   97MOL   H14231054   7.489   1.340   1.897 -0.0186 -0.4798 -0.2395
   97MOL   H14331055   7.293   1.409   1.750  0.7452 -0.9476 -0.9013
   97MOL   H14431056   7.067   1.255   1.684 -0.2440 -0.1023 -1.0038
   97MOL   H14531057   6.924   1.350   1.641  1.4581  0.4323  0.9202
   97MOL   C14631058   6.887   1.193   1.777  0.4116 -0.1292 -0.8602
   97MOL   C14731059   6.881   1.077   1.676 -0.3080  0.2344  0.4386
   97MOL   C14831060   6.931   0.949   1.717  0.4391  0.0163  0.5750
   97MOL  Cl14931061   7.022   0.917   1.867  0.1249 -0.1576  0.4151
   97MOL   C15031062   6.912   0.845   1.625 -0.2952  0.5636 -0.1873
   97MOL   C15131063   6.860   0.867   1.497 -0.1940  0.4241 -0.4501
   97MOL   C15231064   6.820   0.994   1.459 -0.3916 -0.1915 -0.1433
   97MOL   C15331065   6.821   1.100   1.549 -0.2384 -0.7866 -0.3528
   97MOL   C15431066   6.743   1.240   1.813  0.3273  0.1665 -0.1774
   97MOL   H15531067   6.937   1.151   1.864 -3.0114 -1.3275  0.5975
   97MOL   H15631068   6.958   0.750   1.649 -1.7345 -0.1372 -0.1535
   97MOL   H15731069   6.860   0.778   1.435  1.5079  0.3136 -0.3275
   97MOL   H15831070   6.785   1.010   1.358 -0.6826  2.3046  0.3226
   97MOL   H15931071   6.796   1.201   1.521 -0.4422  0.0913  2.7408
   97MOL   H16031072   6.692   1.287   1.728 -2.6871 -0.0852  1.4316
   97MOL   H16131073   6.753   1.326   1.879  1.3469 -0.5634  0.6287
   97MOL   C16231074   6.653   1.132   1.887  0.2895  0.4951 -0.1116
   97MOL   C16331075   6.607   1.012   1.792 -0.6482 -0.3045  0.0646
   97MOL   C16431076   6.629   0.879   1.824 -0.7407  0.9697 -0.5114
   97MOL  Cl16531077   6.716   0.830   1.962 -0.0096 -0.0724  0.0378
   97MOL   C16631078   6.584   0.775   1.733  0.2745 -0.4153  0.3003
   97MOL   C16731079   6.514   0.811   1.610 -0.1049  0.4691  0.0110
   97MOL   C16831080   6.490   0.946   1.586  0.4578 -0.0683  0.1732
   97MOL   C16931081   6.540   1.048   1.672  0.6767  0.2829  0.0150
   97MOL   C17031082   6.521   1.198   1.933 -0.0046  0.3011 -0.4379
   97MOL   H17131083   6.707   1.099   1.975 -0.6640  0.5925  0.5240
   97MOL   H17231084   6.587   0.670   1.759 -2.3492 -1.5258 -3.3889
   97MOL   H17331085   6.476   0.734   1.546 -0.6283 -1.3935  2.5062
   97MOL   H17431086   6.430   0.961   1.497  0.7833 -2.6210 -0.5246
   97MOL   H17531087   6.524   1.152   1.648 -0.5291  0.3369  0.9956
   97MOL   H17631088   6.468   1.106   1.956 -0.9105  0.3278 -2.3700
   97MOL   H17731089   6.479   1.250   1.847 -2.4297 -2.6261 -1.0827
   97MOL   C17831090   6.526   1.275   2.068  0.0838 -0.5535 -0.3277
   97MOL   C17931091   6.610   1.216   2.182 -0.2175  0.6362 -0.2859
   97MOL   C18031092   6.685   1.299   2.270  1.0670  0.0778  0.8649
   97MOL  Cl18131093   6.657   1.467   2.260 -0.1615 -0.2369  0.4773
   97MOL   C18231094   6.749   1.245   2.375  0.0855 -0.7622  0.0210
   97MOL   C18331095   6.759   1.106   2.393  0.0787 -0.6359  0.0870
   97MOL   C18431096   6.689   1.018   2.313  0.1652 -0.4104  0.2148
   97MOL   C18531097   6.617   1.080   2.205 -0.0729  0.4372 -0.0593
   97MOL   C18631098   6.384   1.293   2.125  0.0472 -0.1125  0.5243
   97MOL   H18731099   6.578   1.370   2.064  0.8703 -0.8879  1.3433
   97MOL   H18831100   6.804   1.316   2.434 -0.1886 -0.5700  0.0407
   97MOL   H18931101   6.817   1.071   2.477  0.9843  0.7017  0.0267
   97MOL   H19031102   6.696   0.910   2.308 -0.9872 -0.4144 -1.9302
   97MOL   H19131103   6.566   1.013   2.139 -1.7204  1.5012  0.0992
   97MOL   H19231104   6.392   1.308   2.233  0.0585 -2.3192  0.8519
   97MOL   H19331105   6.318   1.206   2.123  1.4109 -1.2804  2.8595
   97MOL   C19431106   6.292   1.404   2.055  0.3986  0.4717  0.2363
   97MOL   C19531107   6.316   1.546   2.106 -0.4760 -0.1326  0.0549
   97MOL   C19631108   6.332   1.651   2.020 -0.3042 -0.1106  0.2181
   97MOL  Cl19731109   6.313   1.655   1.851  0.2733  0.1991 -0.0317
   97MOL   C19831110   6.360   1.777   2.068  0.0827  0.0744  0.0315
   97MOL   C19931111   6.377   1.798   2.208 -0.0741  0.1764  0.3182
   97MOL   C20031112   6.348   1.695   2.301  0.0929 -0.3925  0.1568
   97MOL   C20131113   6.313   1.566   2.253 -0.3040 -0.1736  1.1375
   97MOL   C20231114   6.144   1.368   2.081  1.0229  0.5766 -0.2095
   97MOL   H20331115   6.327   1.402   1.952  2.7079  0.6696  0.9792
   97MOL   H20431116   6.383   1.862   2.005  1.6022 -2.4033 -2.8997
   97MOL   H20531117   6.400   1.898   2.243  0.5721  0.1808 -0.1082
   97MOL   H20631118   6.346   1.711   2.407 -0.6337  0.3034  0.0487
   97MOL   H20731119   6.275   1.484   2.311 -0.2643 -0.1755  1.1613
   97MOL   H20831120   6.077   1.454   2.090 -0.2952 -0.3050 -1.3740
   97MOL   H20931121   6.138   1.313   2.174 -0.2922 -1.1865 -1.3003
   97MOL   C21031122   6.095   1.276   1.972 -0.1797 -0.7584  0.9114
   97MOL   C21131123   6.046   1.365   1.853  1.1711 -0.1470 -0.0254
   97MOL   C21231124   6.087   1.355   1.720  0.2517 -0.7359  0.0386
   97MOL  Cl21331125   6.200   1.238   1.679 -0.2346  0.2914  0.1745
   97MOL   C21431126   6.050   1.446   1.615 -0.5413  0.5509 -0.6757
   97MOL   C21531127   5.959   1.550   1.648 -0.2184 -0.6991 -0.1442
   97MOL   C21631128   5.908   1.563   1.780 -0.1416 -0.2965  0.4771
   97MOL   C21731129   5.947   1.465   1.878 -0.0942 -0.2169 -0.2003
   97MOL   C21831130   5.976   1.195   2.023  0.0901  0.3686  0.3988
   97MOL   H21931131   6.180   1.213   1.944  1.3104  1.5465  0.0927
   97MOL   H22031132   6.090   1.447   1.515  0.1520  0.1741 -0.3969
   97MOL   H22131133   5.925   1.610   1.564 -0.1711 -2.7489 -1.6701
   97MOL   H22231134   5.825   1.629   1.797 -1.1106 -1.3287 -0.2364
   97MOL   H22331135   5.899   1.463   1.974 -0.7982 -0.5187 -0.5560
   97MOL   H22431136   5.922   1.143   1.945 -0.0964 -1.5776  1.7837
   97MOL   H22531137   5.901   1.257   2.072 -0.3756  0.2763 -0.2038
   97MOL   C22631138   6.020   1.076   2.107 -0.0172 -0.5773 -0.4121
   97MOL   C22731139   6.114   0.969   2.046  0.3602 -0.6848 -0.1363
   97MOL   C22831140   6.210   0.902   2.133 -0.0893  0.7940  0.4696
   97MOL  Cl22931141   6.223   0.921   2.309  0.2162  0.1033 -0.5623
   97MOL   C23031142   6.293   0.804   2.075  0.1677 -0.4802  0.6482
   97MOL   C23131143   6.293   0.776   1.937  0.0571  0.6009  0.2486
   97MOL   C23231144   6.203   0.835   1.849  0.1961  0.4652 -0.8310
   97MOL   C23331145   6.109   0.929   1.908 -0.3280  0.1108  0.2474
   97MOL   C23431146   5.903   1.004   2.181 -0.4407 -0.0549  0.7378
   97MOL   H23531147   6.080   1.112   2.191  0.8386  1.2907 -1.7905
   97MOL   H23631148   6.367   0.754   2.136  1.3819  0.6077  0.0930
   97MOL   H23731149   6.368   0.707   1.901 -1.3909 -1.7469  1.6108
   97MOL   H23831150   6.204   0.811   1.743  3.1844 -1.8218 -0.3621
   97MOL   H23931151   6.036   0.968   1.840 -0.7021 -1.0281 -0.0239
   97MOL   H24031152   5.947   0.928   2.245 -1.0130 -0.6624  0.4091
   97MOL   H24131153   5.850   0.950   2.103 -0.9063 -1.4738  2.0243
   97MOL   C24231154   5.812   1.086   2.275  0.4304  0.7659  0.2503
   97MOL   C24331155   5.890   1.179   2.364 -0.1059 -0.1415  0.0288
   97MOL   C24431156   5.891   1.323   2.348  0.5489  0.0857  0.9763
   97MOL  Cl24531157   5.775   1.403   2.250  0.1544 -0.2257 -0.1822
   97MOL   C24631158   5.981   1.396   2.426  0.1458 -0.7670 -0.0594
   97MOL   C24731159   6.070   1.335   2.512 -1.0215 -0.3170 -0.3115
   97MOL   C24831160   6.069   1.196   2.529  0.0151 -0.3401  0.4541
   97MOL   C24931161   5.977   1.120   2.458  0.1110  0.3539 -0.2595
   97MOL   C25031162   5.711   1.006   2.353  0.3267 -0.6907 -0.6550
   97MOL   H25131163   5.747   1.149   2.215 -1.1580 -1.0309  0.0304
   97MOL   H25231164   5.994   1.504   2.424  3.1413 -1.0819 -0.3798
   97MOL   H25331165   6.138   1.399   2.565 -0.0761 -1.7030  0.1797
   97MOL   H25431166   6.135   1.149   2.600 -0.0109 -0.8583  0.1298
   97MOL   H25531167   5.974   1.012   2.469 -1.3275  0.1813 -2.2168
   97MOL   H25631168   5.664   1.060   2.434 -0.8285 -0.1091 -1.6922
   97MOL   H25731169   5.756   0.914   2.391 -4.0790 -3.0051 -0.6618
   97MOL   C25831170   5.600   0.952   2.253 -0.0985  0.0492 -0.1405
   97MOL   C25931171   5.503   1.053   2.204 -0.3529  0.5691  0.3818
   97MOL   C26031172   5.428   1.034   2.083 -0.2244  0.3486  0.1857
   97MOL  Cl26131173   5.427   0.886   2.000  0.4978  0.2184 -0.1312
   97MOL   C26231174   5.334   1.129   2.043 -0.3579  0.3960  0.0158
   97MOL   C26331175   5.334   1.256   2.108 -0.3523 -0.6303  0.2052
   97MOL   C26431176   5.412   1.277   2.225  0.6562 -0.7899 -0.2867
   97MOL   C26531177   5.485   1.170   2.282  0.1987 -0.0166  0.1480
   97MOL   C26631178   5.532   0.830   2.322  0.2250 -0.6951  0.1788
   97MOL   H26731179   5.652   0.918   2.164  0.5247 -0.9639  0.5981
   97MOL   H26831180   5.262   1.103   1.967 -0.8422 -0.2236  0.6897
   97MOL   H26931181   5.253   1.320   2.077 -0.3439 -0.2466  0.9610
   97MOL   H27031182   5.399   1.373   2.274 -2.0536 -1.2997  0.0793
   97MOL   H27131183   5.525   1.182   2.381  2.2028  0.3602 -0.6891
   97MOL   H27231184   5.459   0.794   2.249  1.5380 -2.4430 -0.3076
   97MOL   H27331185   5.480   0.855   2.414 -3.8122 -0.3480 -2.0581
   97MOL   C27431186   5.623   0.712   2.343  0.4760  0.8360 -0.3741
   97MOL   C27531187   5.743   0.690   2.248  0.1876  0.0702  0.5829
   97MOL   C27631188   5.878   0.680   2.291 -0.1370 -0.1950  0.3332
   97MOL  Cl27731189   5.927   0.729   2.446 -0.5789 -0.0648  0.3367
   97MOL   C27831190   5.980   0.644   2.198 -0.0935 -1.2633 -0.0800
   97MOL   C27931191   5.945   0.609   2.063  0.2085  0.6876  0.4309
   97MOL   C28031192   5.811   0.618   2.024  0.7755  0.6608  0.3012
   97MOL   C28131193   5.713   0.666   2.116 -0.0338 -0.6050  0.2271
   97MOL   C28231194   5.534   0.580   2.361 -0.6418 -0.8865 -0.4390
   97MOL   H28331195   5.658   0.722   2.446 -2.1019 -0.6748  0.7129
   97MOL   H28431196   6.084   0.658   2.220 -0.1207 -2.0595  0.5581
   97MOL   H28531197   6.022   0.592   1.990 -0.0563  1.3530 -0.0093
   97MOL   H28631198   5.796   0.591   1.921 -0.6066  0.8956  0.4285
   97MOL   H28731199   5.608   0.671   2.092 -0.1867 -2.6082  0.3897
   97MOL   H28831200   5.487   0.572   2.263  1.1751  2.4367 -1.6695
   97MOL   H28931201   5.449   0.599   2.426  0.8453  0.7571  1.0887
   97MOL   C29031202   5.607   0.455   2.401  0.0849  0.6643 -0.8294
   97MOL   C29131203   5.519   0.340   2.347 -0.0362 -0.6439  0.5182
   97MOL   C29231204   5.557   0.257   2.239 -0.4149  0.1715  0.4532
   97MOL  Cl29331205   5.696   0.296   2.145 -0.1422 -0.2146 -0.2117
   97MOL   C29431206   5.479   0.142   2.203  0.5717  0.1173 -0.3735
   97MOL   C29531207   5.357   0.112   2.266  0.2213 -0.2415  0.0711
   97MOL   C29631208   5.313   0.199   2.365 -0.2815 -0.5809 -0.4116
   97MOL   C29731209   5.394   0.310   2.412  0.4906 -0.5435  0.0287
   97MOL   C29831210   5.620   0.459   2.558  0.1911 -0.0052  0.1424
   97MOL   H29931211   5.707   0.454   2.358  0.0404 -0.9657 -0.9258
   97MOL   H30031212   5.520   0.083   2.123 -0.1803 -1.9113  0.7001
   97MOL   H30131213   5.303   0.024   2.234 -1.2604  0.1842  1.3730
   97MOL   H30231214   5.224   0.184   2.425  0.1186 -0.9639  0.0881
   97MOL   H30331215   5.358   0.351   2.505  1.3135 -1.8309  0.9136
   97MOL   H30431216   5.523   0.485   2.601 -2.2980 -5.1496 -1.8983
   97MOL   H30531217   5.681   0.545   2.585  1.5989 -0.4925 -1.3617
   97MOL   C30631218   5.665   0.328   2.628  0.8157 -0.1833  0.7576
   97MOL   C30731219   5.602   0.308   2.766  0.0777  0.2784  0.3544
   97MOL   C30831220   5.638   0.376   2.881  0.4332  0.1428 -0.0261
   97MOL  Cl30931221   5.767   0.489   2.882 -0.5236 -0.5274  0.0839
   97MOL   C31031222   5.572   0.361   3.000  0.0792 -0.7448 -0.0647
   97MOL   C31131223   5.462   0.280   3.010  1.0014 -0.8171  0.3173
   97MOL   C31231224   5.425   0.197   2.902 -0.5292 -0.0793  0.0974
   97MOL   C31331225   5.499   0.217   2.784  0.7046  0.4843 -0.1073
   97MOL   C31431226   5.819   0.296   2.625 -0.3101 -0.3032 -0.5327
   97MOL   H31531227   5.615   0.248   2.573 -0.5791  0.8484  0.4820
   97MOL   H31631228   5.610   0.406   3.091 -0.2479 -2.7425  1.0916
   97MOL   H31731229   5.414   0.270   3.106  1.5988 -1.1152  0.5882
   97MOL   H31831230   5.337   0.137   2.918 -2.0268  2.3934  1.4511
   97MOL   H31931231   5.471   0.156   2.699 -1.8339 -1.3757  2.0230
   97MOL   H32031232   5.860   0.304   2.525  0.8845 -1.3863 -0.1438
   97MOL   H32131233   5.856   0.198   2.655  0.4591 -0.4280 -1.8415
   97MOL   H32231234   5.871   0.370   2.686 -0.8760 -0.3410  0.0048
   98MOL     C131235   6.289   6.443   5.375 -0.4146  0.3087 -0.1505
   98MOL     C231236   6.309   6.457   5.221  0.3554 -0.3188  0.1997
   98MOL     C331237   6.410   6.381   5.153 -0.2281 -0.2118 -0.7575
   98MOL    Cl431238   6.518   6.274   5.242  0.2269 -0.1600  0.1599
   98MOL     C531239   6.421   6.402   5.011  0.1124  0.3463 -0.3209
   98MOL     C631240   6.319   6.480   4.950  0.3231 -0.0176  0.2077
   98MOL     C731241   6.221   6.552   5.021 -0.9168  0.0572  0.8622
   98MOL     C831242   6.215   6.537   5.157 -0.0207 -0.3130  0.1996
   98MOL     C931243   6.189   6.330   5.397 -0.4277 -0.5280 -0.0613
   98MOL    H1031244   6.386   6.431   5.423 -0.2958  0.7662 -0.2794
   98MOL    H1131245   6.491   6.354   4.944  0.7189  0.3979  0.2786
   98MOL    H1231246   6.313   6.492   4.842 -1.4555 -0.4547  0.2424
   98MOL    H1331247   6.148   6.611   4.968 -1.6540  0.2654  2.0727
   98MOL    H1431248   6.140   6.598   5.205 -1.0498 -1.8100  0.5558
   98MOL    H1531249   6.237   6.236   5.370  0.7963 -0.2041  0.9031
   98MOL    H1631250   6.096   6.350   5.344 -0.7088 -0.6654  0.3775
   98MOL    H1731251   6.252   6.535   5.420 -0.2022 -0.6694  2.1265
   98MOL    C1831252   6.161   6.309   5.551 -0.6106 -0.0269  0.0251
   98MOL    C1931253   6.290   6.299   5.631  1.0138 -0.6205 -0.2753
   98MOL    C2031254   6.343   6.404   5.713  0.6366 -0.6354  0.1285
   98MOL   Cl2131255   6.268   6.556   5.714 -0.0132  0.1825 -0.1858
   98MOL    C2231256   6.463   6.385   5.782 -0.1766  0.0690 -0.1155
   98MOL    C2331257   6.522   6.257   5.790  0.3946  0.3660  0.2100
   98MOL    C2431258   6.467   6.146   5.722 -0.3156 -0.6598 -0.6942
   98MOL    C2531259   6.356   6.170   5.641  0.4224  0.5278  0.2828
   98MOL    C2631260   6.053   6.199   5.582  0.1224  0.0484 -0.0267
   98MOL    H2731261   6.100   6.399   5.561 -0.1784  0.2951 -0.1789
   98MOL    H2831262   6.493   6.467   5.845  1.6876  1.6579 -2.9653
   98MOL    H2931263   6.614   6.244   5.846  0.9408 -1.5038 -1.0637
   98MOL    H3031264   6.522   6.055   5.739  0.6101 -0.4481 -2.4190
   98MOL    H3131265   6.314   6.090   5.582 -1.7744  1.6174  0.3159
   98MOL    H3231266   6.088   6.127   5.655  0.3992  0.5903  0.3765
   98MOL    H3331267   6.039   6.136   5.494 -1.8178 -1.4953  1.3693
   98MOL    C3431268   5.915   6.249   5.633  0.6111 -0.8461  0.2074
   98MOL    C3531269   5.851   6.318   5.510 -0.0550  0.3190  0.3698
   98MOL    C3631270   5.781   6.251   5.403  0.0707 -0.2920  0.1736
   98MOL   Cl3731271   5.754   6.084   5.409  0.5853 -0.1059  0.1299
   98MOL    C3831272   5.728   6.322   5.292 -0.6758  0.3424  0.0406
   98MOL    C3931273   5.738   6.463   5.289  0.4441 -0.3248  0.2494
   98MOL    C4031274   5.802   6.533   5.396  0.1050  0.3704  1.1801
   98MOL    C4131275   5.856   6.464   5.507 -0.1679 -0.1448  0.1237
   98MOL    C4231276   5.933   6.328   5.767  0.0909  0.0243 -0.1569
   98MOL    H4331277   5.854   6.160   5.647  1.2566 -1.0955  1.4264
   98MOL    H4431278   5.689   6.268   5.207 -0.8479  0.0833  0.2823
   98MOL    H4531279   5.719   6.513   5.196  2.1527 -1.1511 -0.5616
   98MOL    H4631280   5.825   6.638   5.390  0.2064  0.2587 -0.5186
   98MOL    H4731281   5.914   6.526   5.575 -1.3788  1.5948 -0.3921
   98MOL    H4831282   5.992   6.418   5.752 -0.3186  0.5171  1.0496
   98MOL    H4931283   6.009   6.271   5.819  0.5249  1.0089  0.2918
   98MOL    C5031284   5.798   6.338   5.843 -0.5712 -0.7145 -0.4248
   98MOL    C5131285   5.707   6.438   5.786 -0.1910 -0.7970  0.3738
   98MOL    C5231286   5.578   6.403   5.732 -0.3590  0.3315 -0.1529
   98MOL   Cl5331287   5.530   6.236   5.731  0.5367  0.1434  0.3134
   98MOL    C5431288   5.498   6.502   5.663  0.8762  0.6474  0.3789
   98MOL    C5531289   5.533   6.634   5.657  0.0658  0.5692 -0.9555
   98MOL    C5631290   5.659   6.672   5.720 -0.0540  0.0568 -0.2253
   98MOL    C5731291   5.737   6.576   5.789 -0.0342  0.0696 -0.1100
   98MOL    C5831292   5.822   6.377   5.993 -0.1314 -0.8265 -0.1233
   98MOL    H5931293   5.756   6.237   5.841  1.2535 -1.5075  0.5026
   98MOL    H6031294   5.406   6.474   5.614  1.4459  0.0397 -0.3655
   98MOL    H6131295   5.461   6.701   5.613 -1.2567  0.0879  0.4358
   98MOL    H6231296   5.690   6.775   5.730  0.3455  0.0440 -1.2663
   98MOL    H6331297   5.832   6.616   5.822  0.9278 -0.3537 -2.2682
   98MOL    H6431298   5.879   6.470   5.995  0.0659 -0.9537  0.1641
   98MOL    H6531299   5.884   6.315   6.057 -0.3901  0.9663  1.9053
   98MOL    C6631300   5.692   6.403   6.074  0.0882 -0.2724  0.4243
   98MOL    C6731301   5.737   6.460   6.206 -0.0775  0.0336  0.0525
   98MOL    C6831302   5.739   6.600   6.234  0.0186  0.0364  0.5879
   98MOL   Cl6931303   5.708   6.715   6.104  0.3373  0.2715  0.0790
   98MOL    C7031304   5.766   6.640   6.372 -0.1359  0.5678  0.7033
   98MOL    C7131305   5.799   6.547   6.466 -0.1748  0.1192 -0.1113
   98MOL    C7231306   5.811   6.410   6.434 -0.2073 -0.0383 -0.4123
   98MOL    C7331307   5.786   6.369   6.303  0.4143  0.4182  0.5413
   98MOL    C7431308   5.586   6.287   6.091  0.1724 -0.0168 -0.2693
   98MOL    H7531309   5.637   6.482   6.022  2.8764  0.9752 -0.7217
   98MOL    H7631310   5.752   6.744   6.397 -3.4906  0.2613  0.2708
   98MOL    H7731311   5.812   6.579   6.569  0.9877 -1.7574  0.3541
   98MOL    H7831312   5.824   6.339   6.515  2.4651 -0.9742 -1.5916
   98MOL    H7931313   5.771   6.265   6.279 -0.8562  1.4572 -3.6550
   98MOL    H8031314   5.645   6.208   6.137  0.0291  0.6493  1.0770
   98MOL    H8131315   5.559   6.249   5.993 -1.7518 -0.3190  0.3551
   98MOL    C8231316   5.447   6.314   6.160 -0.3258  0.6396  0.2812
   98MOL    C8331317   5.372   6.179   6.159  0.0451  0.2732  0.2026
   98MOL    C8431318   5.339   6.099   6.277  0.0867 -0.3893 -0.8997
   98MOL   Cl8531319   5.364   6.163   6.439 -0.2983  0.0999 -0.0613
   98MOL    C8631320   5.264   5.987   6.268 -0.1110  0.3215 -0.7840
   98MOL    C8731321   5.224   5.936   6.144 -1.0113  0.3824 -1.1706
   98MOL    C8831322   5.266   6.003   6.027 -0.6786 -0.1244  0.0748
   98MOL    C8931323   5.330   6.126   6.034  0.7002  0.0331  0.0026
   98MOL    C9031324   5.368   6.432   6.087  0.3890  0.2885 -0.4620
   98MOL    H9131325   5.469   6.332   6.266 -2.1110 -0.5433  0.8766
   98MOL    H9231326   5.222   5.942   6.356 -1.0064 -1.5385 -2.1379
   98MOL    H9331327   5.168   5.844   6.137  0.7501 -0.6898 -1.3130
   98MOL    H9431328   5.253   5.966   5.927 -2.0543 -0.5591  0.4016
   98MOL    H9531329   5.348   6.174   5.939 -1.0061 -0.2729 -0.5052
   98MOL    H9631330   5.316   6.395   5.998 -0.3310  0.0990  0.0332
   98MOL    H9731331   5.442   6.503   6.050  1.5473 -0.4803  0.3330
   98MOL    C9831332   5.281   6.527   6.173  0.1564  0.1279 -0.1587
   98MOL    C9931333   5.225   6.639   6.084 -0.5770 -0.1264  0.2632
   98MOL   C10031334   5.084   6.654   6.050 -0.3562 -0.1109 -0.1137
   98MOL  Cl10131335   4.971   6.533   6.102 -0.2485  0.3519 -0.1159
   98MOL   C10231336   5.047   6.776   5.979  0.4399  0.0400  0.3193
   98MOL   C10331337   5.143   6.862   5.925 -0.4794  0.4825  0.1630
   98MOL   C10431338   5.280   6.840   5.950 -0.1322  0.4584 -0.6301
   98MOL   C10531339   5.321   6.732   6.033 -0.1990  0.7805  0.0900
   98MOL   C10631340   5.354   6.579   6.301  0.0430 -0.6484 -0.2351
   98MOL   H10731341   5.202   6.455   6.197  1.2704 -1.6770 -1.6989
   98MOL   H10831342   4.942   6.790   5.956  0.0475  0.0163  2.0321
   98MOL   H10931343   5.116   6.944   5.861 -3.0521 -1.3469 -1.1925
   98MOL   H11031344   5.350   6.911   5.908  0.2119  2.0777  2.5511
   98MOL   H11131345   5.425   6.711   6.055 -0.5368 -0.6031  0.4388
   98MOL   H11231346   5.459   6.591   6.276  0.6361 -3.0872  0.9513
   98MOL   H11331347   5.356   6.498   6.374 -3.5057  0.1903  0.8937
   98MOL   C11431348   5.304   6.709   6.364  0.3384 -0.3716  0.4538
   98MOL   C11531349   5.388   6.743   6.482 -0.5787 -0.2618  0.1651
   98MOL   C11631350   5.495   6.839   6.471  0.1331 -0.2378 -0.9907
   98MOL  Cl11731351   5.543   6.921   6.325  0.5665  0.3098 -0.2723
   98MOL   C11831352   5.573   6.866   6.581  0.4096  0.3369 -0.2135
   98MOL   C11931353   5.555   6.798   6.707 -0.2977 -0.4500  0.1128
   98MOL   C12031354   5.456   6.701   6.715  0.5638  0.8067 -0.0330
   98MOL   C12131355   5.365   6.682   6.610 -0.2245  0.0296  0.1555
   98MOL   C12231356   5.150   6.708   6.393 -0.3015 -0.8167 -0.6161
   98MOL   H12331357   5.331   6.777   6.284  0.9377  0.8016  1.6358
   98MOL   H12431358   5.657   6.932   6.566 -0.4195  0.9927 -2.2448
   98MOL   H12531359   5.614   6.791   6.797 -1.3564 -0.4542  0.8068
   98MOL   H12631360   5.448   6.659   6.815  1.1442  0.4429 -0.1368
   98MOL   H12731361   5.278   6.621   6.629  0.1208 -1.0942 -1.6973
   98MOL   H12831362   5.119   6.620   6.450 -2.6230 -0.0972 -0.7193
   98MOL   H12931363   5.082   6.689   6.310  0.1623 -3.9095 -0.3627
   98MOL   C13031364   5.094   6.835   6.461 -0.1925  0.2779 -0.4330
   98MOL   C13131365   4.945   6.818   6.479 -0.0785 -0.0792  0.0634
   98MOL   C13231366   4.886   6.751   6.589  0.3001  0.3567  0.1738
   98MOL  Cl13331367   4.984   6.694   6.723 -0.1149 -0.0089  0.1064
   98MOL   C13431368   4.749   6.731   6.600 -0.3201  0.1023  0.1725
   98MOL   C13531369   4.662   6.778   6.503  0.4205 -0.2802  0.1445
   98MOL   C13631370   4.719   6.829   6.385  0.2364 -0.1335 -0.4996
   98MOL   C13731371   4.860   6.847   6.370  0.4381 -0.3142  0.3326
   98MOL   C13831372   5.135   6.972   6.394 -0.5302  0.7152 -0.3500
   98MOL   H13931373   5.134   6.846   6.562 -0.6468  0.9979 -0.3264
   98MOL   H14031374   4.710   6.684   6.690 -1.8326 -0.7936 -0.9116
   98MOL   H14131375   4.556   6.769   6.520  0.1087  2.9659  0.3956
   98MOL   H14231376   4.649   6.847   6.305  2.1388 -0.7658 -2.3540
   98MOL   H14331377   4.903   6.885   6.279  1.8801  0.2455  1.2218
   98MOL   H14431378   5.095   6.979   6.293 -0.2461 -1.4644 -0.6365
   98MOL   H14531379   5.242   6.985   6.376 -0.7068  0.6794 -1.4504
   98MOL   C14631380   5.094   7.101   6.479  0.7676  0.0838 -0.2361
   98MOL   C14731381   5.064   7.217   6.394  0.1859  0.0600 -0.0864
   98MOL   C14831382   4.942   7.282   6.409 -0.0689 -0.1741  0.0297
   98MOL  Cl14931383   4.800   7.198   6.464  0.0234  0.2136  0.0381
   98MOL   C15031384   4.916   7.403   6.340  0.3011  0.4900 -0.2585
   98MOL   C15131385   5.021   7.468   6.278  0.3583 -0.6255 -0.3051
   98MOL   C15231386   5.144   7.400   6.259  1.0016 -0.3784 -0.4302
   98MOL   C15331387   5.165   7.275   6.315  0.3922  0.2346  0.1037
   98MOL   C15431388   5.197   7.127   6.593 -0.2680 -0.7389  0.0368
   98MOL   H15531389   5.001   7.066   6.522  0.5055 -0.4272 -1.1885
   98MOL   H15631390   4.821   7.453   6.347 -0.5994 -1.3311  0.9206
   98MOL   H15731391   5.000   7.563   6.231 -0.5616 -1.4887 -1.6810
   98MOL   H15831392   5.221   7.447   6.199  0.8836  0.4068  0.0151
   98MOL   H15931393   5.256   7.218   6.320  1.3673  1.8918  1.5289
   98MOL   H16031394   5.293   7.139   6.543 -0.9289  0.0846 -1.0526
   98MOL   H16131395   5.204   7.044   6.664  1.5126  1.0821  2.0541
   98MOL   C16231396   5.176   7.264   6.666 -0.0786 -0.5750 -0.2623
   98MOL   C16331397   5.306   7.302   6.736 -0.1627  0.3078 -0.4994
   98MOL   C16431398   5.327   7.438   6.775  0.3249  0.7476 -0.4187
   98MOL  Cl16531399   5.240   7.570   6.707 -0.1795  0.3666  0.1069
   98MOL   C16631400   5.435   7.465   6.863 -0.5081 -0.4663  0.0672
   98MOL   C16731401   5.528   7.371   6.901  0.3713 -0.0487  0.5344
   98MOL   C16831402   5.505   7.237   6.868 -0.4327 -0.0005 -0.0500
   98MOL   C16931403   5.390   7.206   6.788  0.1625  0.2475  0.3834
   98MOL   C17031404   5.043   7.259   6.763 -0.4725  0.1040  0.0244
   98MOL   H17131405   5.161   7.345   6.594  0.7194 -1.5787 -1.5695
   98MOL   H17231406   5.453   7.568   6.893  0.8821 -0.5746 -0.3591
   98MOL   H17331407   5.606   7.400   6.971 -0.0044 -0.4306  1.1122
   98MOL   H17431408   5.574   7.163   6.906 -0.5361 -0.7589 -1.3267
   98MOL   H17531409   5.382   7.100   6.772  0.6735  0.0604  1.3350
   98MOL   H17631410   4.959   7.225   6.703 -1.1674 -0.1916  1.1416
   98MOL   H17731411   5.009   7.359   6.790  1.1580  0.1499  2.0207
   98MOL   C17831412   5.049   7.166   6.882 -0.1133  0.1600  0.2049
   98MOL   C17931413   4.918   7.095   6.919  0.2632 -0.4278  0.4864
   98MOL   C18031414   4.799   7.160   6.965 -0.2605 -0.7234  0.8261
   98MOL  Cl18131415   4.799   7.335   6.972 -0.2779  0.0922  0.1312
   98MOL   C18231416   4.683   7.088   6.998  0.0360  0.3568  0.2361
   98MOL   C18331417   4.684   6.953   6.979 -0.6610 -0.6427 -0.9179
   98MOL   C18431418   4.800   6.885   6.948 -0.3705  0.3246  0.0988
   98MOL   C18531419   4.917   6.955   6.911  0.4958 -0.5017 -0.0259
   98MOL   C18631420   5.118   7.225   7.007  0.3279  0.5600 -0.2529
   98MOL   H18731421   5.107   7.083   6.841 -1.0885  0.2348 -1.3681
   98MOL   H18831422   4.600   7.134   7.050  0.9135  1.2601  0.8715
   98MOL   H18931423   4.593   6.900   7.004 -1.1230  0.3243 -0.5444
   98MOL   H19031424   4.800   6.780   6.922  0.0001  0.6155 -1.1247
   98MOL   H19131425   5.005   6.897   6.886 -0.7438 -1.7591 -1.5435
   98MOL   H19231426   5.051   7.295   7.057 -0.2457 -1.3519  1.7520
   98MOL   H19331427   5.212   7.275   6.985  0.0976  1.4601  0.7437
   98MOL   C19431428   5.152   7.122   7.121 -0.2451 -0.3207  0.9368
   98MOL   C19531429   5.183   7.202   7.251  0.0311  1.0611  0.0893
   98MOL   C19631430   5.105   7.186   7.368  0.1952 -0.2256 -0.4913
   98MOL  Cl19731431   4.963   7.089   7.367 -0.2238 -0.0219  0.0369
   98MOL   C19831432   5.150   7.251   7.484  0.0801 -0.3101  0.4438
   98MOL   C19931433   5.261   7.338   7.483 -0.1432 -0.2992 -0.2302
   98MOL   C20031434   5.332   7.357   7.365 -0.9856 -0.7538 -0.6554
   98MOL   C20131435   5.294   7.287   7.250  0.3021  0.4230 -0.3866
   98MOL   C20231436   5.262   7.021   7.076  0.3298 -0.5311 -0.0158
   98MOL   H20331437   5.061   7.066   7.142 -1.3234  0.7881 -0.6922
   98MOL   H20431438   5.095   7.229   7.574 -0.0974  2.0944  0.9464
   98MOL   H20531439   5.296   7.381   7.576 -0.6952  1.5499 -0.8612
   98MOL   H20631440   5.418   7.422   7.361 -1.9079  0.4215 -1.5856
   98MOL   H20731441   5.361   7.303   7.167  0.4186  0.2944 -0.3199
   98MOL   H20831442   5.357   7.074   7.066  0.4120 -0.4449  1.2561
   98MOL   H20931443   5.231   6.973   6.983 -1.3452  0.2192  0.1396
   98MOL   C21031444   5.295   6.915   7.181  0.0529 -0.0128  0.3750
   98MOL   C21131445   5.426   6.840   7.138 -0.0989 -0.8561 -0.0104
   98MOL   C21231446   5.546   6.903   7.178  0.8235  0.1062  0.0119
   98MOL  Cl21331447   5.550   7.058   7.254 -0.5304  0.0655  0.0596
   98MOL   C21431448   5.672   6.840   7.157 -0.2068  0.6679 -0.7903
   98MOL   C21531449   5.678   6.710   7.098  0.4125 -0.5195  0.1115
   98MOL   C21631450   5.558   6.643   7.063  0.3570 -0.1620  0.0911
   98MOL   C21731451   5.431   6.703   7.089 -0.4177 -0.3314  0.8459
   98MOL   C21831452   5.171   6.818   7.195  0.7219  0.0503  0.0737
   98MOL   H21931453   5.301   6.958   7.280 -2.4452  2.6661 -0.5534
   98MOL   H22031454   5.763   6.888   7.188  0.4549  0.0090 -1.6854
   98MOL   H22131455   5.768   6.652   7.087  1.5604  1.1524  0.4245
   98MOL   H22231456   5.572   6.546   7.017  3.4967 -0.1133  0.8487
   98MOL   H22331457   5.347   6.640   7.064 -0.1908 -1.1770  2.1624
   98MOL   H22431458   5.133   6.781   7.100  1.0023 -0.1199  0.0286
   98MOL   H22531459   5.089   6.875   7.239  0.8618 -2.1035  3.2960
   98MOL   C22631460   5.175   6.708   7.311  0.3252 -0.6458  0.1353
   98MOL   C22731461   5.080   6.591   7.266  0.5880  0.1781 -0.4211
   98MOL   C22831462   5.123   6.457   7.247  0.5060  0.7924  0.2930
   98MOL  Cl22931463   5.292   6.413   7.257  0.1336  0.3180 -0.2079
   98MOL   C23031464   5.028   6.350   7.225 -0.6566 -0.4941  0.2122
   98MOL   C23131465   4.893   6.382   7.198  0.9141 -0.2120 -0.0723
   98MOL   C23231466   4.848   6.520   7.208  0.0006 -0.1347 -0.4044
   98MOL   C23331467   4.941   6.624   7.240 -0.1958  0.4081  0.0848
   98MOL   C23431468   5.143   6.745   7.458  0.6520  0.2327  0.0321
   98MOL   H23531469   5.276   6.667   7.306  0.4240 -0.4804  0.7068
   98MOL   H23631470   5.072   6.251   7.226  0.5251  0.0224  2.1144
   98MOL   H23731471   4.825   6.301   7.175  1.7310 -0.4162 -1.9183
   98MOL   H23831472   4.743   6.541   7.193  0.4532  1.7456 -0.9926
   98MOL   H23931473   4.914   6.729   7.237 -1.3217  0.0959 -1.4303
   98MOL   H24031474   5.104   6.658   7.511 -0.6502  0.2906 -0.8267
   98MOL   H24131475   5.057   6.812   7.463  0.0783 -0.4102 -1.0714
   98MOL   C24231476   5.271   6.797   7.533  0.6343  0.0822 -0.1605
   98MOL   C24331477   5.393   6.701   7.550 -1.2595 -0.4379  0.4055
   98MOL   C24431478   5.527   6.749   7.569  0.0484 -0.6559 -0.3225
   98MOL  Cl24531479   5.564   6.921   7.577  0.0496  0.4728 -0.0268
   98MOL   C24631480   5.639   6.662   7.584 -0.4758 -0.0459  0.3845
   98MOL   C24731481   5.608   6.526   7.577 -0.3661 -0.7113 -0.5863
   98MOL   C24831482   5.477   6.476   7.563  0.0249 -0.0245 -0.5587
   98MOL   C24931483   5.369   6.565   7.542 -0.2307 -0.1745  0.2482
   98MOL   C25031484   5.229   6.878   7.656 -0.7310 -0.9219 -0.1357
   98MOL   H25131485   5.310   6.875   7.468 -2.1343  1.2557 -0.4813
   98MOL   H25231486   5.742   6.679   7.608 -0.0266 -2.2711  0.1535
   98MOL   H25331487   5.682   6.450   7.595 -0.0208 -0.1898  0.2342
   98MOL   H25431488   5.465   6.370   7.547  0.5325 -0.0582 -0.7333
   98MOL   H25531489   5.272   6.533   7.505  0.4971 -1.4808 -0.5816
   98MOL   H25631490   5.176   6.967   7.624  2.0406  0.2617 -1.6312
   98MOL   H25731491   5.315   6.933   7.696 -0.4212  1.4928 -3.8714
   98MOL   C25831492   5.133   6.796   7.757 -0.2442 -0.6508 -0.3935
   98MOL   C25931493   4.983   6.795   7.718 -0.7103 -0.8400  0.1117
   98MOL   C26031494   4.910   6.673   7.722  0.1859  0.1522 -0.2858
   98MOL  Cl26131495   4.963   6.546   7.825  0.3557 -0.4510  0.1015
   98MOL   C26231496   4.777   6.670   7.673  0.3031 -0.2107  0.1526
   98MOL   C26331497   4.718   6.782   7.609  0.2052 -0.5963 -0.0124
   98MOL   C26431498   4.787   6.903   7.610  0.4225 -0.2560 -0.0632
   98MOL   C26531499   4.925   6.906   7.659 -0.1807 -0.2060  0.4492
   98MOL   C26631500   5.139   6.849   7.900  0.4394 -0.3454  0.1907
   98MOL   H26731501   5.169   6.694   7.744 -1.6435 -0.9216 -2.1648
   98MOL   H26831502   4.719   6.583   7.698  0.0769  0.0807  0.6606
   98MOL   H26931503   4.616   6.775   7.576 -0.4477 -0.1552  1.8837
   98MOL   H27031504   4.734   6.982   7.560  1.3104 -0.0063 -0.6365
   98MOL   H27131505   4.973   7.002   7.648 -3.5619  1.5898  0.5926
   98MOL   H27231506   5.057   6.805   7.957 -1.6372  0.0380 -2.4082
   98MOL   H27331507   5.097   6.949   7.898  2.7205  0.6315 -0.5626
   98MOL   C27431508   5.276   6.846   7.974 -0.2287 -0.3269 -0.2737
   98MOL   C27531509   5.321   6.704   7.996  0.3731  0.3486 -0.1157
   98MOL   C27631510   5.455   6.668   7.999 -0.1937  0.6889  0.5945
   98MOL  Cl27731511   5.584   6.776   7.989 -0.1313  0.0674 -0.0136
   98MOL   C27831512   5.490   6.533   8.007  0.2282  0.4717 -0.4610
   98MOL   C27931513   5.397   6.426   8.017 -0.4098 -0.3000 -0.3931
   98MOL   C28031514   5.259   6.464   8.030  0.0440  0.0418  0.2580
   98MOL   C28131515   5.227   6.601   8.028 -0.6124  0.9511 -0.2550
   98MOL   C28231516   5.284   6.923   8.115 -0.0312  0.5246  0.2558
   98MOL   H28331517   5.348   6.896   7.909 -1.2149  3.3554  1.2965
   98MOL   H28431518   5.592   6.499   8.001  0.2711  0.4445  0.3198
   98MOL   H28531519   5.431   6.324   8.021 -1.2747 -0.5747  0.0394
   98MOL   H28631520   5.182   6.390   8.047 -0.9394  1.0396  0.2001
   98MOL   H28731521   5.122   6.617   8.051 -0.7456 -0.0820 -0.1571
   98MOL   H28831522   5.369   6.878   8.164  0.4689  0.2772 -0.8203
   98MOL   H28931523   5.197   6.901   8.176  0.7820  1.8300  1.9214
   98MOL   C29031524   5.287   7.075   8.098  0.2072  0.7166  0.0179
   98MOL   C29131525   5.408   7.122   8.018  0.3999 -0.2070 -0.3765
   98MOL   C29231526   5.389   7.190   7.891 -0.0221  0.1607  0.3215
   98MOL  Cl29331527   5.231   7.222   7.819  0.2747 -0.6162  0.0052
   98MOL   C29431528   5.501   7.223   7.813 -0.1003 -0.6636  0.1330
   98MOL   C29531529   5.631   7.203   7.859  0.3946  0.7376  0.4382
   98MOL   C29631530   5.649   7.161   7.988 -0.3099 -0.0354  0.6835
   98MOL   C29731531   5.540   7.120   8.067  0.6607  0.0243 -0.7355
   98MOL   C29831532   5.280   7.159   8.230  0.1926 -0.8489  0.8640
   98MOL   H29931533   5.198   7.103   8.041  0.1421 -0.7330 -0.6248
   98MOL   H30031534   5.478   7.259   7.714 -0.6320 -1.2978  0.0200
   98MOL   H30131535   5.718   7.226   7.798 -0.4233  1.2138 -0.5668
   98MOL   H30231536   5.750   7.155   8.027  0.5070  1.4268 -1.1596
   98MOL   H30331537   5.555   7.077   8.164  1.1635  1.0126 -0.3649
   98MOL   H30431538   5.317   7.260   8.212  0.1577 -0.1782  4.1846
   98MOL   H30531539   5.352   7.122   8.303  0.7768  0.8126  1.1651
   98MOL   C30631540   5.139   7.170   8.293 -1.2269  0.9950 -0.3564
   98MOL   C30731541   5.042   7.264   8.220 -0.0349  0.5606  0.2071
   98MOL   C30831542   4.937   7.217   8.146 -0.5311 -0.0823 -0.1888
   98MOL  Cl30931543   4.911   7.053   8.123  0.0790  0.1207  0.3240
   98MOL   C31031544   4.851   7.307   8.088 -0.3453  0.2292  0.1106
   98MOL   C31131545   4.869   7.438   8.107 -0.6196 -0.4179  0.6475
   98MOL   C31231546   4.976   7.487   8.174 -0.2557 -0.1889 -0.0866
   98MOL   C31331547   5.068   7.399   8.227 -0.0541 -0.4791  0.1406
   98MOL   C31431548   5.158   7.214   0.018 -0.1777 -0.6650 -0.7065
   98MOL   H31531549   5.096   7.071   8.306  0.5682  0.4163  1.4538
   98MOL   H31631550   4.753   7.271   8.061  0.0728  0.2243 -1.4211
   98MOL   H31731551   4.784   7.497   8.078 -0.2121  0.9145  2.0560
   98MOL   H31831552   4.995   7.593   8.165  1.4772 -0.7137 -3.3560
   98MOL   H31931553   5.151   7.434   8.288  0.2871 -0.2642 -0.4507
   98MOL   H32031554   5.062   7.214   0.070 -0.5694  0.1965 -1.4164
   98MOL   H32131555   5.194   7.316   0.034  0.9862 -1.3119  0.9672
   98MOL   H32231556   5.224   7.141   0.066 -0.6779 -1.0265 -0.5718
   99MOL     C131557   6.916   0.212   2.115 -0.3725 -0.0853  0.2638
   99MOL     C231558   6.903   0.308   1.997  0.2144  0.1804  0.5652
   99MOL     C331559   6.925   0.449   2.005  0.7331  0.5996  0.3920
   99MOL    Cl431560   6.966   0.524   2.152  0.0100  0.0716  0.1870
   99MOL     C531561   6.909   0.532   1.891 -0.5942 -0.5723 -0.1375
   99MOL     C631562   6.862   0.476   1.771 -0.4399  0.2199 -0.0796
   99MOL     C731563   6.844   0.338   1.765 -0.1553 -0.1655  0.4280
   99MOL     C831564   6.858   0.252   1.877 -0.0034  0.4177  0.8017
   99MOL     C931565   7.043   0.225   2.197 -0.3456  0.4548  0.9391
   99MOL    H1031566   6.835   0.229   2.186  2.0897  1.6973  2.7814
   99MOL    H1131567   6.901   0.639   1.899 -1.5527 -0.8128  2.8158
   99MOL    H1231568   6.851   0.535   1.681 -0.5098  0.4538  0.0825
   99MOL    H1331569   6.807   0.280   1.682 -2.3792  0.5857  0.8758
   99MOL    H1431570   6.825   0.149   1.876 -0.0636  0.4394  0.5165
   99MOL    H1531571   7.028   0.308   2.267 -1.5376  0.0302  1.1955
   99MOL    H1631572   7.130   0.256   2.139  0.5012  1.8179  2.8807
   99MOL    H1731573   6.913   0.107   2.087 -1.9394  0.3578 -1.3028
   99MOL    C1831574   7.064   0.099   2.284 -0.8883 -0.8766  1.0516
   99MOL    C1931575   7.150   0.124   2.405  0.4081  0.2583  0.7604
   99MOL    C2031576   7.096   0.121   2.536 -0.0560 -0.4005  0.2292
   99MOL   Cl2131577   6.928   0.115   2.566 -0.1147  0.1823 -0.3032
   99MOL    C2231578   7.179   0.130   2.650 -0.1212  0.4889  0.5430
   99MOL    C2331579   7.310   0.170   2.637 -0.0714 -0.5721  0.2360
   99MOL    C2431580   7.367   0.177   2.507  0.3135 -0.4384  0.2693
   99MOL    C2531581   7.286   0.148   2.392 -0.0535  0.5159  0.1427
   99MOL    C2631582   7.122   8.395   2.198 -0.3074  0.0857  0.1765
   99MOL    H2731583   6.966   0.072   2.323 -1.5549  0.5225  0.3694
   99MOL    H2831584   7.131   0.115   2.746 -0.1834  1.5836  0.6892
   99MOL    H2931585   7.367   0.184   2.727  0.2630  0.0934 -0.0726
   99MOL    H3031586   7.470   0.206   2.492  0.5044 -2.7004 -3.3957
   99MOL    H3131587   7.324   0.168   2.293 -0.2428  0.2650  0.0163
   99MOL    H3231588   7.230   8.389   2.204 -0.3074 -0.4008 -0.2749
   99MOL    H3331589   7.104   8.414   2.092 -0.9868 -2.7354 -0.2681
   99MOL    C3431590   7.044   8.264   2.229 -0.3659 -0.4508 -0.0920
   99MOL    C3531591   7.027   8.228   2.379  0.6515 -0.3814  0.1718
   99MOL    C3631592   6.900   8.196   2.437  0.2536  0.5850  0.6070
   99MOL   Cl3731593   6.745   8.203   2.354 -0.5542 -0.1143  0.7313
   99MOL    C3831594   6.892   8.165   2.570 -0.4883  0.2760 -0.0788
   99MOL    C3931595   7.008   8.162   2.651 -0.4306 -0.8483  0.0985
   99MOL    C4031596   7.134   8.182   2.592 -0.3245  0.0152  0.1100
   99MOL    C4131597   7.143   8.217   2.460  0.1882 -0.4567 -0.3914
   99MOL    C4231598   7.123   8.153   2.154  0.5167  0.0392  0.8390
   99MOL    H4331599   6.949   8.260   2.176  0.4568 -2.0994 -1.5027
   99MOL    H4431600   6.798   8.146   2.620  0.4430 -1.6065  1.0370
   99MOL    H4531601   7.006   8.136   2.756 -0.7819 -0.3703  0.2091
   99MOL    H4631602   7.228   8.162   2.642  0.4287  0.5959 -1.0361
   99MOL    H4731603   7.244   8.233   2.423  0.7971 -0.8819  1.0842
   99MOL    H4831604   7.226   8.154   2.188  1.2839  0.4044 -1.4607
   99MOL    H4931605   7.118   8.185   2.050 -0.7467 -1.0555  0.5405
   99MOL    C5031606   7.056   8.014   2.165  0.3713  0.1891  0.9583
   99MOL    C5131607   7.157   7.901   2.123  0.4133 -0.0045 -0.4564
   99MOL    C5231608   7.228   7.826   2.219  0.5110 -0.2390 -0.0416
   99MOL   Cl5331609   7.228   7.874   2.385 -0.3998  0.3146 -0.0076
   99MOL    C5431610   7.305   7.716   2.182 -0.4128  0.0413  0.2493
   99MOL    C5531611   7.319   7.684   2.046 -0.8963 -0.0976  0.1209
   99MOL    C5631612   7.250   7.761   1.948 -0.4920 -0.1975 -0.5554
   99MOL    C5731613   7.173   7.874   1.983  0.0741 -0.5887 -0.0772
   99MOL    C5831614   6.919   8.008   2.093 -0.3296 -0.9252  0.9008
   99MOL    H5931615   7.041   7.997   2.272  0.8892  1.6668  1.2906
   99MOL    H6031616   7.362   7.658   2.252  0.5384  0.5858 -0.0496
   99MOL    H6131617   7.369   7.593   2.017 -0.0126  0.6133 -0.6012
   99MOL    H6231618   7.268   7.719   1.850  1.2156 -0.8699  0.0413
   99MOL    H6331619   7.111   7.923   1.910 -0.9102 -0.6286  0.7173
   99MOL    H6431620   6.938   8.045   1.992 -1.6923 -1.0038  0.6035
   99MOL    H6531621   6.854   8.086   2.132 -0.6771  0.3147 -1.9961
   99MOL    C6631622   6.835   7.882   2.098 -0.2296 -0.2071  0.1437
   99MOL    C6731623   6.703   7.884   2.014  0.1900  0.3347 -0.0721
   99MOL    C6831624   6.688   7.808   1.894 -0.0617 -0.3223 -0.5586
   99MOL   Cl6931625   6.815   7.732   1.810 -0.1709  0.0618  0.1016
   99MOL    C7031626   6.561   7.818   1.828  0.4972  0.7344  0.2512
   99MOL    C7131627   6.454   7.887   1.881  0.4621  0.5588  0.0253
   99MOL    C7231628   6.465   7.954   2.000 -0.1201 -0.7718 -0.8153
   99MOL    C7331629   6.594   7.961   2.061  0.2503 -0.3987  1.0729
   99MOL    C7431630   6.815   7.827   2.245 -0.5089  0.3534  0.7059
   99MOL    H7531631   6.902   7.815   2.044  1.1432  1.1466  0.1151
   99MOL    H7631632   6.555   7.766   1.733  0.4271  1.4419 -0.1373
   99MOL    H7731633   6.362   7.894   1.824  1.1850 -1.6310 -1.5222
   99MOL    H7831634   6.378   8.000   2.045 -0.6367 -1.8481 -0.6868
   99MOL    H7931635   6.616   8.014   2.153  0.5810 -0.3135  0.9442
   99MOL    H8031636   6.729   7.877   2.291 -0.0612  0.9516  0.8908
   99MOL    H8131637   6.900   7.866   2.301 -0.1013  1.7896 -0.8461
   99MOL    C8231638   6.805   7.671   2.257 -1.1065  0.5629  0.4089
   99MOL    C8331639   6.711   7.635   2.362  0.5636  0.4811  0.0220
   99MOL    C8431640   6.592   7.565   2.343  0.2123 -0.2165 -0.0790
   99MOL   Cl8531641   6.527   7.521   2.189  0.0655  0.2849 -0.3591
   99MOL    C8631642   6.506   7.551   2.450 -0.4211  0.7741  0.3206
   99MOL    C8731643   6.534   7.599   2.575 -0.3136 -0.1470 -0.0597
   99MOL    C8831644   6.656   7.661   2.600 -0.3594 -0.5221  0.8744
   99MOL    C8931645   6.744   7.678   2.492  0.2739 -0.0236  0.1190
   99MOL    C9031646   6.949   7.609   2.270 -0.6219  0.3118 -0.5840
   99MOL    H9131647   6.769   7.634   2.161  0.1264  1.1459 -0.2880
   99MOL    H9231648   6.412   7.504   2.426  0.4621 -0.7526 -0.1591
   99MOL    H9331649   6.458   7.580   2.650 -1.2045  0.0582 -0.8991
   99MOL    H9431650   6.677   7.699   2.699 -2.2488 -0.0610  1.1271
   99MOL    H9531651   6.834   7.737   2.502 -0.1346  0.6368 -0.0437
   99MOL    H9631652   6.995   7.645   2.363  0.0306 -0.4756 -0.5971
   99MOL    H9731653   7.019   7.647   2.196  2.0953 -2.1008  0.6487
   99MOL    C9831654   6.950   7.456   2.269  0.4438  0.1632 -0.2589
   99MOL    C9931655   7.081   7.394   2.325 -0.5424 -0.5455  0.2428
   99MOL   C10031656   7.094   7.335   2.454  0.2957  0.3912 -0.2783
   99MOL  Cl10131657   6.946   7.304   2.541  0.0675 -0.1608 -0.0896
   99MOL   C10231658   7.222   7.297   2.504 -0.1576 -0.0385  0.1903
   99MOL   C10331659   7.336   7.303   2.418 -0.2952 -0.7479 -0.1752
   99MOL   C10431660   7.316   7.336   2.279  0.1613  1.0060  0.3729
   99MOL   C10531661   7.192   7.383   2.233 -0.1921 -1.1397  0.5433
   99MOL   C10631662   6.903   7.397   2.134 -0.0960 -0.1257 -0.4612
   99MOL   H10731663   6.872   7.433   2.340  1.5534 -0.6925  0.6983
   99MOL   H10831664   7.231   7.263   2.606 -0.3150  0.2604  0.3030
   99MOL   H10931665   7.432   7.286   2.464  0.2191  0.0437 -0.9434
   99MOL   H11031666   7.405   7.348   2.220  0.4987 -0.3308  0.5996
   99MOL   H11131667   7.192   7.413   2.129  0.7172  0.2229  0.9225
   99MOL   H11231668   6.978   7.408   2.056  2.4433  1.9975  2.1501
   99MOL   H11331669   6.812   7.439   2.091 -0.5771  0.6339  1.2316
   99MOL   C11431670   6.863   7.250   2.149  0.0923 -0.4590  0.2506
   99MOL   C11531671   6.853   7.193   2.008  0.6240  0.8972 -0.1906
   99MOL   C11631672   6.950   7.097   1.962  0.5275 -0.4836  0.2470
   99MOL  Cl11731673   7.080   7.028   2.061  0.0377  0.0849 -0.3872
   99MOL   C11831674   6.938   7.050   1.829  0.0956  0.7282  0.6097
   99MOL   C11931675   6.838   7.104   1.739 -0.5290  0.2301 -0.1752
   99MOL   C12031676   6.733   7.171   1.798  0.1004 -0.1468  0.1777
   99MOL   C12131677   6.739   7.220   1.927  0.7664 -0.5843  0.3286
   99MOL   C12231678   6.728   7.222   2.225 -0.5960 -0.1566  0.3921
   99MOL   H12331679   6.937   7.189   2.200  1.5213  1.7090  0.8185
   99MOL   H12431680   7.021   6.990   1.793  0.5413  1.0322  1.1273
   99MOL   H12531681   6.838   7.076   1.635 -0.6657 -0.3911 -0.0069
   99MOL   H12631682   6.645   7.195   1.741 -0.0512 -1.8168 -0.3298
   99MOL   H12731683   6.654   7.276   1.963 -0.3205 -0.9707 -1.5473
   99MOL   H12831684   6.657   7.290   2.178  1.4085 -0.1101 -2.7321
   99MOL   H12931685   6.745   7.251   2.329 -0.8055  1.9313 -0.1420
   99MOL   C13031686   6.670   7.080   2.236  0.0012  0.3871  0.2118
   99MOL   C13131687   6.527   7.097   2.289  0.3917 -0.3839  0.2200
   99MOL   C13231688   6.414   7.077   2.203 -0.6110  0.0855 -0.3916
   99MOL  Cl13331689   6.432   7.042   2.042  0.0111 -0.0677  0.4076
   99MOL   C13431690   6.286   7.084   2.254 -0.4831  0.5281 -0.6325
   99MOL   C13531691   6.269   7.114   2.392 -0.2071 -0.1731  0.1016
   99MOL   C13631692   6.379   7.146   2.475 -0.0206 -0.1991 -0.2492
   99MOL   C13731693   6.509   7.135   2.423 -0.0557 -0.0202  0.3818
   99MOL   C13831694   6.763   6.989   2.320  0.8402 -0.0179  1.1866
   99MOL   H13931695   6.659   7.045   2.133 -3.2583 -0.5492  0.7941
   99MOL   H14031696   6.199   7.070   2.192  0.8055 -1.2099 -2.0961
   99MOL   H14131697   6.168   7.123   2.429 -0.8668  0.8083 -1.8945
   99MOL   H14231698   6.362   7.174   2.578  1.1765  0.0174 -0.1082
   99MOL   H14331699   6.597   7.157   2.481 -0.5702  1.5289  0.6117
   99MOL   H14431700   6.755   6.997   2.428 -0.5935  1.0777  1.0092
   99MOL   H14531701   6.869   7.004   2.296  0.7192 -0.6101  0.2790
   99MOL   C14631702   6.735   6.838   2.283  0.5842 -0.0633 -0.1870
   99MOL   C14731703   6.764   6.744   2.402 -0.6364 -0.3760 -0.6377
   99MOL   C14831704   6.660   6.695   2.482 -0.2850 -0.0961 -0.0249
   99MOL  Cl14931705   6.495   6.748   2.461 -0.1649  0.2582  0.3030
   99MOL   C15031706   6.693   6.613   2.590  0.6647 -0.0644 -0.0716
   99MOL   C15131707   6.833   6.584   2.611  0.0471  0.9149  0.1028
   99MOL   C15231708   6.931   6.639   2.538 -0.3552  0.0937 -0.5748
   99MOL   C15331709   6.905   6.718   2.425 -0.3549 -0.7192 -0.5835
   99MOL   C15431710   6.815   6.798   2.159 -0.1125  0.6718  0.2565
   99MOL   H15531711   6.628   6.822   2.264  0.8906 -1.0100 -1.1825
   99MOL   H15631712   6.613   6.578   2.653  0.0146  1.8686  0.2200
   99MOL   H15731713   6.856   6.529   2.701  0.4190  0.4329 -0.2852
   99MOL   H15831714   7.029   6.610   2.572 -0.9423 -1.8347 -0.4481
   99MOL   H15931715   6.983   6.765   2.368  1.2387 -2.6097 -0.0189
   99MOL   H16031716   6.923   6.806   2.171 -0.0329  1.1512 -0.7044
   99MOL   H16131717   6.796   6.871   2.080 -1.7121  1.5285  1.4092
   99MOL   C16231718   6.779   6.653   2.111 -0.4539 -0.6695 -0.3921
   99MOL   C16331719   6.888   6.571   2.044 -0.0393  0.2728 -0.2099
   99MOL   C16431720   6.900   6.432   2.063  0.1168  0.1331 -0.3518
   99MOL  Cl16531721   6.787   6.347   2.162  0.4327  0.2219  0.0146
   99MOL   C16631722   7.005   6.360   2.010 -0.6925 -0.2330  0.1942
   99MOL   C16731723   7.112   6.424   1.938  0.5252 -0.3997 -0.7731
   99MOL   C16831724   7.101   6.565   1.915  0.5205 -0.4925  0.4085
   99MOL   C16931725   6.989   6.635   1.967 -0.1347 -0.4942  0.3238
   99MOL   C17031726   6.658   6.665   2.013 -0.3315  0.7463  0.0062
   99MOL   H17131727   6.741   6.595   2.195 -0.3565 -0.0914  0.0545
   99MOL   H17231728   7.018   6.254   2.030  1.1096  0.1995  1.4630
   99MOL   H17331729   7.193   6.367   1.894  0.9121 -0.5972  0.1766
   99MOL   H17431730   7.176   6.609   1.851  0.3194 -1.9882 -0.8839
   99MOL   H17531731   6.994   6.743   1.960  1.7708 -0.5625  0.3874
   99MOL   H17631732   6.685   6.703   1.914 -0.0614 -0.6996 -0.4906
   99MOL   H17731733   6.584   6.739   2.040  1.4222  3.3464 -2.0380
   99MOL   C17831734   6.569   6.539   1.983 -0.1669 -0.2686 -0.7401
   99MOL   C17931735   6.497   6.559   1.853 -0.9313  0.1103  0.6382
   99MOL   C18031736   6.528   6.482   1.731 -0.0554 -0.0295 -0.1706
   99MOL  Cl18131737   6.624   6.340   1.750  0.0211 -0.1423  0.3667
   99MOL   C18231738   6.470   6.517   1.610  0.7202 -0.6133  0.2016
   99MOL   C18331739   6.371   6.613   1.610  0.3324  0.6479 -0.3786
   99MOL   C18431740   6.331   6.673   1.730  0.4254  0.5750 -0.3081
   99MOL   C18531741   6.395   6.647   1.851  0.0765 -0.4954  0.4927
   99MOL   C18631742   6.479   6.513   2.107  0.3269 -0.3168  0.1402
   99MOL   H18731743   6.634   6.451   1.983 -1.4015 -1.2041 -0.3823
   99MOL   H18831744   6.493   6.461   1.520  0.7033 -0.9777  0.4261
   99MOL   H18931745   6.330   6.643   1.514  0.5654 -0.5074 -0.8436
   99MOL   H19031746   6.258   6.752   1.728 -0.1053  0.0541 -2.2343
   99MOL   H19131747   6.361   6.704   1.936 -1.4638  0.4636 -0.7417
   99MOL   H19231748   6.424   6.601   2.142  0.7041 -0.7602  1.9409
   99MOL   H19331749   6.537   6.482   2.194 -0.2214 -1.8546 -0.0250
   99MOL   C19431750   6.373   6.396   2.107  0.4313  0.1970 -0.4927
   99MOL   C19531751   6.280   6.401   2.241  0.2728 -0.3348 -0.2741
   99MOL   C19631752   6.140   6.409   2.229 -0.4349  0.9975 -0.2984
   99MOL  Cl19731753   6.066   6.397   2.078  0.0779 -0.2439  0.2699
   99MOL   C19831754   6.059   6.405   2.336 -0.2558 -0.6597 -0.1690
   99MOL   C19931755   6.116   6.420   2.467 -0.8503 -0.4919  0.0846
   99MOL   C20031756   6.256   6.427   2.482 -0.3764 -0.0068 -0.0526
   99MOL   C20131757   6.339   6.410   2.371 -0.0156 -0.3361  0.2358
   99MOL   C20231758   6.444   6.260   2.089 -0.0499 -0.1956 -0.0287
   99MOL   H20331759   6.317   6.421   2.017  3.2746  1.0817 -2.0547
   99MOL   H20431760   5.952   6.402   2.323 -0.0402  0.0520 -2.4128
   99MOL   H20531761   6.046   6.427   2.549 -0.9925 -2.4431  0.1564
   99MOL   H20631762   6.309   6.443   2.574 -1.0097  1.4424  0.0794
   99MOL   H20731763   6.446   6.423   2.381 -0.1393 -0.4550  1.8472
   99MOL   H20831764   6.486   6.238   2.187  0.0902 -1.8097 -0.4326
   99MOL   H20931765   6.531   6.260   2.023 -0.5253 -2.3258 -0.6956
   99MOL   C21031766   6.359   6.143   2.041  0.1922 -1.3045  0.3953
   99MOL   C21131767   6.419   6.010   2.087 -0.7963  0.3948 -0.2962
   99MOL   C21231768   6.341   5.917   2.168  0.1010  0.1444  0.3702
   99MOL  Cl21331769   6.181   5.955   2.216 -0.3750 -0.1949  0.2157
   99MOL   C21431770   6.392   5.788   2.203 -0.6017 -0.1411  0.6830
   99MOL   C21531771   6.523   5.747   2.165 -0.4474 -0.7625  0.7788
   99MOL   C21631772   6.608   5.841   2.097  0.1924 -0.3124 -0.2823
   99MOL   C21731773   6.553   5.968   2.054  0.1263 -0.6696 -0.0526
   99MOL   C21831774   6.349   6.157   1.885  0.5944 -0.0594  0.1971
   99MOL   H21931775   6.255   6.162   2.067  0.8750  2.0385  0.7948
   99MOL   H22031776   6.324   5.722   2.256 -1.7119 -1.3861 -2.1950
   99MOL   H22131777   6.565   5.650   2.190  1.1187 -0.3063 -0.0475
   99MOL   H22231778   6.712   5.826   2.071  0.3344  0.3504 -0.1094
   99MOL   H22331779   6.619   6.039   2.007 -0.3848 -1.1133 -1.4819
   99MOL   H22431780   6.452   6.161   1.852  0.7337  0.8443  0.7158
   99MOL   H22531781   6.308   6.254   1.855  0.7574  0.3319  1.2248
   99MOL   C22631782   6.271   6.045   1.820 -0.0877  0.3327  0.0557
   99MOL   C22731783   6.324   6.016   1.679  0.1711  0.6664  0.2946
   99MOL   C22831784   6.370   5.889   1.627 -0.6036  0.5348 -0.0493
   99MOL  Cl22931785   6.373   5.754   1.732  0.2036 -0.2236 -0.2868
   99MOL   C23031786   6.421   5.880   1.495 -0.0741  0.7632 -0.1546
   99MOL   C23131787   6.426   5.986   1.410 -0.5653 -0.0662 -0.3090
   99MOL   C23231788   6.380   6.109   1.460  0.1836  0.2068 -0.7474
   99MOL   C23331789   6.329   6.130   1.593 -0.6706  0.6545  0.4109
   99MOL   C23431790   6.118   6.064   1.815  0.6441 -0.2368  0.4158
   99MOL   H23531791   6.289   5.950   1.872 -2.4507  0.2884  0.8467
   99MOL   H23631792   6.458   5.780   1.477 -0.9779  0.1749  1.1494
   99MOL   H23731793   6.465   5.983   1.310 -1.3255  1.8985 -0.6794
   99MOL   H23831794   6.370   6.190   1.389  1.7658 -0.1765 -1.4148
   99MOL   H23931795   6.308   6.230   1.629  0.7264  0.7460  1.0102
   99MOL   H24031796   6.085   6.139   1.744  1.2173  0.4827  0.9040
   99MOL   H24131797   6.089   6.098   1.915  1.6386 -0.3105  0.7288
   99MOL   C24231798   6.045   5.928   1.784  0.1674 -0.2507 -0.1013
   99MOL   C24331799   5.905   5.957   1.723  0.1298 -0.0244  0.2317
   99MOL   C24431800   5.866   5.900   1.601 -0.2048  1.7231  0.1551
   99MOL  Cl24531801   5.966   5.792   1.512  0.0044 -0.1288 -0.0867
   99MOL   C24631802   5.739   5.927   1.547 -0.4132 -0.4715  0.6144
   99MOL   C24731803   5.648   6.015   1.614  0.1291 -0.2201 -0.1188
   99MOL   C24831804   5.689   6.070   1.741 -0.0069 -0.2806 -0.4844
   99MOL   C24931805   5.819   6.040   1.793  0.9761 -0.5861 -0.1066
   99MOL   C25031806   6.035   5.850   1.915 -0.1759 -0.4998 -0.2627
   99MOL   H25131807   6.101   5.879   1.705  0.0977  0.3422 -0.5200
   99MOL   H25231808   5.700   5.881   1.457  0.8785 -0.0755 -0.1612
   99MOL   H25331809   5.549   6.040   1.580 -0.0601  0.1425  0.6871
   99MOL   H25431810   5.620   6.138   1.787  0.6480  0.6158 -0.8162
   99MOL   H25531811   5.834   6.081   1.891  0.9441  0.0998 -0.3857
   99MOL   H25631812   5.978   5.910   1.986 -2.7298 -2.3378 -0.6646
   99MOL   H25731813   6.132   5.821   1.953 -1.1665 -2.2138  1.0178
   99MOL   C25831814   5.962   5.716   1.913  0.1162  0.4323 -0.7213
   99MOL   C25931815   5.929   5.670   2.059  0.0298 -0.4411  0.1932
   99MOL   C26031816   5.806   5.697   2.127  0.4443 -1.1890 -0.2504
   99MOL  Cl26131817   5.693   5.802   2.050  0.1292  0.2444 -0.1091
   99MOL   C26231818   5.780   5.659   2.261  0.8316 -0.5923  0.3907
   99MOL   C26331819   5.881   5.590   2.331  0.0214  0.9888 -0.1393
   99MOL   C26431820   6.002   5.563   2.272  0.0254 -0.1777 -0.3714
   99MOL   C26531821   6.027   5.600   2.138 -0.1256  0.2320  0.0464
   99MOL   C26631822   6.034   5.606   1.835  0.2996  0.3209 -0.4838
   99MOL   H26731823   5.871   5.727   1.854  0.2980  2.2564 -0.7023
   99MOL   H26831824   5.687   5.682   2.310 -0.0493 -1.4978 -0.8167
   99MOL   H26931825   5.862   5.578   2.436  0.8203 -0.1198 -0.1075
   99MOL   H27031826   6.078   5.507   2.323 -0.0828 -0.8697 -0.9618
   99MOL   H27131827   6.123   5.570   2.098 -1.2070 -0.0752 -2.4186
   99MOL   H27231828   6.134   5.597   1.879  0.4755  2.7641 -0.3444
   99MOL   H27331829   6.066   5.648   1.739  1.7873  0.2477 -0.0427
   99MOL   C27431830   5.969   5.474   1.824  0.2196  0.1014 -0.2280
   99MOL   C27531831   6.075   5.375   1.770 -0.1497  0.2899 -0.2711
   99MOL   C27631832   6.143   5.279   1.849 -0.2955  0.5647 -0.1071
   99MOL  Cl27731833   6.130   5.283   2.028  0.0191  0.2767  0.1946
   99MOL   C27831834   6.231   5.189   1.786  0.0570  0.3919  0.2131
   99MOL   C27931835   6.270   5.200   1.651  0.3207 -0.7569 -0.6099
   99MOL   C28031836   6.200   5.297   1.575 -0.3095 -0.3764  0.1424
   99MOL   C28131837   6.104   5.381   1.630  0.4400 -0.4432 -0.4774
   99MOL   C28231838   5.834   5.483   1.746  0.2395  0.3807  0.7004
   99MOL   H28331839   5.945   5.450   1.927 -0.8493  1.4863 -0.1437
   99MOL   H28431840   6.278   5.121   1.855  0.2827  1.5410  1.1920
   99MOL   H28531841   6.351   5.144   1.606  1.8842  0.7620  0.2476
   99MOL   H28631842   6.213   5.315   1.470 -2.7206  1.0293  0.0518
   99MOL   H28731843   6.057   5.457   1.568  1.9053  0.6212 -0.3278
   99MOL   H28831844   5.851   5.532   1.650  2.9051 -0.4736  0.6955
   99MOL   H28931845   5.768   5.554   1.796 -1.0584  0.6065 -1.2527
   99MOL   C29031846   5.759   5.350   1.741  0.4646  0.5513  0.2137
   99MOL   C29131847   5.622   5.376   1.685 -0.0882 -0.0710  0.6999
   99MOL   C29231848   5.572   5.313   1.567 -1.1787  0.5318  0.5497
   99MOL  Cl29331849   5.665   5.212   1.469  0.4205 -0.2371 -0.2198
   99MOL   C29431850   5.444   5.349   1.521 -0.2428  0.1696  0.9545
   99MOL   C29531851   5.353   5.418   1.604 -0.4053 -0.2974  0.8070
   99MOL   C29631852   5.400   5.478   1.721  0.6543  0.0690  0.3394
   99MOL   C29731853   5.535   5.459   1.756  0.0656  0.5269 -0.8322
   99MOL   C29831854   5.759   5.273   1.879  0.3079 -0.1385 -0.2334
   99MOL   H29931855   5.814   5.286   1.672 -2.4272 -2.0132  0.1900
   99MOL   H30031856   5.405   5.299   1.434  2.1096  0.4467 -0.2749
   99MOL   H30131857   5.247   5.428   1.585 -0.1170 -2.9122 -2.7032
   99MOL   H30231858   5.337   5.543   1.780  1.1372  1.3607 -0.5412
   99MOL   H30331859   5.565   5.505   1.848 -0.2835 -0.6093 -0.1373
   99MOL   H30431860   5.717   5.339   1.956 -0.8499 -1.0853 -0.0268
   99MOL   H30531861   5.862   5.249   1.903  0.7005  1.0965 -0.6867
   99MOL   C30631862   5.696   5.132   1.873  0.3701 -0.1199  0.2224
   99MOL   C30731863   5.693   5.091   2.024  0.3463  0.4982  0.0419
   99MOL   C30831864   5.567   5.097   2.095  0.2962  0.7094 -0.5438
   99MOL  Cl30931865   5.421   5.135   2.021 -0.0711  0.1980 -0.0103
   99MOL   C31031866   5.568   5.058   2.230  0.6486  0.1084  0.3217
   99MOL   C31131867   5.681   5.025   2.301 -0.3012  0.3735 -0.2970
   99MOL   C31231868   5.807   5.025   2.231 -0.1993  0.4884  0.6742
   99MOL   C31331869   5.811   5.063   2.094  0.6387 -0.1701 -0.1611
   99MOL   C31431870   5.766   5.018   1.798 -0.3394  0.3438 -0.0464
   99MOL   H31531871   5.598   5.137   1.827  1.1448 -0.2193 -1.4827
   99MOL   H31631872   5.479   5.055   2.291  0.0074  2.3516 -0.4617
   99MOL   H31731873   5.678   5.012   2.408 -2.3433 -0.5560 -0.4442
   99MOL   H31831874   5.898   5.000   2.284  0.9390 -0.8321 -1.7720
   99MOL   H31931875   5.907   5.068   2.045  0.7739 -0.1057  0.1087
   99MOL   H32031876   5.718   4.921   1.812  0.9699 -0.3901 -0.5463
   99MOL   H32131877   5.872   5.013   1.825 -0.0486 -2.6399 -1.4988
   99MOL   H32231878   5.766   5.036   1.691 -0.8067  0.6463  0.0072
  100MOL     C131879   8.079   6.140   5.889  0.1926  0.7418 -0.5368
  100MOL     C231880   7.969   6.242   5.872  1.2252  0.2598 -0.6876
  100MOL     C331881   7.831   6.211   5.867  0.3106  0.5745 -0.1286
  100MOL    Cl431882   7.774   6.045   5.895  0.3616 -0.1374  0.4246
  100MOL     C531883   7.742   6.312   5.826  0.3151 -0.0338 -0.3226
  100MOL     C631884   7.786   6.445   5.818  0.9995 -0.1871 -0.0175
  100MOL     C731885   7.916   6.480   5.830  0.0379 -0.0445  0.2969
  100MOL     C831886   8.009   6.375   5.851  0.1828 -0.2541 -0.1622
  100MOL     C931887   8.132   6.085   5.762  0.6597 -0.0573 -0.3544
  100MOL    H1031888   8.159   6.191   5.943 -0.0735  1.9369 -1.2712
  100MOL    H1131889   7.639   6.285   5.813 -0.4237  1.9939  1.0989
  100MOL    H1231890   7.720   6.525   5.786 -0.1271 -1.2416 -0.3727
  100MOL    H1331891   7.948   6.583   5.824 -0.2020 -0.0207 -0.5783
  100MOL    H1431892   8.113   6.406   5.854 -0.3870  1.7953 -0.7409
  100MOL    H1531893   8.054   6.012   5.737  0.6972 -0.2868  0.2117
  100MOL    H1631894   8.213   6.021   5.794  0.4198  0.3990  1.1721
  100MOL    H1731895   8.047   6.064   5.961  3.0213 -0.2089 -0.2260
  100MOL    C1831896   8.167   6.173   5.639  0.1544 -0.3462 -0.2013
  100MOL    C1931897   8.168   6.096   5.502  0.6045 -0.1609  0.7205
  100MOL    C2031898   8.056   6.095   5.416  0.4998  0.2430 -0.2890
  100MOL   Cl2131899   7.917   6.199   5.446  0.0801 -0.0200 -0.0461
  100MOL    C2231900   8.058   6.012   5.305  0.1544  0.9384 -0.0432
  100MOL    C2331901   8.164   5.926   5.273 -0.1732  0.3116 -0.4709
  100MOL    C2431902   8.279   5.923   5.358 -0.4926  0.4256 -0.8632
  100MOL    C2531903   8.276   6.005   5.471 -0.1947  0.0532  0.4911
  100MOL    C2631904   8.305   6.246   5.670  0.2888  0.2643  0.3394
  100MOL    H2731905   8.092   6.251   5.637 -1.2562 -1.5346  2.4140
  100MOL    H2831906   7.966   6.014   5.249  1.0340  1.1524 -1.5249
  100MOL    H2931907   8.146   5.854   5.194  1.1963 -0.4588 -0.0875
  100MOL    H3031908   8.361   5.853   5.349  0.1051  0.7109  1.9088
  100MOL    H3131909   8.362   5.991   5.536 -0.2270 -0.5544  0.4057
  100MOL    H3231910   8.395   6.192   5.640  1.2512  1.7566  0.5252
  100MOL    H3331911   8.310   6.253   5.778 -0.4896  1.8352  0.2814
  100MOL    C3431912   8.324   6.386   5.614  0.9697 -0.1118  0.3305
  100MOL    C3531913   8.331   6.392   5.465  0.0492 -0.5315 -0.0348
  100MOL    C3631914   8.253   6.490   5.391 -0.1172  0.4881 -0.2057
  100MOL   Cl3731915   8.161   6.614   5.464 -0.1864  0.1862  0.0613
  100MOL    C3831916   8.258   6.493   5.247  0.0445  0.1711 -0.0640
  100MOL    C3931917   8.333   6.397   5.176  0.3853  0.1315  0.0832
  100MOL    C4031918   8.413   6.305   5.244  0.0680  0.0830 -0.2545
  100MOL    C4131919   8.408   6.299   5.387  0.4057 -0.9287  0.0569
  100MOL    C4231920   0.038   6.453   5.666  0.2651  0.8692  1.0116
  100MOL    H4331921   8.251   6.459   5.651 -0.8361 -1.7464  0.0241
  100MOL    H4431922   8.199   6.567   5.196 -2.0054 -0.0396  1.9449
  100MOL    H4531923   8.311   6.400   5.071 -0.5837  0.0881  0.2792
  100MOL    H4631924   0.050   6.227   5.197  1.0815 -0.2880  1.5472
  100MOL    H4731925   0.046   6.224   5.438 -0.0216 -0.1235  1.7505
  100MOL    H4831926   0.041   6.549   5.615 -0.3597  0.1136 -0.4860
  100MOL    H4931927   0.112   6.379   5.636 -0.6019 -0.8439  2.8986
  100MOL    C5031928   0.052   6.471   5.820  0.0178 -0.0477  0.5514
  100MOL    C5131929   8.381   6.577   5.884  0.0091  0.0460  0.4588
  100MOL    C5231930   8.310   6.544   6.004 -0.4981 -0.1047 -0.2986
  100MOL   Cl5331931   8.330   6.387   6.074  0.1925 -0.0679 -0.0366
  100MOL    C5431932   8.240   6.649   6.067  0.6184  0.2584  0.2354
  100MOL    C5531933   8.239   6.777   6.004  0.4872 -0.5477 -0.9449
  100MOL    C5631934   8.302   6.803   5.883 -0.0619 -0.8661 -0.1981
  100MOL    C5731935   8.385   6.709   5.832  0.2513 -0.0702 -0.5327
  100MOL    C5831936   0.201   6.507   5.835  0.4339 -0.7387  0.0010
  100MOL    H5931937   0.036   6.372   5.861  1.7286  0.0146  1.4338
  100MOL    H6031938   8.179   6.624   6.153 -1.3945  1.7888 -0.7199
  100MOL    H6131939   8.186   6.856   6.054  0.3346 -0.5598 -1.0871
  100MOL    H6231940   8.302   6.906   5.851  0.6517 -1.8152 -3.3964
  100MOL    H6331941   0.018   6.728   5.740 -0.4456  3.8249 -0.2475
  100MOL    H6431942   0.217   6.552   5.933  2.0365  0.6617 -0.8798
  100MOL    H6531943   0.224   6.593   5.772 -0.4337 -0.2844  0.3033
  100MOL    C6631944   0.306   6.398   5.809 -0.0486  0.4611 -0.1762
  100MOL    C6731945   0.260   6.252   5.833 -0.8837  0.4600  0.2832
  100MOL    C6831946   0.260   6.160   5.727  0.2847 -0.0961  0.5969
  100MOL   Cl6931947   0.309   6.188   5.566 -0.1192  0.1051 -0.1605
  100MOL    C7031948   0.221   6.030   5.758  0.1251  0.2539 -0.1780
  100MOL    C7131949   0.172   5.991   5.895  0.1176  0.1852  0.6498
  100MOL    C7231950   0.165   6.082   5.997 -0.1710 -0.2564 -0.1093
  100MOL    C7331951   0.221   6.215   5.965  0.6796 -0.4980 -0.0546
  100MOL    C7431952   0.440   6.436   5.880  0.1516  1.4941 -0.1010
  100MOL    H7531953   0.330   6.395   5.703 -0.3491  0.4590 -0.2434
  100MOL    H7631954   0.234   5.949   5.688  1.5221  0.3111 -0.0116
  100MOL    H7731955   0.137   5.889   5.908  4.1815 -1.6115 -1.3810
  100MOL    H7831956   0.134   6.050   6.096  1.5002 -0.2744  0.4204
  100MOL    H7931957   0.220   6.289   6.043  1.5264  0.0652 -0.5659
  100MOL    H8031958   0.414   6.446   5.985  0.1193  0.7210 -0.0386
  100MOL    H8131959   0.468   6.536   5.845 -0.5548  1.7100 -0.0630
  100MOL    C8231960   0.551   6.324   5.871 -0.7218  0.3323  0.9714
  100MOL    C8331961   0.643   6.344   5.990 -0.0800  0.4958 -0.1564
  100MOL    C8431962   0.626   6.275   6.115  0.3147 -0.5443  0.1569
  100MOL   Cl8531963   0.502   6.158   6.126 -0.0025  0.0256 -0.0517
  100MOL    C8631964   0.707   6.305   6.222 -0.0818  0.5581 -0.1959
  100MOL    C8731965   0.797   6.412   6.220 -0.3339 -0.3682 -0.0438
  100MOL    C8831966   0.815   6.487   6.105  0.4457  0.4129 -0.3443
  100MOL    C8931967   0.737   6.454   5.987 -0.4379 -0.3379 -0.7492
  100MOL    C9031968   0.628   6.325   5.734  0.1740  0.1771  0.0844
  100MOL    H9131969   0.517   6.221   5.862  1.3294 -0.2871 -0.1482
  100MOL    H9231970   0.682   6.251   6.312  1.3302  0.4003  0.1080
  100MOL    H9331971   0.848   6.442   6.310 -0.1315  0.9433 -0.5760
  100MOL    H9431972   0.875   6.576   6.114  2.0490 -0.7059  0.3175
  100MOL    H9531973   0.747   6.511   5.896 -4.0096  0.3428 -0.7762
  100MOL    H9631974   0.653   6.428   5.709  1.7117  0.4797  2.6686
  100MOL    H9731975   0.550   6.300   5.662  1.2793  0.1633 -1.1289
  100MOL    C9831976   0.753   6.235   5.724  0.1974 -0.3580  0.1416
  100MOL    C9931977   0.817   6.244   5.584 -0.2002  0.8353 -0.3330
  100MOL   C10031978   0.944   6.300   5.551 -0.1864  1.4285 -0.5037
  100MOL  Cl10131979   1.069   6.323   5.656 -0.1411  0.1458  0.3128
  100MOL   C10231980   0.988   6.303   5.415  0.1672 -0.4829  0.1194
  100MOL   C10331981   0.903   6.258   5.311 -0.0837  0.2901  0.1191
  100MOL   C10431982   0.773   6.217   5.339  0.1833  0.1050 -0.1033
  100MOL   C10531983   0.728   6.212   5.475  0.3006 -0.4628  0.2358
  100MOL   C10631984   0.731   6.081   5.760 -0.2401  0.0866 -0.7123
  100MOL   H10731985   0.825   6.280   5.792 -0.7961  0.6369  0.5578
  100MOL   H10831986   1.088   6.334   5.387  0.6923 -1.2041  1.1740
  100MOL   H10931987   0.949   6.243   5.215 -0.9153  0.1686 -0.2606
  100MOL   H11031988   0.710   6.186   5.257 -0.5906  0.9606  0.1560
  100MOL   H11131989   0.630   6.166   5.478 -1.1842  2.4966 -0.7680
  100MOL   H11231990   0.674   6.029   5.683 -0.9306 -1.6344  0.9248
  100MOL   H11331991   0.670   6.075   5.850  1.2226 -1.9598  0.1669
  100MOL   C11431992   0.866   6.017   5.799 -0.4490  0.1885  0.3021
  100MOL   C11531993   0.847   5.872   5.799  0.3621 -0.5407  0.6621
  100MOL   C11631994   0.897   5.778   5.697  0.0907  0.6469 -0.0525
  100MOL  Cl11731995   0.991   5.831   5.562  0.1882  0.0510  0.0557
  100MOL   C11831996   0.887   5.638   5.715  0.1877 -0.5110 -0.0782
  100MOL   C11931997   0.817   5.590   5.820 -0.4321 -0.7716 -0.7596
  100MOL   C12031998   0.754   5.677   5.915  0.4165 -0.0500  0.5344
  100MOL   C12131999   0.765   5.817   5.904 -0.0799  0.3909 -0.3605
  100MOL   C12232000   0.931   6.083   5.920  0.6919 -0.4241 -0.1056
  100MOL   H12332001   0.938   6.036   5.720  0.7484 -2.6639  0.6643
  100MOL   H12432002   0.931   5.569   5.644  0.4692  0.5923 -1.0043
  100MOL   H12532003   0.819   5.483   5.836  0.1267 -0.5952  0.4125
  100MOL   H12632004   0.706   5.638   6.004  0.1759  1.5556  1.1148
  100MOL   H12732005   0.717   5.875   5.982  1.0179 -0.3658  0.8895
  100MOL   H12832006   0.861   6.071   6.002  0.2786 -1.7754 -0.6333
  100MOL   H12932007   0.964   6.183   5.892 -0.3384 -0.1841 -0.4790
  100MOL   C13032008   1.063   6.018   5.955 -0.2845  0.5601  0.4622
  100MOL   C13132009   1.099   6.080   6.091 -0.1180 -0.5751 -0.1031
  100MOL   C13232010   1.045   6.030   6.211 -0.7165 -0.6894 -0.3306
  100MOL  Cl13332011   0.953   5.885   6.201 -0.0562 -0.3768  0.1325
  100MOL   C13432012   1.064   6.091   6.334  0.0565  0.9955 -0.0870
  100MOL   C13532013   1.134   6.210   6.330 -0.1348 -0.1955 -0.8477
  100MOL   C13632014   1.180   6.270   6.214  0.2702  0.3694 -0.1613
  100MOL   C13732015   1.170   6.200   6.096 -0.1432  0.3706  1.0334
  100MOL   C13832016   1.176   6.021   5.847  0.0709 -0.1298  0.5975
  100MOL   H13932017   1.054   5.911   5.972 -0.6326  0.7518  1.5344
  100MOL   H14032018   1.013   6.045   6.417 -0.0837 -0.6618 -1.0631
  100MOL   H14132019   1.154   6.259   6.423  0.5587  0.8141 -1.5201
  100MOL   H14232020   1.224   6.368   6.225 -0.0473  0.2898  2.1271
  100MOL   H14332021   1.217   6.247   6.011 -2.3024 -1.1425 -1.0588
  100MOL   H14432022   1.217   6.121   5.831 -2.2028  0.8663  0.7922
  100MOL   H14532023   1.147   5.990   5.747  0.4759 -2.1961  1.0979
  100MOL   C14632024   1.297   5.923   5.878  0.0372 -0.6388  0.2494
  100MOL   C14732025   1.429   5.962   5.798 -0.1738  0.5760 -0.1900
  100MOL   C14832026   1.558   5.981   5.864  0.1320  0.3156 -0.1227
  100MOL  Cl14932027   1.571   5.971   6.034 -0.5161  0.5091 -0.0312
  100MOL   C15032028   1.678   5.999   5.789  0.3126 -0.1405 -0.1282
  100MOL   C15132029   1.664   6.019   5.650  0.1463  0.5865  0.2329
  100MOL   C15232030   1.541   6.008   5.580 -0.2020 -0.0473 -0.0960
  100MOL   C15332031   1.421   5.980   5.657  0.1781  0.4007 -0.3737
  100MOL   C15432032   1.258   5.776   5.862  0.6542  0.3939  1.1597
  100MOL   H15532033   1.321   5.944   5.983  0.5779 -1.6499  0.3316
  100MOL   H15632034   1.778   5.995   5.829  1.2026  0.5108 -2.1853
  100MOL   H15732035   1.747   6.048   5.586  0.6710 -0.0925  0.5981
  100MOL   H15832036   1.522   6.022   5.475 -4.1246 -0.0187  0.5434
  100MOL   H15932037   1.334   5.953   5.598  0.7316 -0.9256 -0.6046
  100MOL   H16032038   1.207   5.766   5.767  1.0329  0.3613  0.9563
  100MOL   H16132039   1.177   5.748   5.929 -1.0828  1.9554 -0.2437
  100MOL   C16232040   1.363   5.665   5.874 -0.1341 -0.2759  0.5924
  100MOL   C16332041   1.330   5.542   5.797  0.0974 -0.3722  0.2687
  100MOL   C16432042   1.434   5.462   5.743 -0.4732  0.7042 -0.1676
  100MOL  Cl16532043   1.602   5.521   5.740  0.0873 -0.1996 -0.0530
  100MOL   C16632044   1.402   5.332   5.691 -0.7826 -1.4649  0.1788
  100MOL   C16732045   1.273   5.278   5.696  0.0557 -0.2137 -0.3753
  100MOL   C16832046   1.170   5.369   5.744 -0.5354  0.2035  0.1754
  100MOL   C16932047   1.197   5.497   5.789 -0.0428 -0.3640  0.2317
  100MOL   C17032048   1.435   5.665   6.007  0.8762  0.1401  0.2675
  100MOL   H17132049   1.436   5.706   5.804 -0.1108 -1.6672 -0.1984
  100MOL   H17232050   1.485   5.268   5.666 -0.9786 -0.2945 -3.6963
  100MOL   H17332051   1.244   5.181   5.657 -0.9804 -1.4145  3.1795
  100MOL   H17432052   1.067   5.337   5.755 -0.0962 -0.4052  2.6727
  100MOL   H17532053   1.118   5.560   5.828 -1.0217  0.2839 -2.6727
  100MOL   H17632054   1.408   5.742   6.080  2.7123 -0.9095  2.1069
  100MOL   H17732055   1.540   5.686   5.989  0.6376  1.2135  0.0898
  100MOL   C17832056   1.431   5.531   6.082 -0.6113  0.3366  0.0385
  100MOL   C17932057   1.287   5.480   6.103 -0.2759  0.9024  0.2969
  100MOL   C18032058   1.262   5.340   6.085 -0.0280 -0.3800 -0.1368
  100MOL  Cl18132059   1.383   5.222   6.052  0.4424 -0.1120 -0.3536
  100MOL   C18232060   1.130   5.300   6.098 -0.0741 -0.2521  0.0955
  100MOL   C18332061   1.032   5.389   6.141 -0.1489 -0.3930  0.0345
  100MOL   C18432062   1.057   5.524   6.162  0.1779 -0.4482 -0.2945
  100MOL   C18532063   1.187   5.569   6.144 -0.7619  0.1564 -0.3707
  100MOL   C18632064   1.516   5.533   6.210  0.7007  0.2130  0.3822
  100MOL   H18732065   1.473   5.469   6.003 -1.0408  1.3171 -0.9801
  100MOL   H18832066   1.103   5.197   6.079  1.2726 -0.3739 -1.3044
  100MOL   H18932067   0.931   5.354   6.154 -0.0430 -0.6342  0.2121
  100MOL   H19032068   0.977   5.589   6.194 -0.6723 -1.7867  0.3645
  100MOL   H19132069   1.203   5.675   6.161 -0.6845  0.2809 -1.2163
  100MOL   H19232070   1.496   5.432   6.246 -2.1579  0.2558 -0.9354
  100MOL   H19332071   1.477   5.603   6.284 -1.9704  0.7715 -1.4762
  100MOL   C19432072   1.671   5.559   6.194 -0.4064  0.4001 -0.3864
  100MOL   C19532073   1.742   5.466   6.093  0.3191  0.6189  0.6046
  100MOL   C19632074   1.821   5.510   5.982 -0.3895  0.4152  0.1168
  100MOL  Cl19732075   1.863   5.679   5.964 -0.2382  0.3380  0.1945
  100MOL   C19832076   1.868   5.409   5.899 -0.3130  0.7627  0.0049
  100MOL   C19932077   1.834   5.275   5.915  0.5622  0.4197  0.2087
  100MOL   C20032078   1.756   5.231   6.021  0.0953  0.1777  0.9622
  100MOL   C20132079   1.719   5.332   6.112 -0.2769  0.6790  0.0152
  100MOL   C20232080   1.742   5.559   6.332 -0.4760 -0.0592  0.1170
  100MOL   H20332081   1.676   5.663   6.161  1.0310  0.4563 -0.0016
  100MOL   H20432082   1.914   5.441   5.807 -1.5130 -1.3553 -1.3741
  100MOL   H20532083   1.869   5.199   5.846 -0.9127  0.8076 -1.0059
  100MOL   H20632084   1.726   5.127   6.030  0.5340 -0.1357 -0.9113
  100MOL   H20732085   1.658   5.304   6.196 -1.6046  1.1022 -0.8020
  100MOL   H20832086   1.839   5.513   6.319 -1.0684 -1.8375  1.7355
  100MOL   H20932087   1.695   5.485   6.397  0.2215 -0.5226  0.0877
  100MOL   C21032088   1.771   5.690   6.398 -0.3751 -0.1933  0.0266
  100MOL   C21132089   1.887   5.667   6.495  0.3173 -0.2876 -1.0506
  100MOL   C21232090   2.018   5.716   6.465 -0.1614  0.0075 -0.5538
  100MOL  Cl21332091   2.055   5.795   6.317  0.2254  0.3354 -0.6393
  100MOL   C21432092   2.127   5.687   6.550 -0.0825  0.0022  0.1989
  100MOL   C21532093   2.102   5.629   6.679 -0.3407  0.2429 -0.4887
  100MOL   C21632094   1.974   5.585   6.710  0.3851  0.0106  0.2621
  100MOL   C21732095   1.867   5.601   6.622 -0.3594  0.2858 -0.1785
  100MOL   C21832096   1.643   5.753   6.463 -0.4201 -0.6018 -0.5854
  100MOL   H21932097   1.808   5.766   6.329 -0.5143  1.1630  1.4207
  100MOL   H22032098   2.224   5.724   6.520  0.9495 -2.1423  0.7671
  100MOL   H22132099   2.186   5.609   6.744 -0.0950  0.8650 -0.6153
  100MOL   H22232100   1.957   5.537   6.806  2.9193 -0.9521  0.2598
  100MOL   H22332101   1.768   5.568   6.653  0.7253 -0.3980  2.7326
  100MOL   H22432102   1.583   5.681   6.519 -0.2808 -0.0113  0.3255
  100MOL   H22532103   1.581   5.781   6.378 -1.2313  2.8951  1.0627
  100MOL   C22632104   1.661   5.888   6.549  0.1483 -0.3891  0.4179
  100MOL   C22732105   1.525   5.937   6.609 -0.3055  1.3096 -0.3443
  100MOL   C22832106   1.406   5.967   6.528  0.1156  0.2140  0.3057
  100MOL  Cl22932107   1.402   5.950   6.350  0.0724 -0.1228  0.1011
  100MOL   C23032108   1.288   6.000   6.599 -0.0680  0.5191  1.1407
  100MOL   C23132109   1.288   6.025   6.734 -0.3229  0.0768 -0.1654
  100MOL   C23232110   1.401   5.996   6.815  0.3543 -1.0360  0.0967
  100MOL   C23332111   1.519   5.948   6.750  0.0419 -0.2691 -0.1002
  100MOL   C23432112   1.737   5.998   6.474 -0.3213 -0.7642  0.3448
  100MOL   H23532113   1.719   5.854   6.635 -0.2441  1.7176  1.5621
  100MOL   H23632114   1.198   6.024   6.544  1.9198  1.0016 -2.0015
  100MOL   H23732115   1.198   6.052   6.786  0.4998 -0.7022  1.7050
  100MOL   H23832116   1.394   6.002   6.923  1.6351 -0.9502  0.1721
  100MOL   H23932117   1.610   5.920   6.802 -0.6561  1.3733  2.0906
  100MOL   H24032118   1.698   6.004   6.373  0.1911 -2.2529  0.0443
  100MOL   H24132119   1.838   5.959   6.456  0.5296  1.9745 -1.0266
  100MOL   C24232120   1.769   6.131   6.546 -0.4193 -0.2535  0.5411
  100MOL   C24332121   1.644   6.220   6.545  0.2617  0.0190 -0.2704
  100MOL   C24432122   1.602   6.282   6.667 -0.6253 -0.9081 -0.4186
  100MOL  Cl24532123   1.670   6.250   6.820  0.1354 -0.0279  0.3087
  100MOL   C24632124   1.492   6.371   6.660 -0.0491  0.1056 -0.6281
  100MOL   C24732125   1.442   6.409   6.536  1.2062  0.1652 -0.0537
  100MOL   C24832126   1.484   6.348   6.416  0.4065 -0.7715 -0.2245
  100MOL   C24932127   1.587   6.258   6.423 -0.3310  0.3916  0.4943
  100MOL   C25032128   1.885   6.204   6.474 -0.0302 -0.6143  0.0189
  100MOL   H25132129   1.798   6.105   6.648 -2.0033 -0.8702  0.8519
  100MOL   H25232130   1.454   6.412   6.752  0.7678 -1.4410  0.4085
  100MOL   H25332131   1.365   6.486   6.531  1.4485  0.3248 -1.4338
  100MOL   H25432132   1.442   6.385   6.324  1.0471  0.3449 -0.0795
  100MOL   H25532133   1.605   6.210   6.327 -1.7581 -1.6451  1.2142
  100MOL   H25632134   1.876   6.313   6.483 -2.0022 -0.8831  1.3491
  100MOL   H25732135   1.856   6.199   6.369 -1.9749  2.0857  0.3771
  100MOL   C25832136   2.030   6.151   6.514  0.0702 -0.3553 -0.3353
  100MOL   C25932137   2.063   6.207   6.656 -0.7268 -0.0175 -0.0439
  100MOL   C26032138   2.064   6.127   6.772  0.5199  0.2153  0.6721
  100MOL  Cl26132139   2.010   5.964   6.772  0.0058  0.1748 -0.5913
  100MOL   C26232140   2.117   6.172   6.899 -0.3302 -0.7167  0.8255
  100MOL   C26332141   2.159   6.306   6.908  0.8686 -0.2229  0.5706
  100MOL   C26432142   2.156   6.385   6.789  0.1760  0.7234  0.4427
  100MOL   C26532143   2.109   6.339   6.666 -0.2766  0.3794 -0.4137
  100MOL   C26632144   2.132   6.191   6.404  0.8218 -0.4431 -0.4157
  100MOL   H26732145   2.031   6.042   6.524 -0.2518 -0.2444  1.0899
  100MOL   H26832146   2.112   6.105   6.984 -0.1063 -1.7545  0.0263
  100MOL   H26932147   2.202   6.342   7.001 -0.5562  0.2117  1.0802
  100MOL   H27032148   2.190   6.487   6.794  4.3321 -0.3583 -2.4363
  100MOL   H27132149   2.109   6.402   6.578 -1.1120 -0.5478 -1.0890
  100MOL   H27232150   2.137   6.298   6.382 -1.0534 -0.4842 -1.1834
  100MOL   H27332151   2.090   6.149   6.312  2.1850  1.2488 -1.8441
  100MOL   C27432152   2.282   6.143   6.433 -0.1853  0.4872 -0.1606
  100MOL   C27532153   2.357   6.187   6.309  0.1560 -0.5274 -0.1768
  100MOL   C27632154   2.467   6.279   6.320 -0.6966  0.3341 -0.8736
  100MOL  Cl27732155   2.512   6.356   6.465  0.3300 -0.0356  0.1146
  100MOL   C27832156   2.541   6.308   6.200 -0.5310  0.5921  0.5872
  100MOL   C27932157   2.504   6.259   6.073  0.5368 -0.5145  0.6310
  100MOL   C28032158   2.394   6.169   6.066 -0.1332 -0.4766 -0.0625
  100MOL   C28132159   2.320   6.137   6.181  0.2943  0.5268 -0.2927
  100MOL   C28232160   2.311   5.999   6.454 -0.2103  0.1347 -0.4767
  100MOL   H28332161   2.320   6.199   6.517 -0.7876  0.9059 -0.1635
  100MOL   H28432162   2.625   6.376   6.208 -0.3358  0.2939  1.0901
  100MOL   H28532163   2.552   6.304   5.987 -3.1323  3.0068  0.3022
  100MOL   H28632164   2.357   6.133   5.971  0.8748 -3.5581  0.6627
  100MOL   H28732165   2.241   6.063   6.175  0.8694 -0.0944 -0.1896
  100MOL   H28832166   2.284   5.945   6.363  1.7820  0.3716 -1.2268
  100MOL   H28932167   2.238   5.965   6.528  0.1707 -1.6593 -0.9093
  100MOL   C29032168   2.451   5.962   6.511 -0.4581  0.0143 -0.5379
  100MOL   C29132169   2.502   5.831   6.464 -0.5170  0.7465 -0.3881
  100MOL   C29232170   2.591   5.813   6.353  0.8861  0.2014  0.1752
  100MOL  Cl29332171   2.665   5.944   6.265 -0.2205  0.1456 -0.1067
  100MOL   C29432172   2.624   5.687   6.303 -0.6471 -0.0362 -0.2297
  100MOL   C29532173   2.590   5.571   6.376 -0.1377 -0.6093 -0.4848
  100MOL   C29632174   2.504   5.584   6.487  1.0313 -0.4817  0.1412
  100MOL   C29732175   2.472   5.714   6.533  0.3216  1.1386  0.2853
  100MOL   C29832176   2.443   5.981   6.661 -0.4810 -0.4338  0.1019
  100MOL   H29932177   2.516   6.037   6.465 -2.1760 -0.2104 -3.4389
  100MOL   H30032178   2.680   5.679   6.210 -0.7808  0.0669 -0.3204
  100MOL   H30132179   2.628   5.477   6.338  1.5784 -0.5333  0.9769
  100MOL   H30232180   2.472   5.495   6.539  0.9567 -1.8636 -2.2010
  100MOL   H30332181   2.404   5.719   6.617 -0.0760 -0.8121  0.1130
  100MOL   H30432182   2.404   5.892   6.711  0.0250 -0.2436  0.8443
  100MOL   H30532183   2.374   6.063   6.679 -2.1362 -1.4344 -1.5677
  100MOL   C30632184   2.578   6.035   6.719 -0.2054 -0.2239 -0.2108
  100MOL   C30732185   2.705   5.964   6.677  0.1678  0.2401 -0.6137
  100MOL   C30832186   2.737   5.827   6.704 -0.4043 -0.5122  0.0527
  100MOL  Cl30932187   2.641   5.736   6.808  0.0896 -0.3590 -0.4356
  100MOL   C31032188   2.846   5.764   6.649 -0.5718  0.2325  0.0118
  100MOL   C31132189   2.931   5.824   6.556 -0.4848 -0.7134  0.6472
  100MOL   C31232190   2.901   5.962   6.526  0.2177 -0.5536  0.4244
  100MOL   C31332191   2.792   6.034   6.585 -0.1936 -0.3956 -0.0091
  100MOL   C31432192   2.559   6.051   6.870  0.4557  0.1562  0.3291
  100MOL   H31532193   2.603   6.138   6.693  0.7791 -0.5613 -0.6237
  100MOL   H31632194   2.859   5.660   6.675  0.0126  0.6845  1.6148
  100MOL   H31732195   3.014   5.776   6.506  0.0897  1.2181 -0.3029
  100MOL   H31832196   2.958   6.029   6.464 -0.4050 -0.2640  0.1613
  100MOL   H31932197   2.760   6.131   6.550 -1.9287 -0.5314  1.1113
  100MOL   H32032198   2.545   5.960   6.929  4.0895  0.1444  1.3528
  100MOL   H32132199   2.483   6.123   6.899  0.0464 -0.1309 -0.0332
  100MOL   H32232200   2.652   6.090   6.913  1.3465 -0.1145 -1.3223
  101MOL     C132201   3.195   3.343   5.916  0.1078 -0.3170 -0.2994
  101MOL     C232202   3.163   3.484   5.864  0.5544  0.3620  0.1946
  101MOL     C332203   3.078   3.506   5.747  0.2563  0.1663 -0.1552
  101MOL    Cl432204   3.000   3.372   5.664 -0.1293  0.0891  0.0326
  101MOL     C532205   3.062   3.638   5.698 -0.1542  0.6473 -0.4744
  101MOL     C632206   3.122   3.739   5.768 -0.0947  1.1799 -0.1617
  101MOL     C732207   3.191   3.725   5.887 -0.2973  0.1634 -0.0741
  101MOL     C832208   3.219   3.597   5.933  0.7194  0.2889 -0.1620
  101MOL     C932209   3.342   3.309   5.919 -0.5783  0.0544  0.2209
  101MOL    H1032210   3.149   3.335   6.015  1.1075 -1.1766  0.1159
  101MOL    H1132211   3.004   3.640   5.607 -0.1597 -2.0786 -0.5743
  101MOL    H1232212   3.099   3.835   5.724 -2.5762  0.3020 -0.8746
  101MOL    H1332213   3.215   3.812   5.947 -1.6126  0.1165  0.5519
  101MOL    H1432214   3.280   3.575   6.019 -1.3175  0.3728  1.3288
  101MOL    H1532215   3.369   3.342   6.019 -1.0440  1.3883 -0.0840
  101MOL    H1632216   3.398   3.362   5.842 -2.5332 -2.0399 -2.7747
  101MOL    H1732217   3.143   3.271   5.852 -0.9592 -2.1570  2.5318
  101MOL    C1832218   3.380   3.155   5.913 -0.1353  0.4814 -0.4633
  101MOL    C1932219   3.421   3.112   5.765  0.5084 -0.3889 -0.5668
  101MOL    C2032220   3.516   3.011   5.740  0.6140  0.4415 -0.4931
  101MOL   Cl2132221   3.558   2.894   5.862 -0.1082  0.3897  0.2092
  101MOL    C2232222   3.575   2.999   5.615 -0.4214 -0.1133 -0.2900
  101MOL    C2332223   3.533   3.072   5.500 -1.1731  0.5420 -0.4501
  101MOL    C2432224   3.425   3.156   5.521 -0.2988 -0.3404 -0.3150
  101MOL    C2532225   3.368   3.175   5.650 -0.1716  0.2524 -0.2364
  101MOL    C2632226   3.280   3.047   5.968  0.1108 -0.0488 -0.0963
  101MOL    H2732227   3.465   3.135   5.979 -0.2899  1.4276  0.0329
  101MOL    H2832228   3.645   2.919   5.594  0.4126  0.8183 -1.0495
  101MOL    H2932229   3.567   3.051   5.399 -0.0344 -2.1735  0.4578
  101MOL    H3032230   3.396   3.209   5.432 -0.4774  2.5747  1.4220
  101MOL    H3132231   3.289   3.245   5.669 -2.0169 -1.2913 -2.0368
  101MOL    H3232232   3.309   2.950   5.927 -2.6987 -0.5357 -1.0766
  101MOL    H3332233   3.189   3.061   5.909 -0.2773 -0.0849  0.4913
  101MOL    C3432234   3.249   3.042   6.118  0.1737  0.2287  0.0470
  101MOL    C3532235   3.367   3.084   6.207  0.7186  0.1945 -0.1057
  101MOL    C3632236   3.351   3.190   6.305  0.0570  0.1635 -0.5056
  101MOL   Cl3732237   3.207   3.278   6.318  0.0233  0.2350  0.2698
  101MOL    C3832238   3.450   3.222   6.395 -0.2545  0.3506 -0.3595
  101MOL    C3932239   3.573   3.156   6.387 -0.0115  0.1925 -0.2363
  101MOL    C4032240   3.586   3.055   6.295  0.3239 -0.3813  0.5946
  101MOL    C4132241   3.495   3.018   6.196 -0.1124  0.5444 -0.5571
  101MOL    C4232242   3.177   2.919   6.170 -0.6364  0.0257 -0.0738
  101MOL    H4332243   3.177   3.123   6.130  0.5575  0.2623  2.2557
  101MOL    H4432244   3.441   3.295   6.474 -0.9965 -0.9757  0.8059
  101MOL    H4532245   3.641   3.179   6.468 -0.1541  0.9383 -0.3227
  101MOL    H4632246   3.684   3.009   6.290 -0.0070 -1.2842  2.2499
  101MOL    H4732247   3.522   2.945   6.121 -0.2519 -0.8414  0.7174
  101MOL    H4832248   3.194   2.905   6.277  3.7072  2.5366 -0.3157
  101MOL    H4932249   3.227   2.836   6.120 -1.5106 -1.5313  1.5258
  101MOL    C5032250   3.030   2.915   6.132 -0.0696  0.4591 -0.2413
  101MOL    C5132251   2.947   3.015   6.225 -0.0590  0.2371  0.2853
  101MOL    C5232252   2.906   3.142   6.175 -0.0918 -0.8625  0.1852
  101MOL   Cl5332253   2.922   3.191   6.016 -0.1043 -0.0855  0.0886
  101MOL    C5432254   2.839   3.228   6.264  0.8181  0.0717  0.2014
  101MOL    C5532255   2.809   3.191   6.398 -0.0605 -0.3683  0.3872
  101MOL    C5632256   2.859   3.070   6.445 -0.5301 -0.0484 -0.2583
  101MOL    C5732257   2.923   2.983   6.354 -0.5853  0.3148 -0.4250
  101MOL    C5832258   2.968   2.767   6.141 -0.1295  0.3944 -0.7563
  101MOL    H5932259   3.020   2.945   6.028  1.7132  2.9648  0.2823
  101MOL    H6032260   2.799   3.320   6.225 -1.9104 -2.1028 -2.3184
  101MOL    H6132261   2.751   3.248   6.469  0.0819  0.6473 -0.3139
  101MOL    H6232262   2.849   3.035   6.546  1.7167  0.1910  0.0571
  101MOL    H6332263   2.957   2.883   6.378 -0.9712  0.2884  0.0185
  101MOL    H6432264   2.977   2.720   6.239  0.7531  0.8217 -0.6251
  101MOL    H6532265   3.034   2.702   6.084  1.5379  1.5695 -0.2169
  101MOL    C6632266   2.819   2.769   6.090  0.7289  0.2400 -1.3619
  101MOL    C6732267   2.724   2.713   6.197  0.0855  0.4317 -0.2599
  101MOL    C6832268   2.619   2.784   6.263  0.3541  0.4509  0.1794
  101MOL   Cl6932269   2.591   2.954   6.228 -0.2666 -0.1250  0.0480
  101MOL    C7032270   2.543   2.722   6.368 -0.4741 -1.1834  0.1881
  101MOL    C7132271   2.575   2.596   6.406  0.4955 -0.3146 -0.4932
  101MOL    C7232272   2.670   2.519   6.340  0.2479 -0.1664  0.3647
  101MOL    C7332273   2.738   2.578   6.234  0.9446  0.1770  0.3922
  101MOL    C7432274   2.805   2.694   5.961 -0.1297 -0.1983  0.3356
  101MOL    H7532275   2.774   2.865   6.067  2.7030  1.4082 -0.4365
  101MOL    H7632276   2.467   2.771   6.426 -0.3733 -0.8309  0.0243
  101MOL    H7732277   2.524   2.552   6.490  2.6203 -1.5086  0.1994
  101MOL    H7832278   2.683   2.414   6.361 -0.5425  0.3669  3.8021
  101MOL    H7932279   2.807   2.508   6.190  0.2057 -0.6715  0.5652
  101MOL    H8032280   2.700   2.670   5.945 -0.2450  1.2450 -1.2544
  101MOL    H8132281   2.846   2.594   5.977  1.1835  0.4571  1.1266
  101MOL    C8232282   2.870   2.740   5.825  0.3914 -0.6342 -0.3943
  101MOL    C8332283   2.795   2.854   5.755 -0.1883  0.7970 -0.4845
  101MOL    C8432284   2.858   2.972   5.708 -0.4275  0.1864 -0.8099
  101MOL   Cl8532285   3.033   2.986   5.715  0.2554 -0.0641 -0.0368
  101MOL    C8632286   2.787   3.080   5.656  0.4061  0.0391 -0.3423
  101MOL    C8732287   2.649   3.066   5.633 -0.7580  0.1007 -0.3594
  101MOL    C8832288   2.586   2.945   5.673  0.1801  0.0723 -0.2900
  101MOL    C8932289   2.658   2.834   5.725  0.1966 -0.7975  0.0243
  101MOL    C9032290   2.896   2.618   5.724 -1.1204 -0.5618  0.1254
  101MOL    H9132291   2.971   2.776   5.846 -0.0636 -0.3284  1.3055
  101MOL    H9232292   2.843   3.167   5.625  1.0237 -0.3126 -0.2075
  101MOL    H9332293   2.584   3.136   5.583  0.0434 -0.8254 -2.7707
  101MOL    H9432294   2.480   2.927   5.658  0.3646 -1.6872  0.3462
  101MOL    H9532295   2.603   2.744   5.750 -1.7913  0.1811 -0.7214
  101MOL    H9632296   2.949   2.668   5.643 -0.2889  0.4314  1.2797
  101MOL    H9732297   2.808   2.578   5.673 -1.7601  1.0981 -0.0829
  101MOL    C9832298   2.970   2.486   5.770  0.1411 -1.1251 -0.0010
  101MOL    C9932299   3.101   2.505   5.857  0.1073  0.1803  0.3532
  101MOL   C10032300   3.134   2.412   5.961 -0.1148 -0.6547 -0.2218
  101MOL  Cl10132301   3.034   2.280   6.003 -0.1069  0.0878  0.1834
  101MOL   C10232302   3.251   2.438   6.037  1.0180  0.9777 -0.8506
  101MOL   C10332303   3.334   2.541   6.003 -0.0880 -0.2751  0.2456
  101MOL   C10432304   3.306   2.634   5.902 -0.4866  0.0068 -0.0699
  101MOL   C10532305   3.184   2.622   5.832 -0.3452  0.0620  0.0367
  101MOL   C10632306   2.997   2.392   5.652  0.5334 -0.1520  0.5301
  101MOL   H10732307   2.899   2.429   5.830  1.1330 -2.2520  0.1009
  101MOL   H10832308   3.284   2.379   6.122 -0.2447 -0.3661 -1.2612
  101MOL   H10932309   3.423   2.572   6.057  0.5659  1.3491 -1.7047
  101MOL   H11032310   3.368   2.722   5.894 -0.1510 -0.2805 -0.6594
  101MOL   H11132311   3.153   2.695   5.758 -1.1149  1.0251  1.2844
  101MOL   H11232312   3.038   2.307   5.706  0.4231  0.6796  1.9457
  101MOL   H11332313   3.084   2.427   5.598  1.1413 -0.4249  1.3189
  101MOL   C11432314   2.871   2.347   5.577  0.5051 -0.6271 -0.2168
  101MOL   C11532315   2.879   2.199   5.538  0.2526  0.1413  0.8929
  101MOL   C11632316   2.810   2.102   5.614 -0.1419 -0.1759 -0.1566
  101MOL  Cl11732317   2.712   2.127   5.755 -0.1892 -0.4073  0.0188
  101MOL   C11832318   2.812   1.968   5.568  0.1221 -0.0340 -0.3386
  101MOL   C11932319   2.899   1.924   5.464 -0.0104 -0.6261 -0.2279
  101MOL   C12032320   2.983   2.019   5.407 -0.0699 -0.6549 -0.4473
  101MOL   C12132321   2.968   2.161   5.432  0.2571  0.4978  0.4228
  101MOL   C12232322   2.845   2.440   5.451  0.1252  0.0204 -0.2454
  101MOL   H12332323   2.786   2.358   5.644  0.8627 -0.4804  0.2070
  101MOL   H12432324   2.744   1.897   5.613 -2.4455  1.4043 -1.8413
  101MOL   H12532325   2.906   1.817   5.449  0.6648 -0.9465  2.2064
  101MOL   H12632326   3.045   1.980   5.328  0.8722 -1.5736  0.7430
  101MOL   H12732327   3.026   2.233   5.377 -0.3066  0.5070 -0.1667
  101MOL   H12832328   2.876   2.390   5.360  0.1102  0.2748 -0.3906
  101MOL   H12932329   2.911   2.527   5.457  2.0267 -1.3475 -0.8204
  101MOL   C13032330   2.695   2.479   5.433  0.2363 -0.0411  0.1224
  101MOL   C13132331   2.605   2.354   5.458  0.3307  0.5880  0.0959
  101MOL   C13232332   2.517   2.354   5.566 -0.0673 -0.3888 -0.2336
  101MOL  Cl13332333   2.487   2.489   5.668  0.4074 -0.1522  0.1588
  101MOL   C13432334   2.439   2.240   5.589 -0.2093 -0.2272  0.1134
  101MOL   C13532335   2.443   2.130   5.504  0.7372 -0.1352 -0.1460
  101MOL   C13632336   2.530   2.137   5.387  0.0034  0.3048  0.0314
  101MOL   C13732337   2.612   2.244   5.367  0.2514 -0.1712 -0.7287
  101MOL   C13832338   2.654   2.550   5.297  0.0371  0.3668  0.1561
  101MOL   H13932339   2.667   2.553   5.508 -0.2772 -0.1291  0.0226
  101MOL   H14032340   2.365   2.243   5.667  0.7725 -0.5345  1.0611
  101MOL   H14132341   2.368   2.056   5.527 -0.3169  0.4698 -1.5187
  101MOL   H14232342   2.532   2.048   5.326 -1.8488 -0.6020  1.2410
  101MOL   H14332343   2.685   2.260   5.288  0.5045 -0.7511 -0.6123
  101MOL   H14432344   2.673   2.483   5.213  0.6064  0.1206  0.4822
  101MOL   H14532345   2.717   2.637   5.280  1.2489  0.1375  3.1622
  101MOL   C14632346   2.509   2.600   5.282  0.3219 -0.0286  0.4216
  101MOL   C14732347   2.481   2.619   5.130  0.5703  0.0168 -0.8503
  101MOL   C14832348   2.403   2.533   5.048 -0.3698  0.0921 -0.0193
  101MOL  Cl14932349   2.333   2.388   5.109 -0.0473  0.1065  0.2354
  101MOL   C15032350   2.373   2.573   4.918  0.6358  0.2647 -0.5276
  101MOL   C15132351   2.418   2.698   4.858 -0.7010  0.3472  0.2767
  101MOL   C15232352   2.505   2.772   4.942  0.1554  0.1766 -0.4549
  101MOL   C15332353   2.536   2.731   5.071 -0.4355 -0.4124 -0.2572
  101MOL   C15432354   2.471   2.720   5.375 -0.2900 -0.4512  0.1852
  101MOL   H15532355   2.444   2.516   5.304  1.7766 -0.6557  2.4533
  101MOL   H15632356   2.306   2.508   4.864  0.9466 -1.8412  1.5659
  101MOL   H15732357   2.392   2.747   4.766  0.0946  0.4662  0.1064
  101MOL   H15832358   2.537   2.872   4.918 -1.0221  0.7367  0.2579
  101MOL   H15932359   2.594   2.807   5.122  0.2966 -2.1821  1.6146
  101MOL   H16032360   2.533   2.809   5.360  0.1011 -0.7639 -0.0511
  101MOL   H16132361   2.487   2.700   5.481  0.8447  0.4619  0.2067
  101MOL   C16232362   2.324   2.773   5.373  0.1720 -1.3423  0.8646
  101MOL   C16332363   2.304   2.901   5.281 -0.1529  0.3740  0.3894
  101MOL   C16432364   2.225   2.897   5.161 -0.2202  0.2341  0.3288
  101MOL  Cl16532365   2.140   2.748   5.121  0.0227 -0.2288 -0.0041
  101MOL   C16632366   2.204   3.009   5.080  0.8479  0.9362 -0.1381
  101MOL   C16732367   2.240   3.134   5.130 -0.0330  0.3244 -0.7929
  101MOL   C16832368   2.310   3.149   5.248  0.0558 -0.1671 -0.0367
  101MOL   C16932369   2.348   3.034   5.315  0.2380  0.4607  0.7738
  101MOL   C17032370   2.254   2.784   5.513  0.9335 -0.4500 -0.1110
  101MOL   H17132371   2.270   2.691   5.326  0.2046 -0.3824 -0.8740
  101MOL   H17232372   2.146   2.994   4.990 -0.1395 -1.0105  0.7913
  101MOL   H17332373   2.208   3.222   5.076  2.0141  1.3929 -0.2997
  101MOL   H17432374   2.330   3.251   5.276 -1.5795 -0.5052  2.5388
  101MOL   H17532375   2.408   3.047   5.403 -0.2874  0.2393  1.1677
  101MOL   H17632376   2.293   2.875   5.559 -0.3784 -0.7098  1.5546
  101MOL   H17732377   2.291   2.702   5.575  0.2485 -0.8728 -0.2533
  101MOL   C17832378   2.100   2.780   5.517 -0.3559 -0.2068  0.0792
  101MOL   C17932379   2.037   2.909   5.470 -0.6321  0.5067 -0.6999
  101MOL   C18032380   1.917   2.909   5.396  0.6893 -0.1205  0.3028
  101MOL  Cl18132381   1.844   2.761   5.346  0.2437 -0.2779  0.2419
  101MOL   C18232382   1.846   3.026   5.357 -0.3777 -0.7001 -0.0701
  101MOL   C18332383   1.915   3.148   5.383  0.0822  0.0274 -0.1495
  101MOL   C18432384   2.024   3.161   5.459 -0.8739 -0.6865  0.3835
  101MOL   C18532385   2.078   3.041   5.511 -0.3339 -0.2442  0.5182
  101MOL   C18632386   2.044   2.726   5.656 -0.7786 -0.0888 -0.1771
  101MOL   H18732387   2.080   2.707   5.439  0.0575  0.5437 -0.7359
  101MOL   H18832388   1.754   3.027   5.301  1.0902  1.1579 -2.5813
  101MOL   H18932389   1.863   3.235   5.345 -0.0306 -0.1073 -0.3047
  101MOL   H19032390   2.064   3.258   5.483 -1.0430 -0.4288 -0.3735
  101MOL   H19132391   2.157   3.053   5.583 -0.6527  0.6179  0.7291
  101MOL   H19232392   1.943   2.762   5.677 -1.4117 -2.4613  0.9636
  101MOL   H19332393   2.096   2.780   5.735  0.7725 -0.3504 -0.9961
  101MOL   C19432394   2.052   2.580   5.697  0.1914 -0.4459  0.8728
  101MOL   C19532395   1.973   2.491   5.594 -0.1128 -0.2151  0.4866
  101MOL   C19632396   2.041   2.431   5.485  0.5482 -0.2756  0.5754
  101MOL  Cl19732397   2.213   2.433   5.477  0.3209  0.0044 -0.3137
  101MOL   C19832398   1.967   2.365   5.389 -0.1042  0.5902  0.5279
  101MOL   C19932399   1.825   2.359   5.395  0.1262  0.7143  0.0115
  101MOL   C20032400   1.761   2.427   5.499  0.2264  0.3126 -0.5354
  101MOL   C20132401   1.832   2.491   5.598 -0.8932  0.4693  0.3733
  101MOL   C20232402   1.995   2.559   5.836 -0.2011  0.2747  0.3361
  101MOL   H20332403   2.156   2.546   5.701 -0.6673 -3.1030  1.8271
  101MOL   H20432404   2.013   2.310   5.308 -1.9988  0.6829 -0.6416
  101MOL   H20532405   1.765   2.301   5.327  0.9109 -0.1630  0.0661
  101MOL   H20632406   1.656   2.402   5.498  0.4961 -0.7815 -1.9346
  101MOL   H20732407   1.779   2.530   5.683 -0.7959 -1.0032  1.1295
  101MOL   H20832408   1.957   2.457   5.841 -3.1699  1.1541 -2.0997
  101MOL   H20932409   1.913   2.631   5.850 -0.0509  0.0629  2.4328
  101MOL   C21032410   2.093   2.588   5.951  0.1271  0.3539 -0.2014
  101MOL   C21132411   2.205   2.485   5.957 -0.2334 -0.0208 -0.0339
  101MOL   C21232412   2.345   2.521   5.959  0.3185 -0.3188  0.1774
  101MOL  Cl21332413   2.400   2.683   5.965 -0.1827  0.2000 -0.0077
  101MOL   C21432414   2.443   2.420   5.965  0.4599  0.1770 -0.9715
  101MOL   C21532415   2.404   2.285   5.966  0.5049  0.0930  0.1159
  101MOL   C21632416   2.271   2.250   5.961  0.7600 -0.1617 -0.0279
  101MOL   C21732417   2.169   2.352   5.958 -0.0182  0.1085  0.5034
  101MOL   C21832418   2.023   2.606   6.088  0.0060 -0.3753  0.1605
  101MOL   H21932419   2.148   2.681   5.934  0.3081  0.2863  0.0094
  101MOL   H22032420   2.545   2.452   5.979  0.2016  0.7304 -0.2660
  101MOL   H22132421   2.475   2.204   5.972  0.4089 -0.2282 -2.5069
  101MOL   H22232422   2.234   2.149   5.969 -3.0226  1.0526 -1.0795
  101MOL   H22332423   2.064   2.328   5.968 -0.3672  1.7026  0.7641
  101MOL   H22432424   2.108   2.609   6.156  1.6418 -0.0950 -1.8468
  101MOL   H22532425   1.970   2.512   6.103  0.6685 -1.1874 -2.2079
  101MOL   C22632426   1.924   2.722   6.117  0.2048 -0.4162  0.0087
  101MOL   C22732427   1.993   2.850   6.071 -0.6781 -1.1695  0.3038
  101MOL   C22832428   1.937   2.920   5.959 -0.4350 -0.1698  0.7256
  101MOL  Cl22932429   1.804   2.865   5.868  0.3093 -0.1866  0.4809
  101MOL   C23032430   2.003   3.044   5.923 -0.5524 -0.2039  0.2940
  101MOL   C23132431   2.122   3.085   5.982  0.0016 -0.5595  0.0469
  101MOL   C23232432   2.168   3.014   6.096  0.2249 -0.9539  0.2881
  101MOL   C23332433   2.108   2.898   6.139 -0.3700 -0.7114 -0.1597
  101MOL   C23432434   1.889   2.735   6.261  0.3467  0.0446  0.1562
  101MOL   H23532435   1.830   2.710   6.063  0.6650 -0.3725 -0.8134
  101MOL   H23632436   1.961   3.105   5.844 -1.5755 -0.8604  0.3181
  101MOL   H23732437   2.166   3.181   5.959  1.0267 -0.5139  2.1099
  101MOL   H23832438   2.251   3.064   6.144 -0.8806  1.9358 -0.7140
  101MOL   H23932439   2.155   2.842   6.219  0.6331 -1.0569 -0.9690
  101MOL   H24032440   1.848   2.836   6.263 -2.7874 -1.1221 -1.9787
  101MOL   H24132441   1.988   2.729   6.308 -0.1995 -1.6999  1.1267
  101MOL   C24232442   1.781   2.624   6.310 -1.0052 -0.4585 -0.6145
  101MOL   C24332443   1.642   2.672   6.258  0.4890 -0.6058  0.1589
  101MOL   C24432444   1.562   2.590   6.167 -1.0271 -0.2551 -0.9803
  101MOL  Cl24532445   1.632   2.441   6.108 -0.2037  0.0931  0.4042
  101MOL   C24632446   1.436   2.628   6.132 -0.7276 -0.0339 -0.1929
  101MOL   C24732447   1.389   2.749   6.178  0.2256 -0.6362 -0.9827
  101MOL   C24832448   1.458   2.834   6.260 -0.2831  0.0849 -0.0582
  101MOL   C24932449   1.587   2.796   6.298 -0.8169 -0.5174 -0.1345
  101MOL   C25032450   1.779   2.616   6.462  0.3292  0.0648  0.9058
  101MOL   H25132451   1.804   2.521   6.286 -1.4569 -0.8323  0.5230
  101MOL   H25232452   1.372   2.567   6.070 -0.8405 -0.2825  0.1710
  101MOL   H25332453   1.293   2.796   6.160  0.1603  0.2540  1.5094
  101MOL   H25432454   1.422   2.934   6.280  2.7493  1.1038  0.6744
  101MOL   H25532455   1.652   2.862   6.353  1.1802 -1.6725 -1.0688
  101MOL   H25632456   1.703   2.542   6.483 -1.2949  0.5403 -2.8253
  101MOL   H25732457   1.759   2.709   6.515  2.1181 -0.3345  2.3026
  101MOL   C25832458   1.905   2.561   6.542  0.3734  0.0412 -0.0360
  101MOL   C25932459   1.997   2.473   6.463  0.6615 -0.5045  0.1926
  101MOL   C26032460   2.131   2.516   6.434 -0.1948  0.0393  0.9868
  101MOL  Cl26132461   2.194   2.666   6.476  0.0369  0.2122 -0.1736
  101MOL   C26232462   2.220   2.430   6.361  0.1531  0.0646 -0.1068
  101MOL   C26332463   2.171   2.299   6.321 -0.6766 -0.2346 -0.8650
  101MOL   C26432464   2.046   2.255   6.350  0.0095  0.2336 -0.3429
  101MOL   C26532465   1.955   2.341   6.422 -0.2928 -0.0726 -0.2868
  101MOL   C26632466   1.858   2.483   6.672  0.3673 -0.2217  0.7713
  101MOL   H26732467   1.951   2.656   6.572 -0.2683  0.6423 -0.9249
  101MOL   H26832468   2.321   2.457   6.336  0.5719 -1.7660 -0.4375
  101MOL   H26932469   2.243   2.236   6.270  0.0786 -0.3649  0.3556
  101MOL   H27032470   2.009   2.160   6.315  0.6010  0.1645 -0.7936
  101MOL   H27132471   1.862   2.296   6.453 -1.0780  1.7115  0.0170
  101MOL   H27232472   1.812   2.385   6.653 -2.6176  1.4945 -1.3861
  101MOL   H27332473   1.774   2.534   6.720  0.4793  3.2100 -2.5043
  101MOL   C27432474   1.954   2.476   6.793  0.4542 -0.5457  0.6859
  101MOL   C27532475   2.079   2.397   6.756 -0.0378  0.6358 -0.1506
  101MOL   C27632476   2.216   2.446   6.760  0.4094 -0.7227 -0.3745
  101MOL  Cl27732477   2.267   2.607   6.811 -0.1434  0.0412  0.1530
  101MOL   C27832478   2.326   2.367   6.731  0.1033  0.0917  0.2852
  101MOL   C27932479   2.309   2.226   6.697  0.6750 -0.1905 -0.5719
  101MOL   C28032480   2.178   2.177   6.704 -0.0364  0.0299 -0.1855
  101MOL   C28132481   2.066   2.259   6.733  0.4830 -0.1226 -0.6400
  101MOL   C28232482   1.894   2.430   6.926  0.1188 -0.4064 -0.1092
  101MOL   H28332483   1.986   2.580   6.802 -1.0497  0.0752 -0.8458
  101MOL   H28432484   2.426   2.407   6.745  0.9160 -1.9968  0.6248
  101MOL   H28532485   2.399   2.167   6.691  1.2787  0.8379 -1.8842
  101MOL   H28632486   2.166   2.070   6.695 -4.4253  0.3305  0.8054
  101MOL   H28732487   1.967   2.217   6.743  0.8077 -0.6858  0.3383
  101MOL   H28832488   1.971   2.365   6.966  0.7156  0.4159  0.0861
  101MOL   H28932489   1.812   2.362   6.901 -0.8393 -0.9362  4.1099
  101MOL   C29032490   1.858   2.539   7.035 -0.2505  0.7893 -0.3538
  101MOL   C29132491   1.837   2.477   7.174 -0.0082  0.0562  0.3779
  101MOL   C29232492   1.905   2.527   7.290 -0.1293 -0.0503 -0.2152
  101MOL  Cl29332493   2.017   2.664   7.297  0.4781 -0.0478  0.2972
  101MOL   C29432494   1.867   2.461   7.410 -0.3327  0.0430 -0.3170
  101MOL   C29532495   1.788   2.345   7.415 -0.3390  0.0288  0.7713
  101MOL   C29632496   1.739   2.286   7.295 -0.2205 -0.0413 -0.4640
  101MOL   C29732497   1.761   2.364   7.177 -0.0953  0.1804 -0.2964
  101MOL   C29832498   1.748   2.641   6.994 -0.3526  0.2464 -0.2898
  101MOL   H29932499   1.951   2.596   7.039  1.1542 -1.4830 -0.0872
  101MOL   H30032500   1.916   2.495   7.500 -1.1827 -0.0148  0.1787
  101MOL   H30132501   1.777   2.302   7.513 -0.3626 -2.7347 -0.3869
  101MOL   H30232502   1.678   2.197   7.303 -0.0343 -0.0629  0.7939
  101MOL   H30332503   1.710   2.316   7.095  0.6025 -0.2875 -0.4556
  101MOL   H30432504   1.784   2.680   6.898  0.7281 -1.2939 -0.5276
  101MOL   H30532505   1.746   2.739   7.043  1.7942  0.8681 -1.3615
  101MOL   C30632506   1.603   2.587   6.980 -0.1483  0.8442 -0.4021
  101MOL   C30732507   1.531   2.623   6.845  0.1477 -0.6096  1.0398
  101MOL   C30832508   1.453   2.526   6.771 -0.0506  0.0668  0.3034
  101MOL  Cl30932509   1.443   2.358   6.809  0.4367  0.0981 -0.4616
  101MOL   C31032510   1.384   2.570   6.651 -0.0902 -0.0249 -0.6478
  101MOL   C31132511   1.392   2.701   6.603 -0.2159 -0.4428  0.7036
  101MOL   C31232512   1.473   2.794   6.678 -0.0815 -0.0929  0.2122
  101MOL   C31332513   1.536   2.754   6.798 -0.2233 -0.0620 -0.3246
  101MOL   C31432514   1.523   2.626   7.099 -0.0184  0.2482 -0.6320
  101MOL   H31532515   1.604   2.478   6.988  0.4501  0.8901  0.1931
  101MOL   H31632516   1.323   2.498   6.599  0.1301 -1.4991  1.0915
  101MOL   H31732517   1.345   2.732   6.511 -0.2535 -2.0282  0.1815
  101MOL   H31832518   1.494   2.892   6.636  2.0223 -0.0743  1.2804
  101MOL   H31932519   1.603   2.828   6.840  0.0408  0.9851 -2.5042
  101MOL   H32032520   1.425   2.579   7.097 -0.0818  0.2620  1.1189
  101MOL   H32132521   1.505   2.733   7.093 -0.4351  0.1591 -0.9385
  101MOL   H32232522   1.569   2.595   7.193 -2.1937  0.4022  0.5193
  102MOL     C132523   8.076   6.484   1.937  0.6535 -0.5253  0.2947
  102MOL     C232524   8.176   6.583   1.877  0.1901  0.2915 -0.3676
  102MOL     C332525   8.310   6.585   1.922 -0.1223  0.3242 -0.1401
  102MOL    Cl432526   8.377   6.455   2.017 -0.1906  0.2846 -0.2859
  102MOL     C532527   8.407   6.674   1.867 -0.2474 -0.5610 -0.1103
  102MOL     C632528   8.374   6.765   1.762 -0.0985 -0.3263  0.4577
  102MOL     C732529   8.238   6.765   1.715 -0.2554  0.3177  0.8864
  102MOL     C832530   8.143   6.673   1.774  0.1114  0.2210  0.7125
  102MOL     C932531   8.068   6.347   1.867 -0.4845  0.3337  1.0140
  102MOL    H1032532   8.092   6.459   2.042  0.8991 -1.4626  0.0440
  102MOL    H1132533   0.089   6.667   1.902 -0.1103  0.0320 -0.3855
  102MOL    H1232534   0.029   6.830   1.718  0.4376 -0.9205  0.4928
  102MOL    H1332535   8.220   6.832   1.632 -0.2335 -0.2315  0.4340
  102MOL    H1432536   8.046   6.674   1.726  0.5445 -1.8686 -0.2675
  102MOL    H1532537   8.160   6.294   1.894  0.1477  0.1501 -1.4427
  102MOL    H1632538   8.074   6.371   1.761  0.1679 -0.5112  0.8557
  102MOL    H1732539   7.980   6.535   1.924  1.3363  0.8373  0.5253
  102MOL    C1832540   7.943   6.257   1.891  0.6536 -0.6406  0.4494
  102MOL    C1932541   7.925   6.226   2.042 -0.1115 -0.2341  0.6576
  102MOL    C2032542   7.805   6.245   2.116  0.6410  0.1819  0.3933
  102MOL   Cl2132543   7.654   6.289   2.030  0.3727 -0.3765 -0.0568
  102MOL    C2232544   7.803   6.230   2.252 -0.3494  0.0901  0.0682
  102MOL    C2332545   7.919   6.183   2.319 -0.5816 -0.2292  0.1309
  102MOL    C2432546   8.031   6.152   2.250 -0.7680 -0.7233  1.1758
  102MOL    C2532547   8.040   6.179   2.109  0.2296  0.1751 -0.0969
  102MOL    C2632548   7.933   6.132   1.797 -0.7054 -0.6920 -0.0699
  102MOL    H2732549   7.859   6.324   1.873  0.7954 -0.7475 -0.6118
  102MOL    H2832550   7.715   6.254   2.310 -0.4935  0.7462 -0.4103
  102MOL    H2932551   7.905   6.168   2.425 -2.1559  0.6813  0.0640
  102MOL    H3032552   8.111   6.100   2.300 -0.2192 -0.6298  0.4089
  102MOL    H3132553   8.132   6.155   2.059 -1.2733 -3.0765 -1.4429
  102MOL    H3232554   7.853   6.069   1.834  0.6925 -1.1906  2.2461
  102MOL    H3332555   8.024   6.074   1.811 -0.0946 -0.0096 -1.1850
  102MOL    C3432556   7.903   6.172   1.642 -0.2659 -0.0690 -0.3301
  102MOL    C3532557   7.754   6.212   1.625  0.5648 -0.0229  0.3258
  102MOL    C3632558   7.715   6.348   1.605  0.3832  0.3575  0.0620
  102MOL   Cl3732559   7.833   6.477   1.581  0.3812  0.0979 -0.5811
  102MOL    C3832560   7.582   6.374   1.581 -0.3593  0.2889 -0.8961
  102MOL    C3932561   7.489   6.270   1.596  1.3301 -0.1996  0.3173
  102MOL    C4032562   7.518   6.137   1.637 -0.8555  0.0779  0.0169
  102MOL    C4132563   7.655   6.110   1.640  0.7986  0.5660  0.2876
  102MOL    C4232564   7.939   6.054   1.544  0.0379 -0.4116 -0.6613
  102MOL    H4332565   7.961   6.259   1.611 -1.5421  0.5979 -0.8968
  102MOL    H4432566   7.552   6.472   1.549  1.1536  0.3694 -2.1704
  102MOL    H4532567   7.388   6.302   1.572  0.2701 -1.7426  2.5745
  102MOL    H4632568   7.449   6.059   1.665 -0.0858 -0.1655  1.2618
  102MOL    H4732569   7.680   6.007   1.663  1.2739  0.3956 -0.9662
  102MOL    H4832570   7.893   6.085   1.450  1.0390 -1.5510 -1.5416
  102MOL    H4932571   7.900   5.958   1.576  0.4640  0.0498  1.2766
  102MOL    C5032572   8.085   6.029   1.515 -0.3254  0.1256  0.5892
  102MOL    C5132573   8.166   6.159   1.508  0.7080 -0.8580  0.4924
  102MOL    C5232574   8.267   6.198   1.595 -0.5286  0.5155  0.4403
  102MOL   Cl5332575   8.330   6.078   1.708 -0.3029 -0.3602  0.0192
  102MOL    C5432576   8.323   6.325   1.597  0.1470  0.3590  0.5921
  102MOL    C5532577   8.267   6.422   1.513 -0.7021 -0.3023  0.5939
  102MOL    C5632578   8.172   6.380   1.420 -0.8291 -0.4261  0.1787
  102MOL    C5732579   8.124   6.249   1.405 -0.1054 -0.0427  0.0119
  102MOL    C5832580   8.104   5.943   1.388  0.8988  0.3253  0.4259
  102MOL    H5932581   8.130   5.971   1.595 -0.1623  0.6784  0.9001
  102MOL    H6032582   8.410   6.340   1.660  1.0379 -1.9336 -0.0652
  102MOL    H6132583   8.300   6.525   1.512 -0.9609 -0.2015  1.9870
  102MOL    H6232584   8.145   6.454   1.345 -1.5358  0.9794  1.7975
  102MOL    H6332585   8.037   6.230   1.344  1.3427  1.8622 -2.7574
  102MOL    H6432586   8.046   5.979   1.303  2.9562  1.4448 -0.5582
  102MOL    H6532587   8.064   5.843   1.404  3.0195 -0.8421 -1.1569
  102MOL    C6632588   8.247   5.910   1.344  0.3800 -0.7026 -0.0351
  102MOL    C6732589   8.288   5.990   1.221  0.5772  0.1084  0.4304
  102MOL    C6832590   8.401   6.075   1.221 -0.8616 -0.4005 -0.5645
  102MOL   Cl6932591   0.087   6.085   1.361 -0.1364 -0.0840  0.2242
  102MOL    C7032592   0.015   6.144   1.107 -0.2092  0.0379  0.0805
  102MOL    C7132593   8.363   6.131   0.987 -0.0585  0.3949 -0.7468
  102MOL    C7232594   8.245   6.055   0.989  0.1299 -0.5357 -0.0189
  102MOL    C7332595   8.213   5.980   1.104  0.1452  0.5152  0.1824
  102MOL    C7432596   8.274   5.760   1.321 -0.2836 -0.3554  0.2665
  102MOL    H7532597   8.309   5.937   1.429  1.1753 -0.3301 -0.7203
  102MOL    H7632598   0.107   6.199   1.100 -1.5910  2.5900  1.4254
  102MOL    H7732599   8.401   6.183   0.901  0.7676  1.8253  0.4602
  102MOL    H7832600   8.179   6.050   0.903  1.5345 -1.4433 -1.0696
  102MOL    H7932601   8.129   5.912   1.095  0.0829  0.8211 -1.9726
  102MOL    H8032602   8.192   5.732   1.256 -0.6294 -0.4074  0.7290
  102MOL    H8132603   8.254   5.724   1.421  3.4625  0.4344  1.3860
  102MOL    C8232604   8.414   5.718   1.263 -1.0052 -0.1975  0.6852
  102MOL    C8332605   8.407   5.560   1.234  0.4201 -0.8495 -0.2096
  102MOL    C8432606   8.399   5.506   1.102  1.0576  0.3603  0.5993
  102MOL   Cl8532607   8.400   5.610   0.961  0.3288  0.4498  0.5270
  102MOL    C8632608   8.369   5.372   1.084 -0.3556 -0.6361  0.3185
  102MOL    C8732609   8.355   5.286   1.192  0.0635  0.3044  0.2540
  102MOL    C8832610   8.376   5.334   1.323 -0.0670 -0.1925  0.6661
  102MOL    C8932611   8.395   5.473   1.345  0.1770 -0.1738  0.3912
  102MOL    C9032612   0.106   5.748   1.362  0.0069  0.9947  0.6970
  102MOL    H9132613   0.004   5.773   1.169  0.2207  0.6127  1.2908
  102MOL    H9232614   8.349   5.328   0.987  0.2529  1.7558 -0.9320
  102MOL    H9332615   8.335   5.181   1.175  2.2985 -0.2294  0.6175
  102MOL    H9432616   8.368   5.262   1.403 -1.0828 -0.5074  0.2710
  102MOL    H9532617   8.406   5.510   1.445 -0.6527  2.8222 -0.5603
  102MOL    H9632618   0.117   5.674   1.441 -1.4386 -0.2310 -0.1968
  102MOL    H9732619   0.073   5.838   1.413 -1.0253  0.7625  0.4462
  102MOL    C9832620   0.238   5.781   1.297  0.0906 -0.1115 -0.6817
  102MOL    C9932621   0.286   5.679   1.189  1.2073 -0.4072 -0.9517
  102MOL   C10032622   0.275   5.711   1.054 -0.3343 -0.0440 -0.0904
  102MOL  Cl10132623   0.220   5.864   0.991 -0.1504 -0.2414 -0.2004
  102MOL   C10232624   0.305   5.609   0.960  0.3401  0.2311 -0.2794
  102MOL   C10332625   0.326   5.474   1.002 -0.3163  0.1363  0.5873
  102MOL   C10432626   0.344   5.447   1.136 -0.6807 -0.1775 -0.2846
  102MOL   C10532627   0.327   5.551   1.232  0.1387  0.0299 -0.5253
  102MOL   C10632628   0.354   5.824   1.393 -0.9277 -0.6491 -0.0204
  102MOL   H10732629   0.215   5.872   1.241 -0.9771  0.5125  0.7393
  102MOL   H10832630   0.305   5.627   0.853 -1.4647  0.6568 -0.2123
  102MOL   H10932631   0.340   5.398   0.927  1.4085  1.7580 -0.7917
  102MOL   H11032632   0.357   5.346   1.170 -0.1084  0.5504  1.7677
  102MOL   H11132633   0.314   5.525   1.336 -1.1458 -1.1464 -0.9672
  102MOL   H11232634   0.399   5.746   1.453 -1.4513  0.0376  1.2729
  102MOL   H11332635   0.313   5.877   1.479 -1.3091  2.3871 -1.9874
  102MOL   C11432636   0.475   5.916   1.335 -0.2031  0.0486  0.4763
  102MOL   C11532637   0.561   5.968   1.457  0.7202  0.7647 -0.0248
  102MOL   C11632638   0.678   5.893   1.499 -0.0906 -0.5871 -0.0725
  102MOL  Cl11732639   0.756   5.775   1.393 -0.1092  0.0168 -0.4560
  102MOL   C11832640   0.754   5.939   1.610 -0.2981  0.1301 -0.7711
  102MOL   C11932641   0.696   6.040   1.690 -0.0267 -0.2008  0.2798
  102MOL   C12032642   0.576   6.108   1.656  0.5631  0.4053  0.1271
  102MOL   C12132643   0.515   6.075   1.539 -0.1549  0.0460 -0.0545
  102MOL   C12232644   0.429   6.032   1.244 -0.1977  0.3075  0.6264
  102MOL   H12332645   0.535   5.848   1.274 -0.1605  0.0425  0.5250
  102MOL   H12432646   0.838   5.881   1.645  1.5665  2.2137 -1.6697
  102MOL   H12532647   0.750   6.068   1.779  1.2372 -0.5011 -0.3855
  102MOL   H12632648   0.528   6.181   1.720 -2.9999 -0.3849 -1.5075
  102MOL   H12732649   0.422   6.121   1.509 -0.0199  1.0019  0.9685
  102MOL   H12832650   0.332   6.073   1.271 -0.1913  0.5378  0.3086
  102MOL   H12932651   0.406   5.972   1.156  1.5024 -1.0370  1.0683
  102MOL   C13032652   0.530   6.144   1.216  0.1443  0.5632 -0.4630
  102MOL   C13132653   0.474   6.245   1.114 -0.1085  0.0730  0.7213
  102MOL   C13232654   0.418   6.370   1.150 -0.2106 -0.2318  0.0616
  102MOL  Cl13332655   0.420   6.430   1.314  0.0076  0.1886 -0.0771
  102MOL   C13432656   0.375   6.467   1.055  0.3417 -0.5519  0.7159
  102MOL   C13532657   0.381   6.434   0.916 -0.3345 -0.4263  0.2936
  102MOL   C13632658   0.430   6.307   0.877  1.0944  0.3173  0.4409
  102MOL   C13732659   0.481   6.214   0.972 -0.1389 -0.4018  0.0412
  102MOL   C13832660   0.673   6.088   1.185 -0.8639  0.2617 -0.6724
  102MOL   H13932661   0.542   6.194   1.312 -1.5263  1.6021 -0.7665
  102MOL   H14032662   0.348   6.563   1.096  2.8061  0.1014  0.8988
  102MOL   H14132663   0.350   6.504   0.841 -1.6836 -0.4621  0.8161
  102MOL   H14232664   0.443   6.277   0.774  1.9442 -2.0991  1.2100
  102MOL   H14332665   0.518   6.119   0.937 -0.6390 -0.0495 -1.4977
  102MOL   H14432666   0.664   6.017   1.104 -1.3032 -1.8707  1.1878
  102MOL   H14532667   0.708   6.036   1.275  2.9148  2.6353 -0.6497
  102MOL   C14632668   0.784   6.190   1.157  0.8745  0.6182 -0.3058
  102MOL   C14732669   0.899   6.118   1.083  0.3434 -0.2419  0.2799
  102MOL   C14832670   0.919   6.133   0.948 -0.2674 -0.0314  0.0940
  102MOL  Cl14932671   0.814   6.226   0.852  0.3293 -0.2178  0.0708
  102MOL   C15032672   1.030   6.067   0.885 -0.6569 -0.3487  0.0609
  102MOL   C15132673   1.109   5.974   0.957  0.1884 -0.1419 -0.4468
  102MOL   C15232674   1.085   5.958   1.096  0.6719  0.9522  1.0517
  102MOL   C15332675   0.978   6.027   1.151 -0.8027 -0.1957  0.4878
  102MOL   C15432676   0.833   6.259   1.288  0.3037 -0.1656 -0.5597
  102MOL   H15532677   0.737   6.267   1.097 -1.0649  1.2975  2.0061
  102MOL   H15632678   1.048   6.071   0.778  2.3663 -1.0515  0.4808
  102MOL   H15732679   1.197   5.922   0.922  1.5250  1.2250  0.8252
  102MOL   H15832680   1.138   5.880   1.149  1.9342  0.0841 -1.4212
  102MOL   H15932681   0.959   6.006   1.255  3.4467 -0.5208  1.2587
  102MOL   H16032682   0.879   6.189   1.358 -3.0091 -1.6096  0.3054
  102MOL   H16132683   0.746   6.305   1.335 -0.0424 -3.7131  2.5052
  102MOL   C16232684   0.929   6.374   1.269  0.0382  0.1216  0.6544
  102MOL   C16332685   1.006   6.397   1.399  0.4095 -0.0433  0.2796
  102MOL   C16432686   1.130   6.335   1.424  0.0161 -0.4818  0.0777
  102MOL  Cl16532687   1.199   6.232   1.303 -0.0225  0.2444 -0.3295
  102MOL   C16632688   1.205   6.365   1.539 -0.4831 -0.3484  0.4795
  102MOL   C16732689   1.147   6.445   1.640  0.1744 -0.1371 -0.1253
  102MOL   C16832690   1.021   6.495   1.621  0.4324  0.3972  0.6161
  102MOL   C16932691   0.946   6.471   1.503 -0.0892 -0.3055  0.1803
  102MOL   C17032692   0.859   6.506   1.217 -0.1074  0.2014 -0.0013
  102MOL   H17132693   1.006   6.351   1.196  0.0214 -1.4977  1.1101
  102MOL   H17232694   1.308   6.334   1.545 -0.0161  0.8889 -0.8698
  102MOL   H17332695   1.201   6.465   1.732  0.5157  0.9975 -0.5626
  102MOL   H17432696   0.982   6.553   1.703 -0.8959 -2.8129  2.3734
  102MOL   H17532697   0.848   6.515   1.503 -0.2216 -0.5962  1.1324
  102MOL   H17632698   0.811   6.563   1.296 -0.8719 -0.5099  0.0549
  102MOL   H17732699   0.770   6.480   1.160 -0.7559  2.2888  0.0138
  102MOL   C17832700   0.936   6.615   1.139  0.9796  0.3543  0.4133
  102MOL   C17932701   0.986   6.574   1.001 -0.1614  0.2516  0.3961
  102MOL   C18032702   0.907   6.590   0.887  0.5271  0.0242  0.0013
  102MOL  Cl18132703   0.744   6.653   0.887  0.1274  0.1276 -0.1122
  102MOL   C18232704   0.963   6.548   0.764  0.1779 -0.4782 -0.2165
  102MOL   C18332705   1.084   6.484   0.754  0.1515  0.3507 -0.5909
  102MOL   C18432706   1.158   6.460   0.867 -0.1834 -0.0608  0.6687
  102MOL   C18532707   1.117   6.514   0.991  0.0763  0.0124 -0.0866
  102MOL   C18632708   1.054   6.682   1.215  0.7576  0.5077  0.0137
  102MOL   H18732709   0.867   6.698   1.128  1.5173  0.5634 -1.5398
  102MOL   H18832710   0.930   6.572   0.663 -0.9939 -0.9700  0.0375
  102MOL   H18932711   1.128   6.458   0.659 -1.3106 -1.5582 -0.7788
  102MOL   H19032712   1.252   6.406   0.876 -0.1803  0.0577  1.4430
  102MOL   H19132713   1.179   6.491   1.076  0.1483 -0.7215 -0.3366
  102MOL   H19232714   1.126   6.604   1.238 -1.2802 -1.0947  1.1450
  102MOL   H19332715   1.020   6.716   1.313 -1.5109  2.9633 -1.5379
  102MOL   C19432716   1.105   6.819   1.157 -0.7772 -0.2696 -0.0261
  102MOL   C19532717   1.229   6.810   1.058  0.2202  0.4987  0.0467
  102MOL   C19632718   1.224   6.871   0.929 -0.7801  0.3310  0.4895
  102MOL  Cl19732719   1.091   6.966   0.878 -0.0590 -0.1550  0.1569
  102MOL   C19832720   1.332   6.844   0.839 -0.4828 -0.2250  0.6369
  102MOL   C19932721   1.442   6.769   0.872 -1.0347  0.3482 -0.6399
  102MOL   C20032722   1.452   6.723   1.002  0.0548  0.0363 -0.5130
  102MOL   C20132723   1.347   6.747   1.093 -0.2396  0.5769  0.1031
  102MOL   C20232724   1.139   6.915   1.269  0.2333 -0.6446  0.4837
  102MOL   H20332725   1.017   6.864   1.110  0.1251 -0.7041 -2.1821
  102MOL   H20432726   1.337   6.889   0.741  1.1161  1.9342  1.6780
  102MOL   H20532727   1.527   6.753   0.807 -0.3661  2.8089 -0.4193
  102MOL   H20632728   1.535   6.665   1.038 -0.3898 -0.0713  0.3633
  102MOL   H20732729   1.352   6.702   1.191 -1.1198 -1.7678 -0.8820
  102MOL   H20832730   1.192   7.007   1.245 -0.8190 -0.4127 -1.0171
  102MOL   H20932731   1.220   6.863   1.321  0.5476 -1.7291 -1.0762
  102MOL   C21032732   1.035   6.958   1.381  0.5737  0.6368 -0.5053
  102MOL   C21132733   0.895   6.944   1.325  0.1726  0.0073 -0.7706
  102MOL   C21232734   0.806   6.855   1.390  0.0058 -0.6799 -0.8314
  102MOL  Cl21332735   0.851   6.778   1.540  0.2109 -0.0668 -0.2645
  102MOL   C21432736   0.675   6.839   1.336  0.3984  0.1683 -0.1981
  102MOL   C21532737   0.643   6.903   1.213  0.4443  0.1122 -0.3780
  102MOL   C21632738   0.731   6.996   1.150  0.2797  0.0162 -0.2926
  102MOL   C21732739   0.854   7.020   1.215  0.1571 -0.1901 -0.8187
  102MOL   C21832740   1.071   7.095   1.446  0.3370 -0.5806 -0.0516
  102MOL   H21932741   1.047   6.882   1.457 -1.9075 -1.1885 -1.8460
  102MOL   H22032742   0.606   6.774   1.386  0.9890 -0.4365 -0.1610
  102MOL   H22132743   0.548   6.895   1.164  0.5747  0.9661 -0.7728
  102MOL   H22232744   0.700   7.052   1.064 -2.3656 -1.2808 -0.2332
  102MOL   H22332745   0.930   7.083   1.170 -1.0057  0.9122 -1.2745
  102MOL   H22432746   0.982   7.133   1.495  0.6025  2.9890 -2.1684
  102MOL   H22532747   1.075   7.157   1.356 -0.9590  0.1648  0.3924
  102MOL   C22632748   1.196   7.102   1.536 -0.3234 -0.0744 -0.2433
  102MOL   C22732749   1.181   7.014   1.661 -0.0659 -0.0529 -0.3642
  102MOL   C22832750   1.245   6.890   1.668  0.3791 -0.1828 -0.0576
  102MOL  Cl22932751   1.347   6.820   1.548  0.1576  0.3066 -0.2859
  102MOL   C23032752   1.228   6.812   1.780  0.6043  0.2291  0.4128
  102MOL   C23132753   1.152   6.851   1.892  0.1507  0.0943  0.4564
  102MOL   C23232754   1.081   6.974   1.885 -0.7101 -0.3660  0.2626
  102MOL   C23332755   1.090   7.050   1.767  0.1200 -0.9503 -0.2000
  102MOL   C23432756   1.238   7.248   1.570 -0.3303  0.2716 -0.2348
  102MOL   H23532757   1.283   7.061   1.484 -0.3096  3.1503 -3.0044
  102MOL   H23632758   1.283   6.720   1.791  1.5832  0.7696  0.0829
  102MOL   H23732759   1.167   6.795   1.983 -3.8545  1.0590  1.8267
  102MOL   H23832760   1.014   7.004   1.965  0.5066  0.0291  1.1571
  102MOL   H23932761   1.037   7.144   1.776 -0.0916 -1.0643 -0.2564
  102MOL   H24032762   1.151   7.296   1.615  0.9997  2.1412  0.3613
  102MOL   H24132763   1.258   7.296   1.474  0.6913  0.5951  0.1322
  102MOL   C24232764   1.350   7.267   1.671  0.2047  0.0204  0.2053
  102MOL   C24332765   1.366   7.414   1.692 -0.3318 -0.3803 -0.3262
  102MOL   C24432766   1.331   7.479   1.814 -0.2017 -0.4180  0.4730
  102MOL  Cl24532767   1.256   7.406   1.945 -0.1377 -0.1146  0.1962
  102MOL   C24632768   1.354   7.613   1.831  0.5652  0.1624  0.2756
  102MOL   C24732769   1.417   7.692   1.725  0.3472  0.0712  0.8194
  102MOL   C24832770   1.452   7.626   1.603 -0.0251 -0.0272  0.2703
  102MOL   C24932771   1.427   7.487   1.591 -0.7133 -0.1892 -0.0314
  102MOL   C25032772   1.477   7.187   1.626  0.2432 -0.0735  0.2186
  102MOL   H25132773   1.311   7.221   1.762 -0.9979 -1.3548 -0.9878
  102MOL   H25232774   1.331   7.657   1.927  1.6907  0.8361  0.2383
  102MOL   H25332775   1.439   7.798   1.732 -0.7201  0.1757  2.9266
  102MOL   H25432776   1.489   7.672   1.512  1.6828 -0.9408  0.4750
  102MOL   H25532777   1.447   7.437   1.497 -0.8742 -0.8368  0.2764
  102MOL   H25632778   1.485   7.214   1.520 -0.2543 -3.2887 -0.6923
  102MOL   H25732779   1.461   7.079   1.634 -0.2324 -0.2069 -2.1128
  102MOL   C25832780   1.607   7.225   1.704  0.3966 -0.5899  0.2011
  102MOL   C25932781   1.722   7.149   1.626 -0.4648 -0.3572  0.2471
  102MOL   C26032782   1.815   7.217   1.540 -0.5971  0.2038 -0.6584
  102MOL  Cl26132783   1.803   7.386   1.496 -0.2922 -0.0669  0.1785
  102MOL   C26232784   1.920   7.148   1.478 -0.3773  0.1518 -0.1464
  102MOL   C26332785   1.934   7.009   1.500  1.2546 -0.3428  0.7725
  102MOL   C26432786   1.846   6.944   1.588  0.5854 -0.0851  0.0476
  102MOL   C26532787   1.744   7.013   1.648  0.4425 -0.0359  0.8711
  102MOL   C26632788   1.601   7.204   1.858  0.4940 -0.2578  0.6740
  102MOL   H26732789   1.626   7.332   1.704 -0.3300 -0.4593 -0.3708
  102MOL   H26832790   1.992   7.205   1.422 -0.6239  0.7503  0.1339
  102MOL   H26932791   2.003   6.948   1.443  2.4060  1.1035  0.6025
  102MOL   H27032792   1.853   6.837   1.594  0.6389 -0.2769 -2.7332
  102MOL   H27132793   1.666   6.957   1.697  0.5455 -0.2468  0.7984
  102MOL   H27232794   1.643   7.103   1.857  0.0567 -0.4472 -1.1970
  102MOL   H27332795   1.497   7.206   1.891  0.1621 -0.6548 -0.3339
  102MOL   C27432796   1.697   7.292   1.939 -0.8310 -0.2861  0.8476
  102MOL   C27532797   1.834   7.285   1.883 -0.0891 -0.0023 -0.1624
  102MOL   C27632798   1.891   7.390   1.819  0.0566 -1.1525 -0.5796
  102MOL  Cl27732799   1.820   7.543   1.802 -0.2262  0.4644 -0.0723
  102MOL   C27832800   2.028   7.392   1.779 -0.1506 -0.6524 -0.1356
  102MOL   C27932801   2.100   7.275   1.776 -0.0922  0.1591 -0.4442
  102MOL   C28032802   2.046   7.156   1.829 -0.0038 -0.5004 -0.0005
  102MOL   C28132803   1.917   7.166   1.891 -0.0368  0.2795 -0.0219
  102MOL   C28232804   1.693   7.263   2.091 -0.3798  0.5329  0.0193
  102MOL   H28332805   1.652   7.391   1.931 -0.8693 -0.4771 -1.6688
  102MOL   H28432806   2.079   7.480   1.742 -1.2982 -0.2684 -0.8302
  102MOL   H28532807   2.197   7.273   1.730  0.6196  0.2685  1.0173
  102MOL   H28632808   2.096   7.061   1.839  3.2865  0.9363 -2.1676
  102MOL   H28732809   1.870   7.076   1.929  0.0362 -0.7608 -2.3368
  102MOL   H28832810   1.790   7.220   2.112 -1.1341  0.7289  4.2809
  102MOL   H28932811   1.625   7.179   2.109 -1.0253  0.5826 -2.0733
  102MOL   C29032812   1.651   7.378   2.190 -0.1240 -0.5756 -0.5927
  102MOL   C29132813   1.734   7.502   2.172  0.2133  0.9532 -0.0116
  102MOL   C29232814   1.682   7.631   2.158 -0.2705  0.2846 -0.1864
  102MOL  Cl29332815   1.509   7.661   2.165 -0.4601 -0.0677  0.1041
  102MOL   C29432816   1.768   7.739   2.142 -0.3932  0.1699  0.6557
  102MOL   C29532817   1.906   7.719   2.139  0.3530 -0.3463 -0.1416
  102MOL   C29632818   1.961   7.596   2.144  0.4643  0.4102 -0.5747
  102MOL   C29732819   1.872   7.484   2.161 -0.7408 -0.5362  0.3148
  102MOL   C29832820   1.650   7.339   2.343  0.1723 -0.5906 -0.1958
  102MOL   H29932821   1.547   7.396   2.163 -0.8705  0.3345  2.6803
  102MOL   H30032822   1.731   7.837   2.115  1.4115 -0.3023 -3.8407
  102MOL   H30132823   1.959   7.810   2.111  1.4349 -0.0662  2.6371
  102MOL   H30232824   2.068   7.596   2.127  0.5801  0.3051  0.1239
  102MOL   H30332825   1.925   7.390   2.170  1.6304  0.8413  1.4361
  102MOL   H30432826   1.696   7.424   2.393 -1.2598 -1.1861  2.2390
  102MOL   H30532827   1.717   7.254   2.361 -0.6734 -1.6849 -2.1191
  102MOL   C30632828   1.518   7.301   2.406  0.4914  0.0232  0.4665
  102MOL   C30732829   1.456   7.179   2.333 -0.5119 -0.3538  0.0459
  102MOL   C30832830   1.489   7.045   2.368  0.4297  0.3561  1.0563
  102MOL  Cl30932831   1.602   7.020   2.494 -0.1475 -0.2054 -0.0341
  102MOL   C31032832   1.451   6.931   2.285 -0.5753 -0.5599  0.5334
  102MOL   C31132833   1.368   6.954   2.175 -0.3173  0.0224  0.2468
  102MOL   C31232834   1.336   7.086   2.142 -0.3300 -0.3971 -0.6102
  102MOL   C31332835   1.376   7.199   2.222  0.2919 -0.0030  0.3401
  102MOL   C31432836   1.420   7.420   2.417 -0.0959 -0.1709  0.0943
  102MOL   H31532837   1.537   7.269   2.508 -0.0340 -1.2077  0.1928
  102MOL   H31632838   1.482   6.830   2.311  2.3486  0.0601 -0.3598
  102MOL   H31732839   1.339   6.868   2.117 -0.1145 -0.9461  1.5742
  102MOL   H31832840   1.282   7.107   2.051 -0.4062 -1.1826 -0.7544
  102MOL   H31932841   1.342   7.295   2.186  0.6848  0.7665  1.9905
  102MOL   H32032842   1.464   7.496   2.482  1.8713 -0.9579 -0.2694
  102MOL   H32132843   1.331   7.389   2.472 -0.3775  0.3391 -0.0702
  102MOL   H32232844   1.395   7.466   2.322 -1.5157  0.6472  0.8431
  103MOL     C132845   8.198   2.168   5.284  0.2283  0.0719  0.4162
  103MOL     C232846   8.192   2.098   5.419 -0.2462 -0.5234  0.1212
  103MOL     C332847   8.277   2.141   5.522  0.4611 -0.2190 -1.2582
  103MOL    Cl432848   8.391   2.273   5.518  0.4056  0.1183  0.1140
  103MOL     C532849   8.275   2.060   5.639  0.4801 -0.5495 -0.6925
  103MOL     C632850   8.196   1.942   5.646  0.1553  0.5156 -1.0109
  103MOL     C732851   8.116   1.903   5.541  0.1339  0.1804 -0.8105
  103MOL     C832852   8.119   1.981   5.425  0.0179 -0.5600 -0.7858
  103MOL     C932853   8.322   2.126   5.199 -0.4211 -0.1770  0.0945
  103MOL    H1032854   8.117   2.135   5.218  0.9729  1.2225 -1.1159
  103MOL    H1132855   8.343   2.080   5.721 -1.7176  1.2220  0.7703
  103MOL    H1232856   8.197   1.878   5.734 -1.4390 -0.9748 -2.0442
  103MOL    H1332857   8.042   1.825   5.553  1.2136 -0.8410 -0.7194
  103MOL    H1432858   8.065   1.948   5.337 -0.3452 -0.3218 -0.6513
  103MOL    H1532859   8.316   2.023   5.167 -1.7347  0.5878 -2.2341
  103MOL    H1632860   8.414   2.124   5.258 -2.9342 -0.6751  4.1761
  103MOL    H1732861   8.200   2.276   5.297 -1.6491  0.3653 -1.4458
  103MOL    C1832862   8.349   2.212   5.071 -0.3454  0.3272  0.0780
  103MOL    C1932863   0.025   2.138   4.975  0.4648  0.1622  0.3252
  103MOL    C2032864   8.398   2.085   4.853  0.1315  0.3297  0.3846
  103MOL   Cl2132865   8.241   2.108   4.792 -0.6616 -0.2616 -0.0260
  103MOL    C2232866   0.061   2.003   4.771  0.1954  0.4898 -1.0825
  103MOL    C2332867   0.197   2.000   4.804 -0.0049  0.3077 -0.8405
  103MOL    C2432868   0.241   2.043   4.928 -0.2256  0.2003  1.2644
  103MOL    C2532869   0.156   2.117   5.013 -0.4122  1.0084  0.0616
  103MOL    C2632870   8.391   2.359   5.099 -0.0985 -0.3738 -0.0903
  103MOL    H2732871   8.254   2.220   5.017 -0.0443 -1.8667 -0.8257
  103MOL    H2832872   0.023   1.956   4.681  1.6600 -0.1010 -1.4093
  103MOL    H2932873   0.262   1.937   4.744  0.2554  0.5686 -0.8345
  103MOL    H3032874   0.345   2.028   4.953 -0.6450 -1.1292  2.3011
  103MOL    H3132875   0.198   2.155   5.105  0.1049  0.2145  0.1563
  103MOL    H3232876   0.075   2.364   5.128  0.1490 -3.2689 -0.3899
  103MOL    H3332877   8.352   2.384   5.198  0.3907 -2.0348  0.5314
  103MOL    C3432878   8.365   2.467   4.986  0.8968 -0.5105 -0.1493
  103MOL    C3532879   0.004   2.438   4.844 -0.0722  0.4468 -1.0667
  103MOL    C3632880   8.351   2.430   4.724 -0.2656 -0.0273  0.0654
  103MOL   Cl3732881   8.179   2.426   4.728  0.3482  0.2951  0.1098
  103MOL    C3832882   0.006   2.412   4.601  0.3714  0.2246 -0.3811
  103MOL    C3932883   0.145   2.414   4.597  0.1945 -0.6497  0.3907
  103MOL    C4032884   0.215   2.433   4.714  0.0224  0.0941  0.7326
  103MOL    C4132885   0.144   2.440   4.839 -0.6181  0.2017  0.8815
  103MOL    C4232886   8.384   2.612   5.038 -0.2130  0.2215 -0.2810
  103MOL    H4332887   8.257   2.464   4.974  1.0221 -2.6445 -0.9551
  103MOL    H4432888   8.364   2.398   4.514  1.0439  2.1515 -1.1976
  103MOL    H4532889   0.203   2.401   4.507  0.7756 -3.0146  1.0814
  103MOL    H4632890   0.323   2.435   4.707 -0.0061 -0.4505  0.1607
  103MOL    H4732891   0.202   2.460   4.928 -1.4718  1.6336  1.1350
  103MOL    H4832892   8.303   2.648   5.101 -1.8053 -0.3822 -1.9310
  103MOL    H4932893   8.367   2.673   4.949  0.6279  1.0983  0.1440
  103MOL    C5032894   0.105   2.661   5.089 -0.2982  0.4107 -0.7431
  103MOL    C5132895   0.139   2.608   5.228 -0.0006 -0.2412  0.1091
  103MOL    C5232896   0.240   2.520   5.264  0.1368  0.3243  0.0910
  103MOL   Cl5332897   0.350   2.463   5.141  0.0127 -0.0970  0.5865
  103MOL    C5432898   0.269   2.488   5.396  0.9633  0.0669  0.2658
  103MOL    C5532899   0.195   2.541   5.503 -0.0548  0.1333  0.2858
  103MOL    C5632900   0.087   2.620   5.466 -0.1631  0.3652  0.1315
  103MOL    C5732901   0.058   2.655   5.333  0.5382  0.1539 -0.2550
  103MOL    C5832902   0.116   2.818   5.093 -0.2730  0.6572 -0.0422
  103MOL    H5932903   0.186   2.634   5.021  0.5680  2.3210 -0.5160
  103MOL    H6032904   0.332   2.401   5.411  1.0387  0.3839  1.8856
  103MOL    H6132905   0.205   2.514   5.608  1.2174 -0.2837  0.0624
  103MOL    H6232906   0.011   2.651   5.537 -1.3607  0.1035 -1.0064
  103MOL    H6332907   8.397   2.719   5.304  0.3690 -0.2635 -0.7216
  103MOL    H6432908   0.197   2.844   5.161  0.2271 -2.3485  0.5808
  103MOL    H6532909   0.029   2.859   5.144 -0.7590  0.7277 -0.9078
  103MOL    C6632910   0.141   2.895   4.955 -0.1757  1.0415  0.7412
  103MOL    C6732911   0.269   2.840   4.885 -0.5097  0.4367 -0.4175
  103MOL    C6832912   0.265   2.779   4.761 -0.0686 -0.6989  0.0251
  103MOL   Cl6932913   0.124   2.776   4.657 -0.6449  0.3810 -0.2093
  103MOL    C7032914   0.384   2.720   4.717 -0.4439 -0.0168 -0.3943
  103MOL    C7132915   0.509   2.723   4.789  0.0222 -0.2869  0.4415
  103MOL    C7232916   0.511   2.788   4.916  0.1654 -0.0721 -0.5096
  103MOL    C7332917   0.390   2.844   4.961 -0.8552 -0.1452 -0.0578
  103MOL    C7432918   0.146   3.048   4.973 -0.0883  0.2201  0.2607
  103MOL    H7532919   0.050   2.858   4.907 -0.0455 -0.2835  1.4889
  103MOL    H7632920   0.384   2.666   4.624  0.2052  1.1514 -1.0894
  103MOL    H7732921   0.597   2.675   4.747  1.7011  1.2873  2.1031
  103MOL    H7832922   0.607   2.806   4.962  0.1596 -1.3596  0.0353
  103MOL    H7932923   0.386   2.900   5.053  1.8792 -2.2135  1.3943
  103MOL    H8032924   0.188   3.094   4.884 -3.3093  0.8401 -1.0126
  103MOL    H8132925   0.217   3.067   5.054  2.1772  4.4744 -2.5591
  103MOL    C8232926   0.010   3.126   4.995 -0.1128  0.1315  0.3716
  103MOL    C8332927   8.348   3.124   4.862  0.1198  0.4775 -0.5182
  103MOL    C8432928   8.242   3.029   4.848 -0.6059 -0.1059  0.0093
  103MOL   Cl8532929   8.194   2.924   4.980  0.0891  0.0723 -0.1861
  103MOL    C8632930   8.171   3.016   4.728  0.1479 -0.9861  0.7109
  103MOL    C8732931   8.188   3.105   4.621  0.0733 -0.6327 -1.1593
  103MOL    C8832932   8.292   3.197   4.632 -0.1539  0.5924  0.0640
  103MOL    C8932933   8.374   3.209   4.753 -0.5063 -0.5807  0.1120
  103MOL    C9032934   0.049   3.268   5.044  0.1406 -0.1005 -0.1084
  103MOL    H9132935   8.365   3.078   5.068  1.9047  1.3269  3.0970
  103MOL    H9232936   8.090   2.946   4.719 -1.3624  0.2394  4.0467
  103MOL    H9332937   8.125   3.100   4.534 -0.6230 -0.8900 -0.6475
  103MOL    H9432938   8.326   3.255   4.547  2.7403  0.6698  1.2231
  103MOL    H9532939   0.032   3.284   4.755  0.0544 -1.1780  0.6118
  103MOL    H9632940   8.396   3.337   5.003  0.8215  0.5281 -0.2791
  103MOL    H9732941   0.140   3.301   4.994  0.0715 -0.5800 -0.5613
  103MOL    C9832942   0.059   3.290   5.198  0.0382 -0.1608 -0.5947
  103MOL    C9932943   8.337   3.264   5.256  0.6984  0.5493  0.4434
  103MOL   C10032944   8.316   3.155   5.343 -0.6837  0.0283  0.2086
  103MOL  Cl10132945   0.022   3.041   5.371 -0.1025 -0.2058  0.0958
  103MOL   C10232946   8.192   3.129   5.407 -0.1576  0.3746  0.1786
  103MOL   C10332947   8.088   3.217   5.370  0.6424  0.0352  0.1430
  103MOL   C10432948   8.110   3.333   5.288 -0.4550 -0.5637  0.2854
  103MOL   C10532949   8.234   3.351   5.236 -0.3714 -0.3260 -0.0069
  103MOL   C10632950   0.102   3.429   5.248 -0.1162 -0.0595 -0.0238
  103MOL   H10732951   0.133   3.222   5.241 -0.1807 -0.6977 -1.0737
  103MOL   H10832952   8.168   3.046   5.471  0.8423  0.1935  0.3327
  103MOL   H10932953   7.991   3.203   5.415  0.7329  0.3931  0.4515
  103MOL   H11032954   8.033   3.406   5.268  0.6046  0.4063 -0.2908
  103MOL   H11132955   8.243   3.436   5.169 -1.0724 -2.3086 -2.6778
  103MOL   H11232956   0.034   3.496   5.196  1.1359  0.5668 -0.8930
  103MOL   H11332957   0.201   3.444   5.204  0.5291  2.6875  2.2620
  103MOL   C11432958   0.104   3.466   5.402 -0.9893  0.1748  0.1517
  103MOL   C11532959   0.129   3.620   5.417 -0.2693 -0.3696  0.1075
  103MOL   C11632960   0.021   3.709   5.404  0.2595 -0.0935  1.0521
  103MOL  Cl11732961   8.278   3.666   5.386  0.3425 -0.4062  0.2513
  103MOL   C11832962   0.042   3.847   5.404  0.1421 -0.1851 -0.1021
  103MOL   C11932963   0.176   3.902   5.416 -0.0497  0.9565  0.5727
  103MOL   C12032964   0.282   3.815   5.404  0.4781 -0.0040  0.4540
  103MOL   C12132965   0.262   3.675   5.417  0.1234  0.6537  0.6186
  103MOL   C12232966   0.207   3.374   5.469  0.1122  0.6775 -0.0821
  103MOL   H12332967   0.007   3.439   5.444 -0.1500  1.8846  3.3444
  103MOL   H12432968   8.384   3.918   5.421  0.7968  0.3144  0.9057
  103MOL   H12532969   0.191   4.009   5.419  2.7176  0.7044 -1.2641
  103MOL   H12632970   0.381   3.852   5.383  0.4545 -1.1475 -1.8190
  103MOL   H12732971   0.342   3.603   5.415 -0.1355  0.3655  0.4073
  103MOL   H12832972   0.295   3.404   5.414  0.4704  0.8455  0.5751
  103MOL   H12932973   0.202   3.268   5.445  3.5167 -0.1748  2.4955
  103MOL   C13032974   0.225   3.394   5.626 -0.6098 -0.0868  0.5321
  103MOL   C13132975   0.358   3.453   5.677  0.1485  0.5194 -0.1003
  103MOL   C13232976   0.354   3.566   5.761  0.6061  0.7890  0.0014
  103MOL  Cl13332977   0.209   3.639   5.823  0.4344  0.7575 -0.0509
  103MOL   C13432978   0.480   3.617   5.798  0.6619  0.2433  0.8334
  103MOL   C13532979   0.605   3.560   5.752  0.2660  0.1647 -0.7536
  103MOL   C13632980   0.601   3.444   5.671 -0.3052 -0.6599 -0.4054
  103MOL   C13732981   0.478   3.389   5.646 -0.3175 -0.3949  1.2757
  103MOL   C13832982   0.203   3.258   5.698 -0.2813 -0.0433 -0.2094
  103MOL   H13932983   0.140   3.453   5.662  0.1434  1.2106  0.2301
  103MOL   H14032984   0.487   3.706   5.858  0.6433  1.1213 -0.4546
  103MOL   H14132985   0.702   3.599   5.781  0.6725 -0.5708 -1.0861
  103MOL   H14232986   0.688   3.392   5.635 -0.5630 -2.1049  1.0161
  103MOL   H14332987   0.470   3.302   5.584  3.5466  0.3922 -0.5067
  103MOL   H14432988   0.247   3.256   5.797 -1.1155 -2.1895  0.1486
  103MOL   H14532989   0.250   3.186   5.631  0.7507  0.6657 -0.2679
  103MOL   C14632990   0.054   3.217   5.716 -0.5912  0.4191 -0.2901
  103MOL   C14732991   8.411   3.305   5.824 -0.8701 -0.0906  0.5958
  103MOL   C14832992   8.322   3.408   5.788  0.0547 -0.3432 -0.0751
  103MOL  Cl14932993   8.252   3.428   5.636  0.3012 -0.2202 -0.3195
  103MOL   C15032994   8.277   3.498   5.889 -0.2065 -0.8105 -0.4537
  103MOL   C15132995   8.318   3.491   6.024  0.5003  0.1279  0.4515
  103MOL   C15232996   8.407   3.392   6.063  0.3017  0.7795 -0.2911
  103MOL   C15332997   0.033   3.297   5.967  0.4874  0.1613 -0.0120
  103MOL   C15432998   0.030   3.066   5.746 -0.1810 -0.5168 -0.0691
  103MOL   H15532999   0.005   3.236   5.620 -1.6619 -1.4738 -0.1398
  103MOL   H15633000   8.209   3.577   5.859  1.0730  0.0339 -1.1650
  103MOL   H15733001   8.277   3.566   6.090 -1.8089 -1.1983  0.5743
  103MOL   H15833002   0.006   3.383   6.169 -2.4791 -0.4981  0.1686
  103MOL   H15933003   0.096   3.216   6.000 -0.5282 -1.2969 -1.5541
  103MOL   H16033004   0.119   3.041   5.804 -0.3944  0.1285  0.5378
  103MOL   H16133005   0.028   3.009   5.653 -0.1459  1.4193 -1.2871
  103MOL   C16233006   8.327   3.032   5.833  0.3932 -0.2313  1.0466
  103MOL   C16333007   8.332   2.893   5.894 -0.6835 -0.3422  0.5960
  103MOL   C16433008   8.322   2.860   6.032  0.5912  0.5718  0.0938
  103MOL  Cl16533009   8.306   2.984   6.150  0.1433 -0.1275 -0.1379
  103MOL   C16633010   8.329   2.728   6.078 -0.0346  0.1446 -0.1439
  103MOL   C16733011   8.359   2.620   5.993  0.3277 -0.0717  0.0204
  103MOL   C16833012   8.367   2.653   5.857 -0.2470  0.3346  0.0177
  103MOL   C16933013   8.357   2.784   5.811  0.2890  0.0111  0.7479
  103MOL   C17033014   8.195   3.039   5.749 -0.6141  0.2586 -0.4588
  103MOL   H17133015   8.323   3.094   5.922  0.7882 -1.0478  1.6395
  103MOL   H17233016   8.310   2.707   6.183  0.5795 -0.8793 -0.2352
  103MOL   H17333017   8.362   2.519   6.033 -3.5288 -0.2689 -0.0413
  103MOL   H17433018   8.376   2.561   5.800  0.5097  0.5998 -0.2972
  103MOL   H17533019   8.372   2.801   5.706 -1.0259 -1.2618  0.3332
  103MOL   H17633020   8.181   2.960   5.675  1.2370 -0.2928 -0.2462
  103MOL   H17733021   8.191   3.126   5.683  0.5341  1.6070  1.2199
  103MOL   C17833022   8.067   3.044   5.845 -0.0861  0.5156 -0.6066
  103MOL   C17933023   7.947   2.982   5.768 -0.0377 -0.1374 -0.4723
  103MOL   C18033024   7.887   2.857   5.804 -0.6039  0.2318 -0.5164
  103MOL  Cl18133025   7.940   2.766   5.940  0.1456  0.3685  0.0683
  103MOL   C18233026   7.781   2.811   5.722 -0.4575 -0.6861  0.0872
  103MOL   C18333027   7.733   2.886   5.610 -0.4180 -0.1384  0.3627
  103MOL   C18433028   7.794   3.007   5.582 -0.7432 -0.2772 -0.2764
  103MOL   C18533029   7.900   3.056   5.658 -0.2496  0.8876 -0.3811
  103MOL   C18633030   8.041   3.186   5.908 -0.0089  0.5877  0.1855
  103MOL   H18733031   8.089   2.974   5.926 -0.4802  1.1145  0.0266
  103MOL   H18833032   7.738   2.714   5.745 -0.1703 -0.7335  0.4251
  103MOL   H18933033   7.644   2.855   5.557 -0.9223  2.6704 -0.5466
  103MOL   H19033034   7.752   3.073   5.507 -1.0922 -1.3398 -1.0145
  103MOL   H19133035   7.950   3.149   5.635  0.3656  0.6832  0.1233
  103MOL   H19233036   8.042   3.252   5.822  5.0515 -0.2865 -0.5609
  103MOL   H19333037   8.128   3.213   5.968 -0.3816 -1.5626  1.7390
  103MOL   C19433038   7.917   3.186   5.998  0.0642  0.0722  0.2231
  103MOL   C19533039   7.869   3.333   6.012 -0.1061  0.2747 -0.1663
  103MOL   C19633040   7.751   3.383   5.957 -0.0818 -0.5583 -0.4357
  103MOL  Cl19733041   7.640   3.281   5.873  0.3779 -0.0397  0.0410
  103MOL   C19833042   7.718   3.520   5.969  0.0414  0.0203  0.0823
  103MOL   C19933043   7.801   3.608   6.040 -0.2887 -0.0503 -0.1735
  103MOL   C20033044   7.915   3.556   6.108  0.4475  0.3309 -0.2340
  103MOL   C20133045   7.949   3.423   6.090 -1.2592 -0.3804 -0.0342
  103MOL   C20233046   7.941   3.111   6.132  0.2544  0.0316 -0.1853
  103MOL   H20333047   7.837   3.135   5.944  0.9783 -0.1485 -0.9479
  103MOL   H20433048   7.625   3.553   5.926 -0.3520  0.7597  1.4837
  103MOL   H20533049   7.777   3.713   6.044 -2.8675 -0.6246  0.1736
  103MOL   H20633050   7.986   3.624   6.153  0.8751 -0.8865  0.9495
  103MOL   H20733051   8.046   3.395   6.131 -0.7851 -1.0234 -1.5598
  103MOL   H20833052   8.031   3.145   6.183 -0.0101 -2.1290  1.7706
  103MOL   H20933053   7.966   3.008   6.108 -1.6532 -0.7266  0.9508
  103MOL   C21033054   7.812   3.120   6.224 -0.1126  0.2038 -0.1433
  103MOL   C21133055   7.842   3.097   6.366  0.3352  0.2619  0.5494
  103MOL   C21233056   7.843   3.200   6.465 -0.0408  0.1156 -0.0584
  103MOL  Cl21333057   7.786   3.359   6.429  0.3404 -0.3122  0.7390
  103MOL   C21433058   7.877   3.173   6.598 -0.1454  0.2062 -0.6690
  103MOL   C21533059   7.940   3.051   6.629 -0.2639  0.0341 -0.3902
  103MOL   C21633060   7.947   2.945   6.531 -0.7699 -0.0724  0.4444
  103MOL   C21733061   7.895   2.971   6.400  0.4651 -0.5501 -0.1069
  103MOL   C21833062   7.703   3.029   6.158 -0.2041  0.7867 -0.1672
  103MOL   H21933063   7.769   3.220   6.212  1.1314  0.8812  0.8810
  103MOL   H22033064   7.870   3.249   6.674 -1.4785 -0.0276 -0.5535
  103MOL   H22133065   7.980   3.032   6.727  0.4456 -0.8227 -0.8491
  103MOL   H22233066   7.986   2.847   6.551 -1.0663 -0.2155  0.3348
  103MOL   H22333067   7.900   2.896   6.322 -0.0373 -1.5175  0.7794
  103MOL   H22433068   7.736   2.926   6.174 -2.3471  0.1068  0.1693
  103MOL   H22533069   7.695   3.034   6.049  0.0192 -3.1115 -0.4482
  103MOL   C22633070   7.554   3.044   6.209 -0.0584  0.5118  0.3517
  103MOL   C22733071   7.536   3.032   6.360  0.3693 -0.8363 -0.5059
  103MOL   C22833072   7.480   3.139   6.434 -0.4579  0.2465  0.1229
  103MOL  Cl22933073   7.410   3.277   6.364 -0.2468  0.1327  0.2463
  103MOL   C23033074   7.457   3.125   6.573  0.1447  0.5468 -0.3868
  103MOL   C23133075   7.487   3.008   6.636 -0.4720  0.5174  0.1196
  103MOL   C23233076   7.555   2.910   6.567  0.1641  0.3903  0.1574
  103MOL   C23333077   7.570   2.916   6.432  0.7353  0.2280  0.0394
  103MOL   C23433078   7.476   2.939   6.124 -0.2827  0.0880  0.2353
  103MOL   H23533079   7.510   3.137   6.172 -1.4889 -0.2668  0.1079
  103MOL   H23633080   7.418   3.209   6.629 -3.7115 -1.2448 -0.2637
  103MOL   H23733081   7.474   3.006   6.743 -0.9217 -2.4507  0.0596
  103MOL   H23833082   7.580   2.817   6.616  1.8172  1.2384  0.9335
  103MOL   H23933083   7.618   2.828   6.391 -0.3096 -0.6054  0.5777
  103MOL   H24033084   7.530   2.845   6.133  0.8564  0.7289  0.1969
  103MOL   H24133085   7.482   2.956   6.017 -1.5941 -1.2255 -0.0634
  103MOL   C24233086   7.332   2.911   6.170 -0.2970 -0.8063 -0.0041
  103MOL   C24333087   7.295   2.762   6.154  0.4393 -0.0805 -0.1766
  103MOL   C24433088   7.214   2.700   6.252  0.0808  0.7078  0.5554
  103MOL  Cl24533089   7.157   2.779   6.393 -0.4171  0.1080  0.0052
  103MOL   C24633090   7.185   2.560   6.254  0.4356  0.1131  0.2763
  103MOL   C24733091   7.221   2.489   6.135 -0.8974 -0.3643  0.2099
  103MOL   C24833092   7.313   2.544   6.042  0.4424 -0.0037 -0.0291
  103MOL   C24933093   7.343   2.678   6.055 -0.5107  0.0699 -0.3908
  103MOL   C25033094   7.217   2.994   6.098 -0.0801 -0.2306  0.1364
  103MOL   H25133095   7.325   2.938   6.275 -1.2572  0.1038 -0.2972
  103MOL   H25233096   7.134   2.508   6.334 -1.0326  2.7014  1.0867
  103MOL   H25333097   7.198   2.386   6.116 -0.5127 -0.5925  0.9632
  103MOL   H25433098   7.359   2.490   5.961 -0.3082  0.8262 -1.0242
  103MOL   H25533099   7.423   2.709   5.989  0.4426  1.5838  1.4384
  103MOL   H25633100   7.211   3.088   6.153 -0.8528  0.7204 -1.5170
  103MOL   H25733101   7.118   2.957   6.124 -0.0362 -1.9811 -2.0658
  103MOL   C25833102   7.228   3.025   5.950 -0.1169  0.3077  0.4037
  103MOL   C25933103   7.115   3.124   5.916 -0.3912 -0.0263  0.4993
  103MOL   C26033104   7.136   3.260   5.882 -0.8392  0.1758  0.6834
  103MOL  Cl26133105   7.300   3.335   5.894  0.2279  0.0146  0.3704
  103MOL   C26233106   7.036   3.351   5.837 -0.2622 -0.1661  0.1963
  103MOL   C26333107   6.903   3.298   5.819 -0.2109  0.1569 -0.0540
  103MOL   C26433108   6.884   3.163   5.852 -0.5347 -0.5509  0.6161
  103MOL   C26533109   6.986   3.076   5.900 -0.2632  0.0831  0.2685
  103MOL   C26633110   7.244   2.910   5.851 -0.6221  0.1429  0.4350
  103MOL   H26733111   7.321   3.081   5.937 -0.8842  1.0927 -1.9216
  103MOL   H26833112   7.053   3.456   5.819 -0.9800 -0.2790 -1.1730
  103MOL   H26933113   6.826   3.359   5.775  1.2502  1.4011 -0.9173
  103MOL   H27033114   6.785   3.123   5.835 -1.5054  1.1628  2.0334
  103MOL   H27133115   6.975   2.969   5.908  1.2565 -0.0260  1.0047
  103MOL   H27233116   7.181   2.824   5.872  1.6561 -1.2353  1.7839
  103MOL   H27333117   7.343   2.866   5.857  0.5364  2.5577 -0.3439
  103MOL   C27433118   7.230   2.947   5.696  0.1449  0.2600  0.3050
  103MOL   C27533119   7.206   2.821   5.609 -0.0955 -0.1006  0.1041
  103MOL   C27633120   7.097   2.800   5.518  0.3342  0.2303 -0.1334
  103MOL  Cl27733121   6.991   2.927   5.476  0.1565  0.4389 -0.3300
  103MOL   C27833122   7.078   2.675   5.446 -0.3938  0.2093  0.1859
  103MOL   C27933123   7.186   2.586   5.454 -0.1767 -0.5823  0.4532
  103MOL   C28033124   7.303   2.606   5.532  0.4943  0.2949  0.0002
  103MOL   C28133125   7.307   2.720   5.610 -0.1870  0.4260  0.1489
  103MOL   C28233126   7.344   3.033   5.647  0.2215  0.7919  0.0956
  103MOL   H28333127   7.137   3.004   5.693  1.1144  1.9032  0.5285
  103MOL   H28433128   6.997   2.650   5.379  0.7458  1.2243 -1.6350
  103MOL   H28533129   7.184   2.501   5.387 -1.7787 -1.2932  1.3916
  103MOL   H28633130   7.384   2.538   5.555  1.3616  1.4907  0.5301
  103MOL   H28733131   7.397   2.731   5.669  0.0791  4.5863 -0.8662
  103MOL   H28833132   7.431   2.968   5.653 -2.1663 -2.4422  0.6337
  103MOL   H28933133   7.376   3.119   5.705  0.9237 -0.0561  0.9701
  103MOL   C29033134   7.322   3.112   5.512  0.6113  0.3194 -0.5772
  103MOL   C29133135   7.454   3.166   5.453 -0.1352 -0.4600 -0.4487
  103MOL   C29233136   7.519   3.107   5.342 -0.1890 -0.1592 -0.1442
  103MOL  Cl29333137   7.458   2.967   5.251  0.1621  0.1897 -0.1592
  103MOL   C29433138   7.635   3.160   5.286  0.0472 -0.4496  0.1961
  103MOL   C29533139   7.693   3.274   5.339  0.2061  0.0215 -0.4861
  103MOL   C29633140   7.626   3.344   5.446  0.1275 -0.1690  0.3727
  103MOL   C29733141   7.510   3.292   5.501 -0.5095  0.4217  0.0709
  103MOL   C29833142   7.204   3.215   5.517  0.4384 -0.5532 -0.2420
  103MOL   H29933143   7.285   3.040   5.438  3.2225 -1.8777  0.1676
  103MOL   H30033144   7.684   3.107   5.206  2.0907  0.0810  1.0552
  103MOL   H30133145   7.785   3.306   5.292  1.0577 -1.3995  0.1871
  103MOL   H30233146   7.671   3.436   5.481  0.6334 -0.1358 -0.3349
  103MOL   H30333147   7.475   3.338   5.592  0.5464  1.7689 -0.1737
  103MOL   H30433148   7.221   3.296   5.588 -1.6965 -0.8894  0.6873
  103MOL   H30533149   7.117   3.165   5.560  0.3791  0.6875  1.1387
  103MOL   C30633150   7.179   3.296   5.386  0.7390 -0.5122 -0.0668
  103MOL   C30733151   7.069   3.403   5.394 -0.7718  0.5984  0.6013
  103MOL   C30833152   7.097   3.536   5.352 -0.1824 -0.4297  0.3722
  103MOL  Cl30933153   7.246   3.577   5.283  0.2366 -0.2819 -0.2356
  103MOL   C31033154   6.992   3.634   5.366  0.3456 -0.2558 -0.0330
  103MOL   C31133155   6.869   3.603   5.419  0.1929  0.6961  0.0130
  103MOL   C31233156   6.844   3.470   5.458 -0.1445  0.4342  0.2910
  103MOL   C31333157   6.943   3.373   5.442 -0.4805  0.3054 -0.1871
  103MOL   C31433158   7.140   3.203   5.274  0.6246  0.0497  0.0745
  103MOL   H31533159   7.272   3.347   5.359  0.1519  0.8736  0.5086
  103MOL   H31633160   6.996   3.736   5.330  0.9717  0.3526  1.7099
  103MOL   H31733161   6.789   3.675   5.417 -0.4999  0.0486  3.0356
  103MOL   H31833162   6.747   3.440   5.495  0.4244 -2.8933 -0.7953
  103MOL   H31933163   6.935   3.274   5.485  1.3629  0.0476 -0.3902
  103MOL   H32033164   7.123   3.258   5.181 -0.5572 -1.3126 -0.5375
  103MOL   H32133165   7.054   3.139   5.296  2.2237 -2.4845 -0.8575
  103MOL   H32233166   7.223   3.137   5.253 -0.1961 -1.2731  0.9036
  104MOL     C133167   1.368   6.612   0.034 -0.6043  0.2515  0.0926
  104MOL     C233168   1.287   6.492   0.086 -0.2038  0.0217  0.3377
  104MOL     C333169   1.327   6.362   0.111  0.6430 -0.5156 -0.1380
  104MOL    Cl433170   1.489   6.319   0.072  0.4708 -0.0766 -0.2274
  104MOL     C533171   1.241   6.260   0.166 -0.5992  0.1389  0.3903
  104MOL     C633172   1.111   6.294   0.200  0.9293 -0.1978  0.2889
  104MOL     C733173   1.064   6.424   0.182  0.1949  0.1018 -0.2503
  104MOL     C833174   1.157   6.519   0.132  0.5026 -0.1994  0.0355
  104MOL     C933175   1.442   6.669   0.148  0.1153 -0.0388  0.0100
  104MOL    H1033176   1.440   6.571   8.384  0.0050 -0.4076  1.0887
  104MOL    H1133177   1.280   6.162   0.193  0.2051  0.5458  0.7332
  104MOL    H1233178   1.049   6.215   0.239  1.4790 -0.3916  0.7821
  104MOL    H1333179   0.963   6.453   0.204  0.4043  0.1103  0.7397
  104MOL    H1433180   1.118   6.619   0.122 -1.4456 -0.6347  2.7003
  104MOL    H1533181   1.533   6.613   0.169  1.5201  1.0887 -2.9060
  104MOL    H1633182   1.384   6.653   0.240  1.2802 -0.5892  0.6624
  104MOL    H1733183   1.299   6.675   8.397 -0.5699 -0.2340 -0.4873
  104MOL    C1833184   1.453   6.823   0.140 -0.3387  0.1463  0.1267
  104MOL    C1933185   1.526   6.870   0.018  0.6860  0.4191 -0.3779
  104MOL    C2033186   1.475   6.971   8.354 -0.4245  0.2701  0.4242
  104MOL   Cl2133187   1.323   7.049   8.375 -0.5166  0.1968 -0.0858
  104MOL    C2233188   1.543   7.011   8.243  0.9823  0.3493  0.3810
  104MOL    C2333189   1.670   6.952   8.204  0.4561  0.1288  0.5037
  104MOL    C2433190   1.719   6.850   8.292  0.4854 -0.5360  0.0347
  104MOL    C2533191   1.642   6.804   8.401 -0.4736 -0.5254  0.1548
  104MOL    C2633192   1.516   6.900   0.261 -0.2876  0.0875 -0.5144
  104MOL    H2733193   1.354   6.869   0.137  0.1854  1.2567 -0.6922
  104MOL    H2833194   1.507   7.086   8.174  1.5058  1.4595  1.3035
  104MOL    H2933195   1.725   6.987   8.118  0.5199 -0.2245  0.4016
  104MOL    H3033196   1.818   6.811   8.272  1.0165  0.0403  1.4901
  104MOL    H3133197   1.683   6.721   0.036 -2.0337 -0.7842  0.9226
  104MOL    H3233198   1.526   7.008   0.247 -2.1876  0.3141 -0.2652
  104MOL    H3333199   1.616   6.858   0.262 -0.5756 -0.6134  2.6417
  104MOL    C3433200   1.469   6.863   0.396  0.1949  0.4917 -0.4036
  104MOL    C3533201   1.341   6.944   0.443  0.4601 -0.3817  0.4974
  104MOL    C3633202   1.216   6.877   0.467  0.4071  0.3176  0.1346
  104MOL   Cl3733203   1.188   6.706   0.436 -0.0576 -0.2305  0.0712
  104MOL    C3833204   1.105   6.951   0.518  0.0954  0.3778  0.1258
  104MOL    C3933205   1.117   7.086   0.538 -0.0594  0.2697 -0.4236
  104MOL    C4033206   1.243   7.146   0.533 -0.6823 -0.9856  0.4507
  104MOL    C4133207   1.351   7.082   0.485  0.2783 -0.2677 -0.1440
  104MOL    C4233208   1.580   6.896   0.506  0.8945 -0.0933 -0.3064
  104MOL    H4333209   1.443   6.757   0.406  0.8482  0.2582 -1.0903
  104MOL    H4433210   1.011   6.901   0.535  0.1581  0.1670 -0.1392
  104MOL    H4533211   1.034   7.142   0.580 -1.6637 -0.4467 -2.5484
  104MOL    H4633212   1.245   7.252   0.555  0.6368 -0.4210 -2.1832
  104MOL    H4733213   1.444   7.135   0.480  0.1972 -0.2232 -1.3392
  104MOL    H4833214   1.533   6.880   0.602 -1.0800 -0.1480 -1.2540
  104MOL    H4933215   1.615   6.999   0.506 -0.3566  0.3389  0.8168
  104MOL    C5033216   1.710   6.812   0.514 -0.5214 -1.0424  0.3995
  104MOL    C5133217   1.678   6.666   0.480  0.3515  0.3720  0.4054
  104MOL    C5233218   1.735   6.595   0.368 -0.6114  0.0239 -0.2605
  104MOL   Cl5333219   1.843   6.677   0.260 -0.1371 -0.4608  0.1029
  104MOL    C5433220   1.711   6.461   0.343 -0.2819 -0.2407 -0.1932
  104MOL    C5533221   1.637   6.380   0.434 -0.3712  0.2185 -0.4082
  104MOL    C5633222   1.598   6.440   0.555 -0.6844  0.5925 -0.0646
  104MOL    C5733223   1.609   6.583   0.577 -0.5791 -0.2974 -0.0155
  104MOL    C5833224   1.778   6.835   0.650  0.4403 -0.2792  0.0040
  104MOL    H5933225   1.775   6.854   0.437 -0.1578 -0.7563  0.8680
  104MOL    H6033226   1.744   6.413   0.252 -3.5237 -1.4504 -0.7984
  104MOL    H6133227   1.604   6.280   0.408 -1.0068 -0.5539  3.0711
  104MOL    H6233228   1.521   6.388   0.610  0.7049 -2.3001 -0.7856
  104MOL    H6333229   1.554   6.630   0.656  2.1993  2.0110  0.5937
  104MOL    H6433230   1.716   6.816   0.738  0.4256  0.2768  0.1104
  104MOL    H6533231   1.807   6.939   0.658  0.1125 -0.2104  0.3246
  104MOL    C6633232   1.912   6.750   0.670  0.4592  0.0595  0.2764
  104MOL    C6733233   1.969   6.772   0.811  0.1619 -0.2178  0.4944
  104MOL    C6833234   1.965   6.667   0.903 -0.0475 -0.2411  0.4318
  104MOL   Cl6933235   1.897   6.512   0.873  0.0662  0.2998  0.1585
  104MOL    C7033236   2.024   6.687   1.028  0.1444 -0.3079  0.5631
  104MOL    C7133237   2.085   6.805   1.062  0.5280 -0.5085  0.0778
  104MOL    C7233238   2.069   6.915   0.977 -0.5596  0.2873  0.3776
  104MOL    C7333239   2.019   6.902   0.844 -0.2035  0.1089 -0.4711
  104MOL    C7433240   2.016   6.773   0.554 -0.5850  0.3122  1.0442
  104MOL    H7533241   1.884   6.647   0.649  0.6208 -0.1983  1.3056
  104MOL    H7633242   2.029   6.604   1.098  0.6101 -0.6014  0.1821
  104MOL    H7733243   2.134   6.816   1.158 -0.5183 -0.2457  0.5984
  104MOL    H7833244   2.115   7.011   0.995 -2.0562  1.2035 -0.4680
  104MOL    H7933245   2.027   6.981   0.772  0.7554  0.4695  0.0302
  104MOL    H8033246   2.002   6.875   0.520  0.4972  0.0271 -0.2960
  104MOL    H8133247   1.989   6.704   0.474  1.5149  1.0188 -0.3210
  104MOL    C8233248   2.164   6.744   0.583  0.2796 -0.2534 -0.1457
  104MOL    C8333249   2.255   6.810   0.476  0.3521  0.0866  0.7790
  104MOL    C8433250   2.308   6.939   0.509  0.6869  0.2475 -0.4334
  104MOL   Cl8533251   2.264   7.035   0.649 -0.1908  0.2549 -0.3451
  104MOL    C8633252   2.392   7.002   0.423 -0.4499 -0.1818  0.0702
  104MOL    C8733253   2.423   6.938   0.297 -0.2420  0.4287  0.5176
  104MOL    C8833254   2.369   6.810   0.267  0.1767 -0.2282 -0.0081
  104MOL    C8933255   2.291   6.745   0.357  0.7888 -0.0177  0.7125
  104MOL    C9033256   2.194   6.593   0.614 -0.1118  0.3421 -0.0935
  104MOL    H9133257   2.182   6.798   0.676  1.3199 -0.5735 -0.1524
  104MOL    H9233258   2.433   7.097   0.454  2.4893 -2.5827  3.9764
  104MOL    H9333259   2.495   6.985   0.231 -1.4310 -1.9733 -2.6080
  104MOL    H9433260   2.407   6.758   0.180  3.0167 -0.8694  1.5546
  104MOL    H9533261   2.250   6.647   0.339  0.7015  0.0149  0.7331
  104MOL    H9633262   2.139   6.536   0.540 -0.4699 -1.5979  1.6153
  104MOL    H9733263   2.128   6.561   0.694 -0.3046  0.0838 -0.3588
  104MOL    C9833264   2.339   6.537   0.635 -0.3731  1.4697  0.0869
  104MOL    C9933265   2.330   6.384   0.622 -0.3424 -0.5604  0.1939
  104MOL   C10033266   2.354   6.320   0.496  0.7246  0.3030  0.2213
  104MOL  Cl10133267   2.386   6.411   0.347  0.2368  0.1173  0.3463
  104MOL   C10233268   2.351   6.179   0.480  0.1516  0.0846  0.4024
  104MOL   C10333269   2.310   6.106   0.589 -0.3754 -0.1861  0.7443
  104MOL   C10433270   2.291   6.156   0.717 -0.9468 -0.2308  0.1317
  104MOL   C10533271   2.288   6.298   0.731  0.6661  0.7970 -0.0462
  104MOL   C10633272   2.395   6.590   0.768 -0.1443  0.4263  0.1112
  104MOL   H10733273   2.407   6.574   0.558 -0.4289 -1.3818 -1.4026
  104MOL   H10833274   2.375   6.146   0.381 -0.7192  3.2558 -0.9134
  104MOL   H10933275   2.300   6.002   0.560  2.6557 -0.2910 -0.0656
  104MOL   H11033276   2.267   6.090   0.799 -1.4850  1.1052  1.0834
  104MOL   H11133277   2.260   6.342   0.826 -0.0279 -1.1674  0.6828
  104MOL   H11233278   2.345   6.545   0.854 -2.9011  0.2499 -1.5481
  104MOL   H11333279   2.375   6.697   0.774  0.3096  0.5284 -0.1990
  104MOL   C11433280   2.550   6.568   0.794 -0.2904  0.0139 -0.3052
  104MOL   C11533281   2.582   6.425   0.836  1.5100 -0.0579  0.5942
  104MOL   C11633282   2.666   6.337   0.757  0.2170 -0.7850  0.3216
  104MOL  Cl11733283   2.749   6.398   0.620  0.1420  0.1048  0.3663
  104MOL   C11833284   2.689   6.203   0.793 -0.3986  0.1610 -0.1007
  104MOL   C11933285   2.642   6.157   0.914  0.0117  0.1718  0.3347
  104MOL   C12033286   2.561   6.236   0.999  0.5308 -0.0483  0.3218
  104MOL   C12133287   2.530   6.368   0.954  0.0985 -0.0617  0.4895
  104MOL   C12233288   2.603   6.676   0.901 -0.0684  0.6302  0.2091
  104MOL   H12333289   2.605   6.593   0.703  0.3689  1.3139  0.4286
  104MOL   H12433290   2.751   6.141   0.729  0.2823  0.8280 -0.0875
  104MOL   H12533291   2.661   6.057   0.950  0.1566 -0.1102 -0.5120
  104MOL   H12633292   2.513   6.193   1.086  0.1524 -1.7183 -0.6854
  104MOL   H12733293   2.467   6.432   1.013  0.8789  2.1920 -1.0592
  104MOL   H12833294   2.545   6.676   0.993  0.2635  0.4958  0.4215
  104MOL   H12933295   2.573   6.773   0.862  0.7163  0.0118 -2.0070
  104MOL   C13033296   2.751   6.666   0.933  0.7509  0.0330 -0.2252
  104MOL   C13133297   2.788   6.558   1.031  0.2549 -0.6006 -0.8929
  104MOL   C13233298   2.885   6.459   1.005 -0.3313  0.8239 -0.1223
  104MOL  Cl13333299   2.976   6.469   0.848 -0.3199  0.1086  0.2387
  104MOL   C13433300   2.904   6.357   1.098 -0.1110  0.6241 -0.0515
  104MOL   C13533301   2.841   6.361   1.225  0.4896  0.1232  0.2830
  104MOL   C13633302   2.752   6.466   1.257  0.6660 -0.3289  0.5474
  104MOL   C13733303   2.725   6.559   1.157 -0.4961 -0.5319  0.5387
  104MOL   C13833304   2.796   6.805   0.980 -0.3816  0.4988  0.2554
  104MOL   H13933305   2.779   6.644   0.829 -0.4572  2.4962 -1.1104
  104MOL   H14033306   2.973   6.277   1.077 -2.5964 -1.0509 -2.1587
  104MOL   H14133307   2.853   6.286   1.301  0.6773  0.4554  0.5821
  104MOL   H14233308   2.693   6.494   1.342  1.3084  0.7580  0.6430
  104MOL   H14333309   2.644   6.631   1.159 -2.1574 -2.2145 -2.3964
  104MOL   H14433310   2.894   6.796   1.027  0.4830  0.2570 -1.5622
  104MOL   H14533311   2.731   6.840   1.061 -0.9865 -1.4420  0.6365
  104MOL   C14633312   2.813   6.918   0.872  0.2384 -0.3871 -0.0091
  104MOL   C14733313   2.900   6.872   0.751 -0.2882 -0.2362 -0.2277
  104MOL   C14833314   2.846   6.866   0.622  0.3693 -0.8084  0.0446
  104MOL  Cl14933315   2.679   6.898   0.593 -0.5228 -0.0681  0.0049
  104MOL   C15033316   2.921   6.807   0.517 -0.2381  0.5933 -0.3587
  104MOL   C15133317   3.054   6.772   0.538  0.1090 -0.2701 -0.4970
  104MOL   C15233318   3.109   6.779   0.666 -0.3064  0.1602 -0.2724
  104MOL   C15333319   3.035   6.835   0.773  0.3196 -0.2604  0.4002
  104MOL   C15433320   2.862   7.054   0.943 -0.7140 -0.1317  0.2092
  104MOL   H15533321   2.710   6.935   0.843  0.8410  0.1005 -1.9615
  104MOL   H15633322   2.879   6.805   0.417 -2.1069 -0.0474  0.4096
  104MOL   H15733323   3.112   6.717   0.465  0.1257  0.0920 -0.7535
  104MOL   H15833324   3.212   6.754   0.686 -0.3894  0.6304  0.7883
  104MOL   H15933325   3.072   6.839   0.875 -0.8082 -1.3438  0.8608
  104MOL   H16033326   2.963   7.046   0.984 -0.0211  2.9636 -0.7519
  104MOL   H16133327   2.795   7.069   1.028 -0.5022 -0.6991  0.4839
  104MOL   C16233328   2.863   7.184   0.853 -0.5207 -0.2107 -0.1688
  104MOL   C16333329   2.956   7.302   0.896 -0.5880 -0.0276 -0.2697
  104MOL   C16433330   3.011   7.395   0.801 -0.0400  0.1735 -1.1851
  104MOL  Cl16533331   2.952   7.400   0.637 -0.0634  0.5532 -0.1083
  104MOL   C16633332   3.100   7.495   0.841  0.3602  0.6074 -0.6292
  104MOL   C16733333   3.128   7.519   0.979 -0.1019 -0.5381 -0.4584
  104MOL   C16833334   3.062   7.442   1.075  0.5596 -0.2526 -0.2515
  104MOL   C16933335   2.984   7.333   1.031  0.3646 -0.1189 -0.1276
  104MOL   C17033336   2.727   7.244   0.829 -0.1976 -0.7409  0.3119
  104MOL   H17133337   2.910   7.148   0.762  0.8820  1.2815 -0.0622
  104MOL   H17233338   3.142   7.556   0.762 -0.3326  0.0673 -1.4272
  104MOL   H17333339   3.195   7.602   1.000 -1.7703  0.2540  1.9379
  104MOL   H17433340   3.082   7.445   1.182  0.6942  1.6997 -0.3128
  104MOL   H17533341   2.930   7.282   1.109 -1.2544  1.7984  0.0271
  104MOL   H17633342   2.680   7.159   0.779 -1.4903  0.2059 -0.1210
  104MOL   H17733343   2.737   7.312   0.744 -4.1391 -1.3522 -0.7419
  104MOL   C17833344   2.645   7.295   0.941  0.6066 -0.4263  0.2897
  104MOL   C17933345   2.564   7.176   1.006  0.1308 -0.7323 -0.1717
  104MOL   C18033346   2.555   7.153   1.147 -1.1491  1.3423 -0.4364
  104MOL  Cl18133347   2.645   7.246   1.261 -0.3739  0.0564  0.0198
  104MOL   C18233348   2.474   7.050   1.198  0.1232  0.5608  0.5538
  104MOL   C18333349   2.405   6.966   1.113 -0.3306 -0.6622 -0.2911
  104MOL   C18433350   2.415   6.980   0.976  0.2635 -0.4097  0.3086
  104MOL   C18533351   2.497   7.081   0.926 -0.4013  0.3513 -0.1692
  104MOL   C18633352   2.547   7.405   0.889 -0.2152  0.9886 -0.1751
  104MOL   H18733353   2.714   7.340   1.012 -1.3731  0.1891  1.8687
  104MOL   H18833354   2.461   7.031   1.304 -0.1865 -0.4197  0.3500
  104MOL   H18933355   2.337   6.893   1.155 -0.2748  0.1420  1.2576
  104MOL   H19033356   2.356   6.915   0.913  0.5407 -1.0164  0.6710
  104MOL   H19133357   2.500   7.085   0.818 -1.2129 -0.5485 -0.2283
  104MOL   H19233358   2.467   7.406   0.963 -0.0375 -1.0923  0.0744
  104MOL   H19333359   2.503   7.358   0.802 -0.7263  1.7220 -0.3152
  104MOL   C19433360   2.605   7.543   0.879  0.3378 -0.5320 -1.6504
  104MOL   C19533361   2.679   7.604   1.001 -0.1815 -0.3969  0.4098
  104MOL   C19633362   2.798   7.680   0.985 -0.5502 -0.0158 -0.2429
  104MOL  Cl19733363   2.864   7.732   0.839 -0.4487 -0.0788  0.0735
  104MOL   C19833364   2.867   7.728   1.098 -0.4609  0.2355 -0.0714
  104MOL   C19933365   2.803   7.716   1.221 -0.3016  0.5782 -0.5009
  104MOL   C20033366   2.680   7.648   1.242  0.4059 -0.5102  0.2446
  104MOL   C20133367   2.628   7.584   1.130  1.0257  0.8191  0.7825
  104MOL   C20233368   2.501   7.638   0.828  0.6357 -0.1595 -0.0310
  104MOL   H20333369   2.685   7.528   0.807  2.6380 -0.1600  0.7544
  104MOL   H20433370   2.946   7.800   1.083 -0.6797  0.3432 -0.7170
  104MOL   H20533371   2.835   7.776   1.306  0.5437 -1.1841  0.4548
  104MOL   H20633372   2.630   7.650   1.337  0.7821  1.0846  0.4325
  104MOL   H20733373   2.540   7.524   1.145 -0.0035  1.9791 -0.5272
  104MOL   H20833374   2.543   7.738   0.829 -0.5252  0.3290  0.4074
  104MOL   H20933375   2.422   7.646   0.903 -0.1301  3.0250 -1.1371
  104MOL   C21033376   2.442   7.606   0.689  0.3745  0.0444  0.1389
  104MOL   C21133377   2.545   7.609   0.573  0.0066 -0.5344 -0.8139
  104MOL   C21233378   2.546   7.503   0.475  0.1527  0.0078  0.7798
  104MOL  Cl21333379   2.447   7.365   0.492  0.0978 -0.2133  0.2198
  104MOL   C21433380   2.642   7.505   0.371 -0.2043 -0.4640  0.2377
  104MOL   C21533381   2.733   7.611   0.365 -0.1491 -0.1713 -0.4154
  104MOL   C21633382   2.737   7.710   0.462  0.1581  0.4006 -0.3144
  104MOL   C21733383   2.640   7.712   0.564  0.0759  0.0345  0.1847
  104MOL   C21833384   2.325   7.704   0.661 -0.2193 -0.6440 -0.4349
  104MOL   H21933385   2.389   7.510   0.690  2.7708 -1.3951 -2.6251
  104MOL   H22033386   2.641   7.430   0.294  0.5263  0.1429 -0.3651
  104MOL   H22133387   2.808   7.620   0.288 -0.3043  0.1388 -0.5274
  104MOL   H22233388   2.806   7.793   0.459  0.1233  0.4506  0.1957
  104MOL   H22333389   2.654   7.785   0.642 -0.6709  1.2372 -0.7915
  104MOL   H22433390   2.369   7.804   0.664 -0.5886 -0.4948  0.1069
  104MOL   H22533391   2.266   7.713   0.752 -2.0731  0.1150 -1.6796
  104MOL   C22633392   2.242   7.696   0.534  0.3763 -0.0305  0.4518
  104MOL   C22733393   2.192   7.838   0.503  0.3988 -1.1336  0.3858
  104MOL   C22833394   2.275   7.932   0.431 -0.4197 -0.8590 -0.1146
  104MOL  Cl22933395   2.425   7.880   0.349  0.2327  0.4579  0.2333
  104MOL   C23033396   2.231   8.071   0.424 -0.0610  0.0592 -0.0038
  104MOL   C23133397   2.108   8.116   0.481 -0.3623 -0.7086  0.1792
  104MOL   C23233398   2.032   8.023   0.556 -0.6640 -0.1784  0.0053
  104MOL   C23333399   2.074   7.887   0.563  0.3707  0.7485  0.1851
  104MOL   C23433400   2.119   7.603   0.564  0.0129 -0.2694 -0.2691
  104MOL   H23533401   2.305   7.663   0.451  0.9196  2.7008 -0.2682
  104MOL   H23633402   2.281   8.148   0.367 -1.0856  0.3849 -0.4853
  104MOL   H23733403   2.076   8.218   0.463  3.4242  0.3890 -0.7639
  104MOL   H23833404   1.937   8.044   0.604 -0.7009  1.0026 -0.5440
  104MOL   H23933405   2.011   7.822   0.622  0.5630  0.8906  0.5520
  104MOL   H24033406   2.063   7.631   0.654  1.1552  0.5605  0.2059
  104MOL   H24133407   2.159   7.508   0.599 -0.5056 -0.0892  0.8343
  104MOL   C24233408   2.034   7.573   0.436 -0.1630 -0.1472 -0.1899
  104MOL   C24333409   1.914   7.478   0.470  0.6947  0.5549  0.6002
  104MOL   C24433410   1.787   7.540   0.493 -0.8859 -0.0393  0.6289
  104MOL  Cl24533411   1.765   7.706   0.462  0.3380 -0.3545 -0.1774
  104MOL   C24633412   1.675   7.462   0.520 -0.1062 -0.5606 -0.3598
  104MOL   C24733413   1.694   7.324   0.540  0.7263  0.8807 -0.4276
  104MOL   C24833414   1.816   7.259   0.509  0.0209 -0.2131 -0.7477
  104MOL   C24933415   1.926   7.338   0.476  0.1306  0.2390 -0.0375
  104MOL   C25033416   2.124   7.522   0.317  0.1911 -0.1416 -0.3693
  104MOL   H25133417   1.994   7.668   0.400  1.0053  0.9885  1.4030
  104MOL   H25233418   1.577   7.506   0.537 -0.4814 -1.4744 -0.1351
  104MOL   H25333419   1.603   7.266   0.552 -0.3532  2.4923 -0.6652
  104MOL   H25433420   1.829   7.153   0.524  0.5057 -0.3559 -2.1103
  104MOL   H25533421   2.025   7.296   0.464  0.0111  0.0803 -0.4407
  104MOL   H25633422   2.179   7.434   0.350  0.6943 -0.3002 -1.5788
  104MOL   H25733423   2.200   7.592   0.282 -0.1201  0.3426 -0.0826
  104MOL   C25833424   2.050   7.485   0.181 -0.1224 -0.3192  0.1387
  104MOL   C25933425   2.007   7.334   0.180  0.4671  0.9681  0.4360
  104MOL   C26033426   1.870   7.295   0.161  0.8637 -0.2321 -0.3481
  104MOL  Cl26133427   1.734   7.405   0.129  0.3649  0.3475 -0.0033
  104MOL   C26233428   1.842   7.156   0.162 -0.0203 -0.5696 -0.2425
  104MOL   C26333429   1.942   7.058   0.191  0.3760  0.2135 -0.5780
  104MOL   C26433430   2.073   7.100   0.210  0.1918  0.1951  0.3655
  104MOL   C26533431   2.104   7.239   0.212 -0.1549 -0.1937 -0.2335
  104MOL   C26633432   2.136   7.497   0.058  0.2504  0.1419  0.7724
  104MOL   H26733433   1.958   7.543   0.185 -1.6541 -2.5900 -0.9250
  104MOL   H26833434   1.738   7.130   0.151 -0.3877 -0.0282  1.7773
  104MOL   H26933435   1.917   6.953   0.187 -0.1483  0.3747 -1.7338
  104MOL   H27033436   2.148   7.028   0.239 -1.7036 -1.9750  0.0233
  104MOL   H27133437   2.209   7.264   0.219 -0.2058 -0.0658  0.1046
  104MOL   H27233438   2.095   7.435   8.398 -3.5667  1.8061  1.3313
  104MOL   H27333439   2.235   7.457   0.081  1.6735  1.6212 -2.4747
  104MOL   C27433440   2.150   7.644   0.016  0.4865 -0.1066  0.1951
  104MOL   C27533441   2.020   7.726   0.005  0.2173  0.5700  0.6999
  104MOL   C27633442   2.003   7.858   0.055  0.2742 -0.3792 -0.3290
  104MOL  Cl27733443   2.134   7.942   0.129  0.5103 -0.2930 -0.2092
  104MOL   C27833444   1.879   7.925   0.052  0.1892  0.1669  0.3668
  104MOL   C27933445   1.766   7.858   8.418 -0.2299  0.8180  0.8786
  104MOL   C28033446   1.779   7.727   8.370  0.1424  0.1303 -0.2584
  104MOL   C28133447   1.905   7.664   8.376  0.2985 -0.1979  0.2080
  104MOL   C28233448   2.229   7.640   8.301  0.4964 -0.0495  0.9684
  104MOL   H28333449   2.218   7.685   0.091 -1.4148  1.4632  1.0707
  104MOL   H28433450   1.863   8.029   0.077 -3.6175 -0.7644  2.3124
  104MOL   H28533451   1.665   7.896   0.004 -0.4632  0.2442  0.6778
  104MOL   H28633452   1.694   7.672   8.332  1.3207 -0.5822 -1.9178
  104MOL   H28733453   1.910   7.568   8.326 -1.7276  0.5695 -1.5607
  104MOL   H28833454   2.160   7.586   8.236  0.9777  0.9786 -0.3907
  104MOL   H28933455   2.318   7.577   8.298 -1.2755 -2.5351 -3.7255
  104MOL   C29033456   2.261   7.776   8.221  0.2783  0.0005 -0.3603
  104MOL   C29133457   2.302   7.733   8.079  0.1170 -0.2181 -0.0232
  104MOL   C29233458   2.227   7.771   7.968 -0.1096  0.3998 -0.0403
  104MOL  Cl29333459   2.078   7.864   7.991 -0.4598  0.2639  0.2832
  104MOL   C29433460   2.268   7.745   7.837  0.0277 -0.5876 -0.1761
  104MOL   C29533461   2.392   7.683   7.814  0.6131 -0.6219  0.6036
  104MOL   C29633462   2.476   7.656   7.920 -0.3634  0.1374 -0.3711
  104MOL   C29733463   2.426   7.676   8.052  0.6777  0.2057  0.3405
  104MOL   C29833464   2.366   7.860   8.284  0.3414 -0.4563  0.3542
  104MOL   H29933465   2.171   7.836   8.235  0.4992  0.3201 -0.3026
  104MOL   H30033466   2.217   7.794   7.755 -1.2190 -0.2316  0.7942
  104MOL   H30133467   2.421   7.666   7.712  1.5143 -0.4568  0.8226
  104MOL   H30233468   2.578   7.626   7.901  0.4602  0.7120  2.7931
  104MOL   H30333469   2.476   7.643   8.141 -1.2240 -1.3569  0.8667
  104MOL   H30433470   2.462   7.808   8.283  0.1620 -0.8871  2.2662
  104MOL   H30533471   2.334   7.867   8.388 -0.6234 -1.2521  0.1213
  104MOL   C30633472   2.385   8.004   8.230 -0.1664  0.2623  0.5978
  104MOL   C30733473   2.526   8.055   8.274 -0.0558  0.2051 -0.1694
  104MOL   C30833474   2.622   8.100   8.179  0.0744 -0.2766 -0.9358
  104MOL  Cl30933475   2.573   8.114   8.014  0.2556  0.3652  0.1373
  104MOL   C31033476   2.748   8.146   8.220 -0.4049 -1.0115 -0.3274
  104MOL   C31133477   2.780   8.154   8.354  0.5300 -0.4695  0.5876
  104MOL   C31233478   2.682   8.115   0.030 -0.3660 -0.3307  0.1163
  104MOL   C31333479   2.551   8.067   8.411 -0.5014 -0.3267 -0.9306
  104MOL   C31433480   2.283   8.107   8.265  0.7370 -0.2167 -0.4848
  104MOL   H31533481   2.377   7.998   8.121  1.1638  0.2733  0.4889
  104MOL   H31633482   2.830   8.176   8.156  1.6382  0.9467  3.0487
  104MOL   H31733483   2.879   8.189   8.380  0.3523  0.3798  0.1410
  104MOL   H31833484   2.711   8.121   0.134 -1.0104 -0.6395  0.3148
  104MOL   H31933485   2.479   8.044   0.067  0.9672  0.5594  0.7557
  104MOL   H32033486   2.183   8.079   8.232  0.3788  2.7292 -1.9972
  104MOL   H32133487   2.290   8.204   8.217 -0.8087  0.7929  1.2869
  104MOL   H32233488   2.289   8.123   8.373  1.4801  0.1424 -0.5723
  105MOL     C133489   0.549   6.407   7.068 -0.3323  0.5715  0.7742
  105MOL     C233490   0.441   6.373   6.964  1.4622 -0.0019  0.4899
  105MOL     C333491   0.328   6.456   6.931 -0.2301  0.3425 -0.3049
  105MOL    Cl433492   0.317   6.609   7.001 -0.0187  0.3088  0.2114
  105MOL     C533493   0.231   6.423   6.833  0.5259 -0.2627  0.5986
  105MOL     C633494   0.242   6.294   6.777  0.4041 -0.9314 -0.2658
  105MOL     C733495   0.345   6.207   6.815  0.1656  0.6328  0.0420
  105MOL     C833496   0.446   6.243   6.907 -0.6899  0.1574 -0.5340
  105MOL     C933497   0.656   6.506   7.023 -0.2712 -0.2211  0.2918
  105MOL    H1033498   0.513   6.444   7.164 -1.5053 -2.7872  1.7156
  105MOL    H1133499   0.158   6.493   6.795  2.0045  1.2916  0.5837
  105MOL    H1233500   0.170   6.270   6.700 -0.1028 -0.1652 -0.0389
  105MOL    H1333501   0.350   6.108   6.772 -0.0137  0.2222  0.9492
  105MOL    H1433502   0.528   6.181   6.941 -2.1694 -0.5797  1.8120
  105MOL    H1533503   0.743   6.500   7.089  0.1410 -0.3017 -0.2550
  105MOL    H1633504   0.616   6.606   7.038 -2.6490 -1.0144 -0.5523
  105MOL    H1733505   0.594   6.312   7.097  0.1541  0.3352 -0.7119
  105MOL    C1833506   0.711   6.500   6.875 -0.3602  0.0051  0.3399
  105MOL    C1933507   0.772   6.360   6.851  0.4956 -0.5416  0.7163
  105MOL    C2033508   0.755   6.305   6.721 -0.3807 -0.2074 -0.2154
  105MOL   Cl2133509   0.676   6.389   6.592 -0.3006  0.4033  0.0088
  105MOL    C2233510   0.801   6.175   6.697  0.1066  0.2680  0.4527
  105MOL    C2333511   0.858   6.096   6.796  0.8201 -0.3914 -0.0902
  105MOL    C2433512   0.891   6.157   6.918 -0.1266 -0.8854 -0.2234
  105MOL    C2533513   0.838   6.283   6.949 -0.4959  0.1178 -0.2189
  105MOL    C2633514   0.807   6.611   6.834  0.6362  0.2745  0.4646
  105MOL    H2733515   0.616   6.497   6.821 -0.8351 -1.2942  1.2280
  105MOL    H2833516   0.781   6.140   6.597 -1.9583  0.8383  0.6431
  105MOL    H2933517   0.892   5.995   6.777 -0.7620 -0.9205 -0.1752
  105MOL    H3033518   0.934   6.110   7.005 -1.7621  0.7688  1.5329
  105MOL    H3133519   0.841   6.316   7.051 -0.5134 -0.3641 -0.0594
  105MOL    H3233520   0.844   6.589   6.734  2.2848 -1.7347  1.4804
  105MOL    H3333521   0.902   6.599   6.887  1.5814  1.0026 -1.0192
  105MOL    C3433522   0.746   6.752   6.838  0.2509 -0.0202 -0.1450
  105MOL    C3533523   0.608   6.774   6.780 -0.0716 -0.2844 -0.1297
  105MOL    C3633524   0.506   6.859   6.832 -0.7317  0.4788  0.5839
  105MOL   Cl3733525   0.532   6.943   6.977 -0.1425 -0.1252  0.0023
  105MOL    C3833526   0.381   6.872   6.765  0.2152 -0.2397 -0.0915
  105MOL    C3933527   0.364   6.805   6.645  0.0238  0.4101  0.2464
  105MOL    C4033528   0.459   6.721   6.591 -0.3887 -0.0714 -0.2744
  105MOL    C4133529   0.580   6.706   6.663 -0.3064 -0.7530 -0.1461
  105MOL    C4233530   0.838   6.844   6.760 -0.4216  0.4406  0.0524
  105MOL    H4333531   0.740   6.786   6.941  1.5344 -1.6675  0.4854
  105MOL    H4433532   0.293   6.922   6.803  1.1753  1.2497  0.2385
  105MOL    H4533533   0.267   6.810   6.598  0.0451  0.4131  0.2029
  105MOL    H4633534   0.440   6.653   6.509  1.1739 -0.0378 -0.6862
  105MOL    H4733535   0.656   6.641   6.624 -0.6711 -1.3254  0.0864
  105MOL    H4833536   0.791   6.940   6.738 -0.1634  0.4034 -0.6641
  105MOL    H4933537   0.863   6.785   6.672  0.7091 -2.0411  1.9722
  105MOL    C5033538   0.975   6.879   6.825  0.0280 -0.1159 -0.4842
  105MOL    C5133539   0.959   6.977   6.946 -0.8142  0.2144 -0.3139
  105MOL    C5233540   1.050   6.971   7.055  0.3702 -0.1663 -0.2318
  105MOL   Cl5333541   1.184   6.860   7.064 -0.4793 -0.5238  0.1660
  105MOL    C5433542   1.033   7.062   7.168 -0.2507  0.1134 -0.2571
  105MOL    C5533543   0.931   7.158   7.179 -0.5891  0.1507 -0.1790
  105MOL    C5633544   0.842   7.165   7.070 -0.0325  0.5426  0.0370
  105MOL    C5733545   0.857   7.072   6.960 -0.6878 -0.2862  0.4124
  105MOL    C5833546   1.092   6.937   6.741  1.2933  0.4021  0.3782
  105MOL    H5933547   1.016   6.791   6.875 -1.2500 -0.9835 -0.9410
  105MOL    H6033548   1.109   7.062   7.245  0.1085 -1.0058 -0.6086
  105MOL    H6133549   0.932   7.227   7.262  2.3934  1.9179 -1.5914
  105MOL    H6233550   0.759   7.234   7.065  0.5142  1.1514 -0.7343
  105MOL    H6333551   0.781   7.072   6.883  1.3184  2.7571 -1.6501
  105MOL    H6433552   1.183   6.918   6.798 -0.5011 -3.2717  2.1573
  105MOL    H6533553   1.074   7.044   6.726 -0.2313  0.7053  3.7938
  105MOL    C6633554   1.119   6.861   6.612 -0.4832  0.2844  0.9652
  105MOL    C6733555   1.114   6.707   6.626  0.2280 -0.7253  0.0491
  105MOL    C6833556   1.041   6.628   6.526  1.1359  0.0670  0.0627
  105MOL   Cl6933557   0.974   6.699   6.382  0.3132  0.3564  0.2832
  105MOL    C7033558   1.016   6.489   6.552 -0.5543 -0.2358  0.5101
  105MOL    C7133559   1.077   6.430   6.665  0.1288 -1.0728 -0.1834
  105MOL    C7233560   1.167   6.508   6.749 -0.4802 -0.1529 -0.3829
  105MOL    C7333561   1.178   6.642   6.730 -0.3697 -0.0337 -1.0216
  105MOL    C7433562   1.246   6.906   6.532  0.1828 -0.3855  0.2328
  105MOL    H7533563   1.036   6.896   6.550  0.8096 -2.8170 -2.7475
  105MOL    H7633564   0.952   6.428   6.489  0.5413 -1.6157  0.7056
  105MOL    H7733565   1.068   6.327   6.695 -1.1302 -1.1831 -0.9078
  105MOL    H7833566   1.216   6.473   6.838 -0.5287  2.1596  0.5981
  105MOL    H7933567   1.229   6.702   6.804 -3.0378  0.7566  0.2509
  105MOL    H8033568   1.259   6.857   6.436 -0.6597  1.2152 -0.7258
  105MOL    H8133569   1.326   6.858   6.589 -0.0878 -0.1635  0.8129
  105MOL    C8233570   1.263   7.063   6.512 -0.1415 -0.0745  0.6410
  105MOL    C8333571   1.152   7.125   6.424  0.2751  0.2047 -0.4319
  105MOL    C8433572   1.096   7.254   6.454  0.8500 -0.1584 -0.4128
  105MOL   Cl8533573   1.117   7.331   6.609 -0.6245 -0.1947 -0.0662
  105MOL    C8633574   1.006   7.319   6.363 -0.1581  0.9006 -0.0833
  105MOL    C8733575   0.970   7.257   6.241 -0.4447 -0.1595  0.8799
  105MOL    C8833576   1.027   7.132   6.204 -0.6889  0.0262  0.2379
  105MOL    C8933577   1.110   7.069   6.304  0.6292 -0.4553 -0.1500
  105MOL    C9033578   1.393   7.094   6.441 -0.2101  0.3621 -0.4087
  105MOL    H9133579   1.273   7.113   6.608  0.0886 -0.1642  0.6653
  105MOL    H9233580   0.968   7.416   6.393 -3.0662  0.1553 -1.2944
  105MOL    H9333581   0.917   7.318   6.169  0.9944 -1.5185 -1.3738
  105MOL    H9433582   1.007   7.088   6.107 -0.7422 -0.0934  0.3028
  105MOL    H9533583   1.160   6.981   6.266 -0.7188 -0.2277 -2.5834
  105MOL    H9633584   1.385   7.195   6.401  0.7468 -0.8787 -3.9493
  105MOL    H9733585   1.391   7.034   6.350 -0.5945  0.8700 -0.7320
  105MOL    C9833586   1.523   7.068   6.514 -0.3410  0.1753 -0.2065
  105MOL    C9933587   1.529   7.127   6.656  0.1155 -0.4420  0.3457
  105MOL   C10033588   1.532   7.039   6.771 -1.2153  0.4146 -0.2745
  105MOL  Cl10133589   1.552   6.864   6.758  0.1467  0.3263  0.3377
  105MOL   C10233590   1.543   7.097   6.898  0.3267  0.1030  0.1776
  105MOL   C10333591   1.539   7.234   6.913 -0.1373 -0.1462 -0.0009
  105MOL   C10433592   1.519   7.319   6.803 -0.4078  0.2582 -0.5505
  105MOL   C10533593   1.519   7.269   6.678 -0.4065 -0.3773  0.1981
  105MOL   C10633594   1.642   7.118   6.427  0.1397  0.0683  0.0643
  105MOL   H10733595   1.532   6.960   6.527  0.3809  0.3068  0.3892
  105MOL   H10833596   1.548   7.038   6.988 -1.2376  1.2586  1.0380
  105MOL   H10933597   1.548   7.271   7.015 -2.3541  0.4565  0.0073
  105MOL   H11033598   1.513   7.422   6.837  0.6470 -0.6981  2.7455
  105MOL   H11133599   1.514   7.332   6.590  2.5341  0.5806  0.6592
  105MOL   H11233600   1.628   7.225   6.410  3.3072  0.6424  0.7238
  105MOL   H11333601   1.628   7.071   6.330 -0.6997  1.7340 -0.6277
  105MOL   C11433602   1.786   7.087   6.474 -0.2778  0.2053 -0.0683
  105MOL   C11533603   1.858   7.212   6.509 -0.0156 -0.2763 -0.2496
  105MOL   C11633604   1.931   7.225   6.632  0.2154 -0.3224  0.3147
  105MOL  Cl11733605   1.922   7.111   6.768  0.3038 -0.3632  0.1964
  105MOL   C11833606   2.020   7.331   6.642 -0.1949  0.5674 -0.9261
  105MOL   C11933607   2.052   7.423   6.540 -0.1916 -0.8340  0.5242
  105MOL   C12033608   1.982   7.407   6.418  0.7788 -0.5909 -0.3919
  105MOL   C12133609   1.888   7.303   6.411  0.1933  0.4723 -0.0328
  105MOL   C12233610   1.865   7.001   6.370  0.5415  0.0549  0.3424
  105MOL   H12333611   1.783   7.028   6.565  0.6831 -0.4712 -0.4736
  105MOL   H12433612   2.078   7.342   6.732 -1.2397 -3.9933  0.3982
  105MOL   H12533613   2.128   7.498   6.554  0.2914 -1.2010 -0.0823
  105MOL   H12633614   2.001   7.471   6.333  0.7173 -1.0301 -0.7363
  105MOL   H12733615   1.835   7.280   6.319 -3.2583  0.0485  1.9830
  105MOL   H12833616   1.971   7.021   6.380  0.8656 -0.1648 -2.1869
  105MOL   H12933617   1.841   7.047   6.274 -2.0492 -1.7761  0.0537
  105MOL   C13033618   1.825   6.849   6.359 -0.4709 -0.2387  0.0790
  105MOL   C13133619   1.864   6.776   6.488 -0.5215 -0.1606  0.4604
  105MOL   C13233620   1.994   6.778   6.556 -1.6211 -0.4826 -0.2189
  105MOL  Cl13333621   2.132   6.853   6.491 -0.1820 -0.2513 -0.1252
  105MOL   C13433622   2.015   6.711   6.675 -0.1926 -0.0285 -0.3895
  105MOL   C13533623   1.903   6.641   6.727 -0.1166  0.0762 -0.2744
  105MOL   C13633624   1.780   6.631   6.662 -0.1079 -1.4107 -0.3691
  105MOL   C13733625   1.759   6.705   6.545 -0.6298 -0.4982  0.4085
  105MOL   C13833626   1.883   6.779   6.233 -0.2960  0.0563  0.4664
  105MOL   H13933627   1.716   6.849   6.353 -0.5886  3.0770  1.1428
  105MOL   H14033628   2.112   6.715   6.724  0.7276 -0.2966 -2.1660
  105MOL   H14133629   1.908   6.576   6.813 -1.6856  0.7939  0.3819
  105MOL   H14233630   1.704   6.566   6.703 -0.0492  0.3572  2.6644
  105MOL   H14333631   1.667   6.706   6.490 -1.0496 -2.5877  1.0266
  105MOL   H14433632   1.876   6.673   6.256 -2.0548  0.0770  0.0926
  105MOL   H14533633   1.991   6.797   6.232 -0.5291  1.6047 -2.0784
  105MOL   C14633634   1.811   6.818   6.095  0.4003 -0.6845  0.3511
  105MOL   C14733635   1.662   6.818   6.117  0.3527 -0.6214  0.1329
  105MOL   C14833636   1.586   6.926   6.091  0.3449  0.0029 -0.3888
  105MOL  Cl14933637   1.653   7.077   6.035 -0.0785 -0.1860 -0.0932
  105MOL   C15033638   1.447   6.917   6.096  0.0516 -0.0783  0.2073
  105MOL   C15133639   1.384   6.794   6.122  0.4570 -0.4819 -0.0997
  105MOL   C15233640   1.468   6.678   6.135 -0.6179  0.0680 -0.6136
  105MOL   C15333641   1.601   6.698   6.141 -0.0304  0.5949  0.8325
  105MOL   C15433642   1.862   6.738   5.972 -0.1990  0.0860 -0.0571
  105MOL   H15533643   1.835   6.921   6.070  3.3821 -0.9871  1.7551
  105MOL   H15633644   1.383   7.004   6.086 -0.3393 -0.1704  1.8713
  105MOL   H15733645   1.277   6.783   6.119  0.4097  0.1429 -0.9414
  105MOL   H15833646   1.429   6.577   6.141  2.9330 -1.2239  2.7372
  105MOL   H15933647   1.652   6.603   6.148 -0.6249  0.3350  1.8796
  105MOL   H16033648   1.801   6.753   5.883 -1.3709  0.0962  0.7297
  105MOL   H16133649   1.858   6.634   6.007  0.9687  0.3879  1.0158
  105MOL   C16233650   2.005   6.783   5.928  0.5578 -0.2566 -0.4479
  105MOL   C16333651   2.000   6.930   5.873 -0.0085 -0.1179  0.0582
  105MOL   C16433652   2.060   7.043   5.934  0.1766  0.0131  0.1501
  105MOL  Cl16533653   2.147   7.013   6.079  0.0968 -0.0337 -0.2789
  105MOL   C16633654   2.042   7.172   5.879 -0.3213 -0.2254 -0.4849
  105MOL   C16733655   1.975   7.183   5.753 -0.0935 -0.5946 -0.6814
  105MOL   C16833656   1.902   7.075   5.698  0.4864  0.1674 -0.1363
  105MOL   C16933657   1.913   6.952   5.761  0.5708  1.2993 -0.2446
  105MOL   C17033658   2.070   6.681   5.836  0.3548  0.2659 -0.4701
  105MOL   H17133659   2.062   6.788   6.020 -0.7402 -0.7712  0.3983
  105MOL   H17233660   2.085   7.258   5.929  0.2000 -0.5475 -0.3751
  105MOL   H17333661   1.962   7.277   5.702  0.5744 -0.0058  0.2012
  105MOL   H17433662   1.853   7.084   5.601  2.0809  1.0332 -0.8715
  105MOL   H17533663   1.857   6.870   5.718  2.0247  0.2398 -0.1809
  105MOL   H17633664   2.129   6.731   5.759  0.9147 -1.8406 -1.4431
  105MOL   H17733665   1.982   6.644   5.783  0.3126  0.0193 -0.2277
  105MOL   C17833666   2.157   6.569   5.910 -0.5397  0.5317 -1.1428
  105MOL   C17933667   2.284   6.620   5.983  0.4947  0.0183 -0.0976
  105MOL   C18033668   2.302   6.591   6.120  0.8540 -0.6037  0.0527
  105MOL  Cl18133669   2.190   6.518   6.230 -0.1896  0.1099  0.0607
  105MOL   C18233670   2.424   6.623   6.182 -0.2872 -0.1626 -0.4042
  105MOL   C18333671   2.526   6.697   6.112  1.1094  0.1999 -0.5199
  105MOL   C18433672   2.503   6.734   5.981 -0.3680  1.0551  0.3310
  105MOL   C18533673   2.385   6.690   5.914  0.4112 -0.7762  0.3239
  105MOL   C18633674   2.195   6.448   5.813  0.6428  0.5062  0.4056
  105MOL   H18733675   2.089   6.532   5.986  2.1378 -1.8786  0.1649
  105MOL   H18833676   2.446   6.611   6.287  0.1492  1.0628 -0.3464
  105MOL   H18933677   2.612   6.732   6.165  2.0964 -2.4549 -0.3005
  105MOL   H19033678   2.587   6.784   5.935  1.3184 -0.6341  1.5232
  105MOL   H19133679   2.367   6.717   5.811  0.5767  1.1063  0.7696
  105MOL   H19233680   2.250   6.375   5.872  1.7099  2.1097  1.4380
  105MOL   H19333681   2.251   6.492   5.730  1.8152  1.6701  1.7926
  105MOL   C19433682   2.073   6.378   5.748  0.4417  0.5488 -0.5078
  105MOL   C19533683   1.975   6.319   5.850 -0.0043 -0.3072 -0.8539
  105MOL   C19633684   1.842   6.368   5.857 -0.0447 -0.0930 -0.5343
  105MOL  Cl19733685   1.779   6.482   5.740  0.0647  0.1823 -0.2313
  105MOL   C19833686   1.754   6.311   5.953  0.1033 -0.0623  0.3355
  105MOL   C19933687   1.803   6.219   6.050 -0.1774 -0.0062 -0.2162
  105MOL   C20033688   1.936   6.165   6.039 -0.2283 -0.8529 -0.6685
  105MOL   C20133689   2.023   6.222   5.946 -0.0760 -0.0045 -0.0025
  105MOL   C20233690   2.109   6.271   5.644  0.7296  0.2905  0.1012
  105MOL   H20333691   2.026   6.456   5.687  0.7966 -0.8449 -2.6295
  105MOL   H20433692   1.651   6.342   5.966 -0.0079 -0.1796 -0.2462
  105MOL   H20533693   1.736   6.182   6.127 -0.1942  3.0148  1.2613
  105MOL   H20633694   1.980   6.104   6.117  0.2656  0.7852  0.3434
  105MOL   H20733695   2.128   6.199   5.947  0.4179  2.0844 -1.0561
  105MOL   H20833696   2.012   6.247   5.601  1.5003 -0.3451 -1.3416
  105MOL   H20933697   2.131   6.176   5.693 -2.4736 -0.1155  0.8215
  105MOL   C21033698   2.197   6.317   5.523  0.3659 -0.5037  0.6095
  105MOL   C21133699   2.148   6.448   5.457  0.5304 -0.7152  0.2507
  105MOL   C21233700   2.233   6.558   5.431  0.7903 -0.2162  0.1199
  105MOL  Cl21333701   2.405   6.539   5.439  0.8045  0.4681 -0.0518
  105MOL   C21433702   2.183   6.676   5.375  0.4803 -0.3551  0.4019
  105MOL   C21533703   2.044   6.689   5.347  0.1761  0.2894  0.3495
  105MOL   C21633704   1.957   6.579   5.358 -0.3920 -0.4070  0.2383
  105MOL   C21733705   2.011   6.461   5.418  0.0277 -0.0480  0.4222
  105MOL   C21833706   2.216   6.200   5.420 -1.2120 -0.5862 -0.0844
  105MOL   H21933707   2.297   6.342   5.557  0.8129  0.4624 -1.3470
  105MOL   H22033708   2.253   6.755   5.355  0.5779 -0.2134  1.2888
  105MOL   H22133709   2.024   6.780   5.293  1.4045 -0.2688 -1.0626
  105MOL   H22233710   1.853   6.583   5.329 -0.3168  1.6971  0.2004
  105MOL   H22333711   1.942   6.384   5.449  0.2443 -0.6737 -0.6440
  105MOL   H22433712   2.253   6.238   5.325  2.5478 -1.3258  1.0148
  105MOL   H22533713   2.117   6.159   5.400 -2.4016  1.0894  2.0681
  105MOL   C22633714   2.305   6.078   5.460 -0.0182 -0.7008  0.1710
  105MOL   C22733715   2.433   6.108   5.536 -0.5667  0.0457 -0.1835
  105MOL   C22833716   2.454   6.054   5.664 -0.7253 -0.0034  0.7547
  105MOL  Cl22933717   2.334   5.966   5.754 -0.1443 -0.3769 -0.6547
  105MOL   C23033718   2.569   6.081   5.736 -0.6238 -0.3403 -0.1764
  105MOL   C23133719   2.668   6.172   5.688 -0.4702 -0.6433  0.1592
  105MOL   C23233720   2.641   6.228   5.563  0.0615  0.4664 -0.1367
  105MOL   C23333721   2.529   6.194   5.480 -0.4595  0.7149 -0.3746
  105MOL   C23433722   2.333   5.979   5.341  0.2064  0.1154 -0.4975
  105MOL   H23533723   2.246   6.014   5.526 -0.3828 -0.7919 -0.2407
  105MOL   H23633724   2.598   6.053   5.836  1.5434 -1.3594 -1.0573
  105MOL   H23733725   2.751   6.211   5.744  0.2574 -0.4770 -1.0291
  105MOL   H23833726   2.711   6.294   5.516  1.1832 -1.3837 -1.0882
  105MOL   H23933727   2.515   6.233   5.380 -0.8652 -0.2216 -0.6852
  105MOL   H24033728   2.405   5.909   5.384 -0.0571 -0.1407 -0.4742
  105MOL   H24133729   2.383   6.034   5.261  2.3947 -4.1607 -2.2305
  105MOL   C24233730   2.216   5.902   5.273 -0.8296 -0.2431 -0.2089
  105MOL   C24333731   2.132   5.833   5.373  0.1300 -0.0869  0.0008
  105MOL   C24433732   1.994   5.862   5.390  0.0669 -0.0189  0.1215
  105MOL  Cl24533733   1.916   5.967   5.279  0.2790 -0.2169  0.6526
  105MOL   C24633734   1.920   5.815   5.496 -0.5022 -0.3607  0.0274
  105MOL   C24733735   1.997   5.751   5.600  0.5019 -0.5068 -0.1249
  105MOL   C24833736   2.129   5.716   5.586 -1.1682 -0.1474  0.8712
  105MOL   C24933737   2.194   5.743   5.465 -0.0683 -1.0866  0.7515
  105MOL   C25033738   2.269   5.816   5.158 -0.7021 -0.6286 -0.4842
  105MOL   H25133739   2.170   5.982   5.215 -1.3656 -0.7184 -0.4366
  105MOL   H25233740   1.813   5.827   5.502 -0.4692 -0.6193  1.3866
  105MOL   H25333741   1.947   5.737   5.695 -0.5432  0.7438 -0.4690
  105MOL   H25433742   2.181   5.668   5.667 -0.4679  0.9585  1.0781
  105MOL   H25533743   2.297   5.710   5.463  0.5290  0.7693 -0.3076
  105MOL   H25633744   2.331   5.734   5.193 -1.0784 -1.7340 -2.3496
  105MOL   H25733745   2.339   5.876   5.101  0.9741 -0.3469  1.7844
  105MOL   C25833746   2.153   5.748   5.072 -0.1029  0.0291 -0.5626
  105MOL   C25933747   2.201   5.612   5.028 -0.2563 -0.4692  0.0028
  105MOL   C26033748   2.174   5.495   5.099  0.0453  0.3167  0.6656
  105MOL  Cl26133749   2.072   5.498   5.247 -0.4339  0.1378 -0.0919
  105MOL   C26233750   2.215   5.371   5.051 -0.2754  0.4477 -0.3116
  105MOL   C26333751   2.297   5.356   4.942 -0.1558 -0.4997  0.4774
  105MOL   C26433752   2.348   5.474   4.879  0.2984  0.4722  0.9495
  105MOL   C26533753   2.295   5.599   4.926 -0.0975  0.9333 -0.1068
  105MOL   C26633754   2.109   5.842   4.957 -0.3298 -0.0764 -0.3708
  105MOL   H26733755   2.054   5.736   5.117 -0.2507  1.8886 -0.3731
  105MOL   H26833756   2.185   5.283   5.107 -2.2930  1.2301 -0.1383
  105MOL   H26933757   2.313   5.256   4.905 -0.0688  0.0952 -1.1816
  105MOL   H27033758   2.420   5.456   4.801  1.5966  0.9494  2.0101
  105MOL   H27133759   2.320   5.684   4.863 -2.4202  0.7535 -1.3209
  105MOL   H27233760   2.188   5.852   4.882 -1.7972 -2.3952 -2.2742
  105MOL   H27333761   2.125   5.938   5.008  1.1235  0.6987 -2.2240
  105MOL   C27433762   1.958   5.844   4.905 -0.5523 -0.4691 -0.3266
  105MOL   C27533763   1.902   5.708   4.861  0.2891 -0.0983 -0.9678
  105MOL   C27633764   1.771   5.671   4.888 -0.7138  0.6947 -0.1246
  105MOL  Cl27733765   1.659   5.779   4.972 -0.3036  0.0116  0.0690
  105MOL   C27833766   1.723   5.549   4.835 -0.6257 -1.1868  0.7393
  105MOL   C27933767   1.814   5.464   4.758  0.2490 -0.0938 -0.6554
  105MOL   C28033768   1.949   5.498   4.741 -0.3649 -0.4436 -0.2915
  105MOL   C28133769   1.989   5.625   4.788  0.0803  0.3869 -0.3294
  105MOL   C28233770   1.947   5.945   4.790  0.4069 -0.0702 -0.6477
  105MOL   H28333771   1.890   5.876   4.984  1.0507 -0.8372  1.2174
  105MOL   H28433772   1.622   5.516   4.852 -0.5640 -1.6017  0.3130
  105MOL   H28533773   1.781   5.365   4.732  0.2179  0.4598 -2.7657
  105MOL   H28633774   2.008   5.424   4.688  0.6225  1.2775 -1.6643
  105MOL   H28733775   2.088   5.656   4.759  2.0097 -3.7588  1.3840
  105MOL   H28833776   1.856   5.937   4.729 -0.1715 -0.5334  0.2597
  105MOL   H28933777   2.007   5.913   4.705  0.1245  1.0128 -1.2647
  105MOL   C29033778   1.987   6.088   4.814  0.6183  0.0765  0.2659
  105MOL   C29133779   1.917   6.144   4.936 -0.2530  0.2292  0.3744
  105MOL   C29233780   1.990   6.213   5.037  0.7294  0.2747 -0.3288
  105MOL  Cl29333781   2.164   6.223   5.031 -0.6179  0.0450  0.2422
  105MOL   C29433782   1.921   6.269   5.142 -0.3740  0.7860 -0.8761
  105MOL   C29533783   1.779   6.255   5.146 -0.7602  0.1073  0.9107
  105MOL   C29633784   1.708   6.179   5.051  0.5496  0.4187 -0.0101
  105MOL   C29733785   1.778   6.134   4.938  1.6439  0.0892 -0.8096
  105MOL   C29833786   1.955   6.171   4.691 -0.2458  0.0441  0.2761
  105MOL   H29933787   2.096   6.089   4.823  0.5781  0.3753  0.7450
  105MOL   H30033788   1.970   6.307   5.230 -0.5368 -2.4264  0.6566
  105MOL   H30133789   1.733   6.303   5.230  0.3475  1.0741  0.9703
  105MOL   H30233790   1.601   6.168   5.065  0.7634 -0.5566  0.9711
  105MOL   H30333791   1.721   6.078   4.866  1.3075 -1.8167  0.8910
  105MOL   H30433792   1.847   6.179   4.693 -0.4197 -2.0994  1.4670
  105MOL   H30533793   1.971   6.114   4.599 -2.9857 -0.2530 -0.0432
  105MOL   C30633794   2.015   6.316   4.682 -0.0058  0.3963  0.3578
  105MOL   C30733795   1.959   6.415   4.780 -0.5881  0.2743  0.1985
  105MOL   C30833796   1.822   6.456   4.784 -0.0513 -0.2493 -0.6469
  105MOL  Cl30933797   1.711   6.411   4.656 -0.0616 -0.3180  0.0199
  105MOL   C31033798   1.781   6.534   4.892  0.5174 -0.3354  0.2488
  105MOL   C31133799   1.861   6.572   4.998  0.2140  0.4225  0.0488
  105MOL   C31233800   1.998   6.542   4.989 -0.4234  0.2774  0.4157
  105MOL   C31333801   2.050   6.476   4.878  0.4128  0.4835 -0.4175
  105MOL   C31433802   2.019   6.376   4.535 -0.3810  0.2655 -0.1493
  105MOL   H31533803   2.120   6.297   4.704 -0.1276  0.4435  0.9894
  105MOL   H31633804   1.677   6.563   4.903  0.5718 -0.1900  0.3813
  105MOL   H31733805   1.834   6.627   5.087  1.3628  3.6287 -1.5106
  105MOL   H31833806   2.062   6.556   5.075  0.0047 -0.2727  0.1916
  105MOL   H31933807   2.150   6.435   4.893 -0.5472 -1.3017  1.5118
  105MOL   H32033808   2.064   6.475   4.526  0.2193  0.0817  0.7041
  105MOL   H32133809   1.918   6.386   4.496 -0.0960 -0.3515 -1.0579
  105MOL   H32233810   2.075   6.308   4.470  0.8309  0.1039  1.0313
  106MOL     C133811   1.738   1.270   8.268  0.5574  0.0688  0.8973
  106MOL     C233812   1.847   1.164   8.262  0.2324  0.0334 -0.6626
  106MOL     C333813   1.821   1.036   8.201 -0.9148 -0.3226 -0.0518
  106MOL    Cl433814   1.664   1.000   8.149  0.4375  0.0143 -0.0476
  106MOL     C533815   1.926   0.939   8.186 -0.4147 -0.4263  0.5058
  106MOL     C633816   2.058   0.971   8.225 -0.2725 -1.1956  0.3355
  106MOL     C733817   2.083   1.100   8.275 -0.5613 -0.0291  0.5880
  106MOL     C833818   1.984   1.193   8.298  0.3836  0.1150  0.1680
  106MOL     C933819   1.747   1.362   8.146  0.3994  0.5984 -0.2384
  106MOL    H1033820   1.636   1.244   8.298  0.0752  3.5374  2.4415
  106MOL    H1133821   1.920   0.849   8.127  2.0952 -0.7890  0.7903
  106MOL    H1233822   2.137   0.903   8.199  1.8015  1.3490 -0.1807
  106MOL    H1333823   2.186   1.125   8.298  0.1820 -0.9968 -1.5689
  106MOL    H1433824   1.999   1.285   8.353 -0.3321  0.6885 -0.5801
  106MOL    H1533825   1.741   1.310   8.050  1.3926  3.2318 -1.7660
  106MOL    H1633826   1.850   1.396   8.149  0.4121  0.5755 -0.3958
  106MOL    H1733827   1.771   1.337   8.348 -1.8501  1.8112  0.4725
  106MOL    C1833828   1.654   1.485   8.141  0.1857 -0.1126  0.5561
  106MOL    C1933829   1.498   1.441   8.135  1.1494  0.7223 -0.2294
  106MOL    C2033830   1.403   1.481   8.236 -0.2338 -0.3023 -0.1409
  106MOL   Cl2133831   1.449   1.582   8.368  0.3776  0.0667 -0.2934
  106MOL    C2233832   1.268   1.434   8.230 -0.1485  0.2673  0.3398
  106MOL    C2333833   1.223   1.366   8.113  0.9247 -0.2086  0.3056
  106MOL    C2433834   1.309   1.332   8.014 -0.4398  0.1281  0.8413
  106MOL    C2533835   1.451   1.371   8.020 -0.1294  0.1608 -0.1860
  106MOL    C2633836   1.690   1.588   8.031 -0.5414  0.0913  0.0264
  106MOL    H2733837   1.677   1.530   8.238 -0.1274 -1.0662  1.0775
  106MOL    H2833838   1.188   1.464   8.296  0.9740 -1.7426  2.7037
  106MOL    H2933839   1.122   1.331   8.100  1.4243 -1.4903 -0.1827
  106MOL    H3033840   1.277   1.294   7.918  1.7780  0.6878 -0.1500
  106MOL    H3133841   1.524   1.342   7.946 -1.7489 -0.3500 -1.6232
  106MOL    H3233842   1.617   1.669   8.033  2.3244  2.7733  1.1410
  106MOL    H3333843   1.672   1.554   7.929  2.3041 -0.9532 -0.1696
  106MOL    C3433844   1.820   1.667   8.028 -0.5625 -0.7400  0.4754
  106MOL    C3533845   1.828   1.753   8.152  0.0883 -0.5429  0.2699
  106MOL    C3633846   1.925   1.726   8.256  0.3442  0.0370  0.6203
  106MOL   Cl3733847   2.046   1.607   8.247  0.2778  0.4683 -0.1708
  106MOL    C3833848   1.916   1.792   8.380  0.1959 -0.6522  0.6716
  106MOL    C3933849   1.820   1.897   8.389  0.0325  0.1068  0.2330
  106MOL    C4033850   1.731   1.933   8.285 -0.4243  0.5841 -0.2867
  106MOL    C4133851   1.739   1.862   8.170  0.0468  0.8402  0.0239
  106MOL    C4233852   1.848   1.752   7.898  0.0594 -0.3330  0.5225
  106MOL    H4333853   1.896   1.588   8.029 -0.0933 -0.3242 -0.7904
  106MOL    H4433854   1.976   1.767   0.046 -0.4767  0.5255  1.4928
  106MOL    H4533855   1.810   1.958   0.058 -1.2649  2.2304 -1.3134
  106MOL    H4633856   1.668   2.021   8.289  0.4022  1.1260  1.5175
  106MOL    H4733857   1.673   1.876   8.085  2.9511  0.9034 -2.2690
  106MOL    H4833858   1.897   1.848   7.916 -1.3206  0.1913  1.6324
  106MOL    H4933859   1.751   1.788   7.863  0.6095  1.0022  0.3303
  106MOL    C5033860   1.934   1.686   7.784  0.2587 -0.5615 -0.2292
  106MOL    C5133861   2.056   1.604   7.834  0.0698  1.2239  0.6244
  106MOL    C5233862   2.047   1.459   7.842  0.1906 -0.4745 -0.7005
  106MOL   Cl5333863   1.920   1.372   7.779  0.2230 -0.0530  0.3486
  106MOL    C5433864   2.145   1.382   7.902 -0.3461  1.3469  0.2875
  106MOL    C5533865   2.266   1.444   7.943 -0.2033  0.5438 -0.1751
  106MOL    C5633866   2.281   1.582   7.938 -0.3859 -0.1731  0.1456
  106MOL    C5733867   2.174   1.664   7.884 -0.0453 -0.0182  0.0155
  106MOL    C5833868   1.963   1.791   7.675  0.6857 -0.0972 -0.3841
  106MOL    H5933869   1.859   1.615   7.749 -1.1133  2.0395 -2.7695
  106MOL    H6033870   2.132   1.275   7.901 -1.5489  1.4469  1.6980
  106MOL    H6133871   2.327   1.386   8.010  0.4431  2.8572  1.3139
  106MOL    H6233872   2.367   1.625   7.987 -0.0710  0.5219 -0.9809
  106MOL    H6333873   2.182   1.772   7.883 -0.4431 -0.0032 -2.1016
  106MOL    H6433874   2.069   1.819   7.684  0.6408 -0.2387  0.6333
  106MOL    H6533875   1.900   1.876   7.702 -1.2326 -1.8142  0.6703
  106MOL    C6633876   1.931   1.754   7.534  0.0715 -1.3138 -0.2588
  106MOL    C6733877   1.963   1.606   7.497  0.1046 -0.6090 -0.0064
  106MOL    C6833878   1.867   1.510   7.467  0.5572 -0.0856  0.2777
  106MOL   Cl6933879   1.705   1.559   7.474 -0.1195 -0.3454  0.3870
  106MOL    C7033880   1.894   1.377   7.435  0.2421 -0.4302  0.5551
  106MOL    C7133881   2.024   1.340   7.428 -0.0917 -0.3732  0.0221
  106MOL    C7233882   2.129   1.433   7.461  0.5118 -0.1970  0.1563
  106MOL    C7333883   2.088   1.559   7.502  0.0175 -0.1448 -0.2601
  106MOL    C7433884   1.983   1.862   7.433  0.1973 -0.2411  0.0377
  106MOL    H7533885   1.822   1.759   7.534  0.1516  2.6634  1.8731
  106MOL    H7633886   1.813   1.308   7.414  0.4407 -0.2663 -0.8148
  106MOL    H7733887   2.054   1.243   7.392 -1.6383 -0.6130 -0.6412
  106MOL    H7833888   2.232   1.408   7.444  0.2253 -1.7152  0.5482
  106MOL    H7933889   2.171   1.627   7.519 -0.2231  0.7073 -2.3467
  106MOL    H8033890   2.089   1.884   7.441  0.2029 -0.2358 -0.0489
  106MOL    H8133891   1.927   1.947   7.473 -2.6388 -1.8119 -0.4181
  106MOL    C8233892   1.948   1.835   7.283  0.3634  1.1965  0.9267
  106MOL    C8333893   2.035   1.932   7.200  0.1046  0.0797 -0.5326
  106MOL    C8433894   2.087   1.894   7.072 -0.0167 -0.3146 -0.4688
  106MOL   Cl8533895   2.079   1.730   7.017  0.0381  0.0955 -0.1551
  106MOL    C8633896   2.163   1.989   6.998 -0.7471  0.1470 -0.1120
  106MOL    C8733897   2.187   2.114   7.054  0.1480 -0.3267 -0.0501
  106MOL    C8833898   2.131   2.159   7.175  0.8261  0.3563 -0.3750
  106MOL    C8933899   2.047   2.067   7.239  0.0050 -1.1821  0.1032
  106MOL    C9033900   1.804   1.858   7.254  0.4321  0.0508  0.4413
  106MOL    H9133901   1.977   1.733   7.258 -0.7556  1.5391 -1.8610
  106MOL    H9233902   2.200   1.971   6.899  2.8419  0.1213  1.1682
  106MOL    H9333903   2.245   2.185   6.996  0.4137  0.9241  1.7316
  106MOL    H9433904   2.129   2.261   7.210 -2.1898  0.2088  0.0067
  106MOL    H9533905   1.990   2.104   7.323 -0.6000 -1.4471 -0.1841
  106MOL    H9633906   1.788   1.962   7.280 -1.8243 -0.3463  0.7640
  106MOL    H9733907   1.747   1.804   7.329 -1.2715  0.1420 -0.7551
  106MOL    C9833908   1.745   1.837   7.116 -0.3468 -0.0234  0.8005
  106MOL    C9933909   1.605   1.903   7.110  1.1259 -0.6151 -0.4680
  106MOL   C10033910   1.592   2.016   7.029  0.8910 -0.7417  0.7146
  106MOL  Cl10133911   1.723   2.085   6.947 -0.1131  0.1554  0.2172
  106MOL   C10233912   1.461   2.070   7.004 -0.4624  0.2708 -0.8092
  106MOL   C10333913   1.346   2.004   7.056  0.4987 -1.2189  0.2522
  106MOL   C10433914   1.364   1.904   7.152 -0.1679 -0.2286  0.1270
  106MOL   C10533915   1.493   1.858   7.189  0.7214 -0.2624 -0.2535
  106MOL   C10633916   1.729   1.681   7.086 -0.1117 -0.4424 -0.7504
  106MOL   H10733917   1.813   1.882   7.044  0.4146 -0.2285  1.3756
  106MOL   H10833918   1.447   2.147   6.929  2.0391  0.0903 -1.5065
  106MOL   H10933919   1.251   2.029   7.011  0.3746 -1.2386  0.4990
  106MOL   H11033920   1.279   1.852   7.194  1.0115 -0.9400  1.6512
  106MOL   H11133921   1.514   1.770   7.248  0.6353 -1.5494 -2.0923
  106MOL   H11233922   1.656   1.628   7.147  0.3927 -0.1368  0.1156
  106MOL   H11333923   1.826   1.631   7.089  1.4355  2.3905 -1.4134
  106MOL   C11433924   1.681   1.653   6.939  0.3381  0.5430  0.5315
  106MOL   C11533925   1.590   1.529   6.926 -0.2477  0.2599 -0.0446
  106MOL   C11633926   1.641   1.396   6.963 -0.2533  0.0317 -0.1073
  106MOL  Cl11733927   1.795   1.374   7.033  0.0677  0.3969  0.1282
  106MOL   C11833928   1.561   1.284   6.941  0.1840 -0.5217  0.5611
  106MOL   C11933929   1.431   1.295   6.889 -0.3245  0.0045  0.3135
  106MOL   C12033930   1.387   1.427   6.850 -0.6036 -0.2909  0.4435
  106MOL   C12133931   1.467   1.538   6.869  0.1336 -0.2446 -1.0369
  106MOL   C12233932   1.800   1.656   6.837  0.4325  0.1054  0.6073
  106MOL   H12333933   1.626   1.741   6.907  0.5338  0.4268 -0.1395
  106MOL   H12433934   1.600   1.190   6.977 -0.0095 -0.6074  0.5502
  106MOL   H12533935   1.366   1.213   6.864  1.7659 -1.4112 -0.6040
  106MOL   H12633936   1.288   1.431   6.808 -0.2607 -1.5727 -0.5332
  106MOL   H12733937   1.425   1.627   6.825  1.0906 -0.8265 -3.2363
  106MOL   H12833938   1.869   1.573   6.848 -0.6338 -1.0117 -1.0554
  106MOL   H12933939   1.852   1.750   6.858 -0.7333  1.5486 -2.7289
  106MOL   C13033940   1.758   1.668   6.686 -0.8304 -0.1144  0.2343
  106MOL   C13133941   1.890   1.687   6.596 -0.5689  0.1007 -0.5413
  106MOL   C13233942   1.908   1.613   6.478  0.9423  0.4376  0.0435
  106MOL  Cl13333943   1.787   1.501   6.426  0.4978 -0.3753  0.0582
  106MOL   C13433944   2.014   1.631   6.388 -0.1205  0.2974 -1.0319
  106MOL   C13533945   2.115   1.728   6.420  0.4615  1.1059  0.0369
  106MOL   C13633946   2.110   1.795   6.544 -0.5884 -0.1520  0.6197
  106MOL   C13733947   1.999   1.776   6.627  0.4130 -0.1680 -0.4168
  106MOL   C13833948   1.658   1.784   6.652  0.0464  0.2389  0.6156
  106MOL   H13933949   1.702   1.579   6.657 -1.0123  0.3923 -0.9993
  106MOL   H14033950   2.019   1.572   6.298 -0.5964  0.4622 -1.1642
  106MOL   H14133951   2.195   1.751   6.351  1.2416 -1.4731  0.0231
  106MOL   H14233952   2.190   1.861   6.574 -0.7206 -0.3784  1.4815
  106MOL   H14333953   1.998   1.845   6.710 -1.4442  0.1197 -0.6390
  106MOL   H14433954   1.696   1.879   6.690  0.1011 -1.1213  4.0802
  106MOL   H14533955   1.568   1.776   6.713 -2.2198 -3.0874 -2.9567
  106MOL   C14633956   1.624   1.805   6.502 -0.0182  0.0226 -0.0436
  106MOL   C14733957   1.602   1.957   6.469  0.2236  0.2759  0.9079
  106MOL   C14833958   1.686   2.027   6.381  0.3893  0.6476 -0.0655
  106MOL  Cl14933959   1.835   1.966   6.327 -0.1083 -0.0456  0.0867
  106MOL   C15033960   1.654   2.155   6.335  0.3221  0.1186 -0.4383
  106MOL   C15133961   1.535   2.216   6.377  0.4240  0.1465 -0.2727
  106MOL   C15233962   1.448   2.153   6.465 -0.2930  0.5989  0.3184
  106MOL   C15333963   1.483   2.024   6.512  0.3026  0.5769  0.1286
  106MOL   C15433964   1.501   1.715   6.454 -0.6047  0.3956 -0.3054
  106MOL   H15533965   1.702   1.766   6.436 -1.1084  0.9571 -1.9287
  106MOL   H15633966   1.721   2.194   6.260 -1.1538  1.0385 -1.3047
  106MOL   H15733967   1.514   2.314   6.336 -0.6356 -0.4180 -1.1002
  106MOL   H15833968   1.362   2.208   6.500  0.0006  0.8852  0.5910
  106MOL   H15933969   1.409   1.983   6.579 -1.3076  0.3335 -1.7665
  106MOL   H16033970   1.419   1.726   6.524  1.0576  2.3233  1.3892
  106MOL   H16133971   1.523   1.610   6.474 -0.0487 -0.1797 -3.6251
  106MOL   C16233972   1.442   1.739   6.314 -0.2191 -0.0289  0.0044
  106MOL   C16333973   1.301   1.677   6.300 -0.6326  0.6561 -0.4875
  106MOL   C16433974   1.180   1.757   6.314 -0.2962 -0.0576 -0.3096
  106MOL  Cl16533975   1.183   1.932   6.329 -0.2399 -0.4709  0.1123
  106MOL   C16633976   1.056   1.699   6.300  0.9226 -0.4022  0.0642
  106MOL   C16733977   1.048   1.566   6.268  0.3047  0.2605  0.2745
  106MOL   C16833978   1.159   1.481   6.266  0.6403 -0.0656 -0.3896
  106MOL   C16933979   1.285   1.533   6.290  0.2695 -0.3779  0.0650
  106MOL   C17033980   1.527   1.687   6.202 -0.3132 -0.8914  0.2748
  106MOL   H17133981   1.430   1.847   6.305  2.1899  0.2565  0.0057
  106MOL   H17233982   0.962   1.748   6.319  0.2733 -1.1211 -1.2243
  106MOL   H17333983   0.944   1.536   6.259 -0.1058  2.1022 -1.6658
  106MOL   H17433984   1.154   1.375   6.245  1.7166 -0.1888 -0.0660
  106MOL   H17533985   1.374   1.475   6.308  0.7484  0.3276 -0.0113
  106MOL   H17633986   1.511   1.581   6.186 -0.1482 -0.5018 -2.8277
  106MOL   H17733987   1.634   1.692   6.221 -0.2706 -0.8938  0.0400
  106MOL   C17833988   1.489   1.766   6.074  1.4471 -0.1693  1.1888
  106MOL   C17933989   1.452   1.676   5.956 -0.3642 -0.5790  1.1291
  106MOL   C18033990   1.319   1.673   5.905 -0.3771  0.0094  0.1881
  106MOL  Cl18133991   1.177   1.752   5.976 -0.3181 -0.6130 -0.4518
  106MOL   C18233992   1.293   1.614   5.781 -0.0376 -0.7088  0.3138
  106MOL   C18333993   1.396   1.550   5.712  0.2741 -0.6962  0.2711
  106MOL   C18433994   1.529   1.543   5.759 -0.6634  0.1676  0.1501
  106MOL   C18533995   1.556   1.611   5.882  0.1825 -0.2298  0.1281
  106MOL   C18633996   1.588   1.873   6.027 -0.6826  0.1615 -0.6532
  106MOL   H18733997   1.396   1.821   6.090 -0.2001 -2.3514 -0.6141
  106MOL   H18833998   1.195   1.597   5.738 -0.5240  2.0586  0.2426
  106MOL   H18933999   1.367   1.496   5.623 -1.2056  0.1513  0.2244
  106MOL   H19034000   1.606   1.491   5.703 -1.1623 -0.2647 -0.1366
  106MOL   H19134001   1.658   1.622   5.917 -1.0504  1.7143  3.2363
  106MOL   H19234002   1.672   1.827   5.976 -0.7734  0.8541 -1.4322
  106MOL   H19334003   1.631   1.926   6.112  1.0692  0.0197 -1.4333
  106MOL   C19434004   1.536   1.982   5.933  0.0488 -0.5707  0.3083
  106MOL   C19534005   1.651   2.030   5.839 -0.2389  0.0789  0.1679
  106MOL   C19634006   1.655   2.010   5.698 -0.1845  0.0244  0.0682
  106MOL  Cl19734007   1.525   1.923   5.613 -0.2345 -0.0400 -0.0490
  106MOL   C19834008   1.770   2.052   5.623  0.0382 -0.1769 -0.3725
  106MOL   C19934009   1.868   2.126   5.685  0.4411  0.3098 -0.2667
  106MOL   C20034010   1.870   2.146   5.823 -0.3995 -0.2984  0.0492
  106MOL   C20134011   1.760   2.103   5.898  0.0266  0.0813  0.4282
  106MOL   C20234012   1.478   2.095   6.015  0.2511 -0.2263  0.1666
  106MOL   H20334013   1.455   1.940   5.873 -0.9859  0.0519  1.2601
  106MOL   H20434014   1.770   2.030   5.517 -0.2339 -0.1336 -0.3832
  106MOL   H20534015   1.947   2.171   5.626 -0.7483 -0.4958 -2.5379
  106MOL   H20634016   1.957   2.201   5.858 -0.6306 -0.4341  0.8478
  106MOL   H20734017   1.766   2.118   6.005 -1.1158  0.3761  0.4477
  106MOL   H20834018   1.549   2.176   6.029  1.1506 -1.2972  1.9203
  106MOL   H20934019   1.468   2.059   6.117 -2.5004 -1.5668 -0.5045
  106MOL   C21034020   1.334   2.140   5.976 -0.2157  0.2739  0.4975
  106MOL   C21134021   1.329   2.204   5.834 -0.0230 -0.7208 -0.2880
  106MOL   C21234022   1.259   2.140   5.728  0.9491 -0.2070  0.2207
  106MOL  Cl21334023   1.175   1.987   5.733 -0.0082 -0.0280  0.1987
  106MOL   C21434024   1.269   2.198   5.598 -0.6467 -0.6999 -0.2897
  106MOL   C21534025   1.351   2.311   5.572 -0.0654 -0.0468 -0.7980
  106MOL   C21634026   1.410   2.371   5.680 -0.7588 -0.2317  0.3298
  106MOL   C21734027   1.396   2.325   5.807 -0.0569  1.3472  0.0418
  106MOL   C21834028   1.284   2.231   6.094 -0.4456  0.2056 -1.2467
  106MOL   H21934029   1.274   2.049   5.971  0.4500 -0.1842  0.7008
  106MOL   H22034030   1.220   2.160   5.510 -0.9285  1.8342 -1.2667
  106MOL   H22134031   1.375   2.336   5.469  2.9083 -1.6172 -0.5468
  106MOL   H22234032   1.480   2.453   5.666 -2.4272  1.3702  1.1147
  106MOL   H22334033   1.449   2.382   5.881 -0.6596  1.3639  0.4613
  106MOL   H22434034   1.351   2.315   6.110  1.9769 -1.9852  0.5836
  106MOL   H22534035   1.292   2.168   6.183 -1.2795 -1.0333 -2.0292
  106MOL   C22634036   1.138   2.271   6.082 -0.0994  0.1017  0.8080
  106MOL   C22734037   1.097   2.373   6.196  0.5526 -0.4796 -0.0949
  106MOL   C22834038   1.061   2.509   6.162  0.1730 -0.1555 -0.2843
  106MOL  Cl22934039   1.083   2.570   6.009  0.1756  0.0478 -0.1848
  106MOL   C23034040   1.020   2.596   6.262 -0.2109 -0.8601  0.1929
  106MOL   C23134041   1.022   2.555   6.398 -0.4596  0.1569  0.6904
  106MOL   C23234042   1.048   2.423   6.429 -0.1266 -0.3754 -0.1081
  106MOL   C23334043   1.086   2.332   6.329  0.1129  0.0599 -0.5558
  106MOL   C23434044   1.039   2.155   6.082 -0.0457 -0.1439 -0.0310
  106MOL   H23534045   1.121   2.323   5.988  1.1038 -2.1746 -0.6940
  106MOL   H23634046   0.982   2.694   6.237 -1.7540 -0.7061  2.8589
  106MOL   H23734047   1.012   2.628   6.477  1.1644 -0.3776  1.3956
  106MOL   H23834048   1.029   2.394   6.531 -1.7619 -1.9290 -0.8402
  106MOL   H23934049   1.123   2.232   6.343  3.1470  1.1086 -0.7510
  106MOL   H24034050   1.056   2.087   6.166 -1.7379 -1.5657 -0.8132
  106MOL   H24134051   1.060   2.095   5.994  0.8977 -0.2922  0.2896
  106MOL   C24234052   0.887   2.195   6.090  0.3781  0.0792  0.1003
  106MOL   C24334053   0.807   2.075   6.140 -0.2561  1.1765 -0.1306
  106MOL   C24434054   0.745   2.080   6.268 -0.5583 -0.0413 -0.2621
  106MOL  Cl24534055   0.751   2.213   6.380 -0.1429 -0.2525 -0.6834
  106MOL   C24634056   0.654   1.971   6.310  0.0869  0.0761 -0.0184
  106MOL   C24734057   0.658   1.853   6.237 -0.2709  0.5541  0.1515
  106MOL   C24834058   0.742   1.836   6.123 -0.3912  0.4167  0.0336
  106MOL   C24934059   0.806   1.955   6.067 -1.0974 -0.0482 -0.6946
  106MOL   C25034060   0.838   2.245   5.944 -0.4090  0.6271 -0.5971
  106MOL   H25134061   0.880   2.268   6.170 -0.0840  0.2961 -0.1368
  106MOL   H25234062   0.603   1.977   6.405  3.4280  0.3687  1.8571
  106MOL   H25334063   0.618   1.761   6.276  2.6624 -0.7830  0.1096
  106MOL   H25434064   0.740   1.743   6.068 -1.1191  1.4433 -1.7246
  106MOL   H25534065   0.859   1.947   5.974  0.8477 -1.5678  0.5209
  106MOL   H25634066   0.820   2.163   5.875 -2.5927  0.9482 -0.4423
  106MOL   H25734067   0.900   2.325   5.903 -0.7755  1.0584 -0.3204
  106MOL   C25834068   0.706   2.323   5.952 -0.0979 -0.5739 -0.6631
  106MOL   C25934069   0.666   2.367   5.809  0.3464 -0.9196  0.4017
  106MOL   C26034070   0.568   2.295   5.736  0.4944 -0.2482 -0.2113
  106MOL  Cl26134071   0.514   2.139   5.793 -0.5535 -0.4809  0.0116
  106MOL   C26234072   0.518   2.342   5.616  0.0873  0.4920  0.1730
  106MOL   C26334073   0.581   2.456   5.550 -0.1960 -0.3489 -0.8154
  106MOL   C26434074   0.678   2.528   5.621  0.3660  0.2669  0.4335
  106MOL   C26534075   0.717   2.485   5.748 -0.2786  0.2957  0.6115
  106MOL   C26634076   0.697   2.440   6.050 -0.6670 -1.0720 -0.1725
  106MOL   H26734077   0.632   2.254   5.993  0.6946 -0.9239  0.2315
  106MOL   H26834078   0.455   2.276   5.558 -0.4060 -0.1096  1.3597
  106MOL   H26934079   0.558   2.485   5.449 -0.8609  0.8026 -0.3334
  106MOL   H27034080   0.727   2.612   5.574  1.0199 -0.2940  0.1115
  106MOL   H27134081   0.792   2.536   5.807  0.3068 -1.7002  1.6427
  106MOL   H27234082   0.762   2.526   6.035 -1.0208 -0.1050  3.2142
  106MOL   H27334083   0.720   2.395   6.147 -0.5960 -1.4311 -0.3546
  106MOL   C27434084   0.550   2.488   6.082 -0.6346 -1.3664  0.4364
  106MOL   C27534085   0.559   2.626   6.151  0.4723 -0.6625 -0.9627
  106MOL   C27634086   0.485   2.736   6.094  0.1270 -0.2600  0.0942
  106MOL  Cl27734087   0.405   2.725   5.941 -0.2394  0.2582 -0.1352
  106MOL   C27834088   0.484   2.859   6.170 -0.5836  0.9450  0.5607
  106MOL   C27934089   0.554   2.875   6.294  0.1307  0.1100  0.2584
  106MOL   C28034090   0.637   2.763   6.334 -0.2105  0.1774 -0.9134
  106MOL   C28134091   0.632   2.641   6.270  1.1352  0.5507  0.0722
  106MOL   C28234092   0.467   2.379   6.164 -0.5936 -0.5663  0.3107
  106MOL   H28334093   0.498   2.483   5.986  0.6025 -1.9567 -0.2065
  106MOL   H28434094   0.440   2.945   6.120 -3.1689 -1.0714 -0.7354
  106MOL   H28534095   0.559   2.970   6.344  1.8065  0.9492 -1.4181
  106MOL   H28634096   0.691   2.771   6.427  0.9285  0.0075 -1.5550
  106MOL   H28734097   0.681   2.557   6.315  0.9400  0.5257  0.2380
  106MOL   H28834098   0.489   2.408   6.266  0.0287 -0.1038  0.0498
  106MOL   H28934099   0.512   2.280   6.156 -0.9522 -0.7006 -0.0167
  106MOL   C29034100   0.317   2.368   6.142 -0.0967 -0.7253  0.3282
  106MOL   C29134101   0.249   2.381   6.277  0.3893  0.6811 -0.7711
  106MOL   C29234102   0.199   2.503   6.312  0.8270 -0.3393  0.1987
  106MOL  Cl29334103   0.205   2.650   6.214 -0.2837 -0.2921 -0.0077
  106MOL   C29434104   0.144   2.510   6.440  0.2385 -0.1624 -0.5811
  106MOL   C29534105   0.126   2.401   6.531 -0.5783 -0.2852  0.0644
  106MOL   C29634106   0.172   2.277   6.487 -0.8797 -0.7748  0.1982
  106MOL   C29734107   0.236   2.264   6.362 -0.5310 -1.3756  0.4218
  106MOL   C29834108   0.279   2.237   6.069 -0.6442  0.7223  0.2367
  106MOL   H29934109   0.275   2.452   6.087 -0.7561  0.9445  3.2433
  106MOL   H30034110   0.093   2.601   6.467  0.1329 -0.5689  0.6580
  106MOL   H30134111   0.085   2.414   6.630 -0.1759  0.2382  0.1651
  106MOL   H30234112   0.151   2.185   6.540 -0.2182 -0.0361  1.7763
  106MOL   H30334113   0.262   2.162   6.341 -0.9855 -1.5624  0.7472
  106MOL   H30434114   0.269   2.151   6.134  0.4365  0.9073  0.6529
  106MOL   H30534115   0.358   2.205   6.001 -1.5367 -1.4857  0.2134
  106MOL   C30634116   0.144   2.239   5.994 -0.0770  0.1588  0.0712
  106MOL   C30734117   0.090   2.096   5.983 -0.2652 -0.3774  0.1528
  106MOL   C30834118   8.410   2.052   6.074 -0.5162  0.0613  0.3235
  106MOL  Cl30934119   8.340   2.158   6.197 -0.0836  0.1469  0.2377
  106MOL   C31034120   8.357   1.916   6.064 -0.2977 -0.6824 -0.4151
  106MOL   C31134121   8.399   1.836   5.960 -0.6454  0.5341  0.2285
  106MOL   C31234122   0.064   1.881   5.859  0.7668 -0.1933  0.0224
  106MOL   C31334123   0.127   2.010   5.876  0.6285  0.2897  0.6424
  106MOL   C31434124   0.147   2.307   5.860 -0.5411  0.0487 -0.1641
  106MOL   H31534125   0.067   2.298   6.043 -1.1639 -2.8330  2.1294
  106MOL   H31634126   8.282   1.887   6.136  1.3223  3.8087  3.3812
  106MOL   H31734127   8.357   1.737   5.950  1.7177 -0.3752 -1.0270
  106MOL   H31834128   0.092   1.812   5.781 -0.7383 -0.0305 -0.6803
  106MOL   H31934129   0.208   2.032   5.808  1.4710 -0.0697  1.5266
  106MOL   H32034130   0.050   2.301   5.809 -0.5777 -0.8228  0.0067
  106MOL   H32134131   0.209   2.256   5.786 -1.0018 -0.4557 -0.2068
  106MOL   H32234132   0.176   2.412   5.866  2.4620 -0.7782  0.3201
  107MOL     C134133   5.196   1.203   8.322 -0.0736  0.0377 -0.0276
  107MOL     C234134   5.242   1.198   8.181  0.1223  0.3251 -0.2806
  107MOL     C334135   5.248   1.064   8.124  0.3022  0.2603 -0.6156
  107MOL    Cl434136   5.224   0.912   8.202  0.0837 -0.1234 -0.0617
  107MOL     C534137   5.281   1.058   7.986  1.3188  0.2646 -0.0646
  107MOL     C634138   5.298   1.174   7.906  0.0420  0.3758 -0.7517
  107MOL     C734139   5.294   1.302   7.967  0.2799  0.1337  0.8516
  107MOL     C834140   5.267   1.314   8.101  0.4106 -0.0281 -0.3543
  107MOL     C934141   5.064   1.282   8.347  0.4752 -0.3024 -0.0015
  107MOL    H1034142   5.184   1.103   8.362 -0.1429 -0.0790 -0.3397
  107MOL    H1134143   5.307   0.962   7.944 -0.6243 -0.8138  1.1478
  107MOL    H1234144   5.304   1.164   7.799 -0.3570  1.0543 -0.8412
  107MOL    H1334145   5.307   1.393   7.910  1.9320 -2.2601 -2.8025
  107MOL    H1434146   5.273   1.412   8.146  3.0685 -0.6918  0.8389
  107MOL    H1534147   4.978   1.225   8.312 -1.2067  0.6546  2.4403
  107MOL    H1634148   5.073   1.374   8.290 -0.2710 -1.7393 -2.4705
  107MOL    H1734149   5.284   1.245   8.371 -0.9762  1.9217  0.0185
  107MOL    C1834150   5.046   1.342   0.066  0.2241  0.5949 -0.1910
  107MOL    C1934151   5.030   1.228   0.177  0.4477 -0.0693  0.7206
  107MOL    C2034152   5.067   1.253   0.307  0.7880 -0.1226 -0.5294
  107MOL   Cl2134153   5.138   1.402   0.360 -0.2620 -0.1680 -0.1925
  107MOL    C2234154   5.040   1.151   0.406  0.5549 -0.7275  0.1856
  107MOL    C2334155   4.978   1.032   0.362 -0.3737  0.3674 -0.3054
  107MOL    C2434156   4.934   1.011   0.231  0.0154 -0.1689  1.0044
  107MOL    C2534157   4.959   1.111   0.139  0.1592  0.0786  0.7293
  107MOL    C2634158   4.920   1.422   0.078 -0.1126 -0.4441 -0.9983
  107MOL    H2734159   5.138   1.395   0.091  1.2453 -1.7821  1.2778
  107MOL    H2834160   5.061   1.181   0.508  0.1044 -0.3464  0.1694
  107MOL    H2934161   4.956   0.966   0.444  0.3261  1.1824  0.5529
  107MOL    H3034162   4.889   0.913   0.217 -2.2194  0.8789  0.6898
  107MOL    H3134163   4.932   1.088   0.037 -0.4784  0.9202  0.6976
  107MOL    H3234164   4.920   1.455   0.182 -0.5872 -0.7497 -0.8943
  107MOL    H3334165   4.837   1.352   0.063  0.1897 -0.6792 -1.5998
  107MOL    C3434166   4.903   1.546   8.417  0.5889 -1.2278 -0.2190
  107MOL    C3534167   5.027   1.640   0.014  0.5496  0.8325 -0.1523
  107MOL    C3634168   5.103   1.682   8.321  0.0875  0.2511  0.0016
  107MOL   Cl3734169   5.064   1.635   8.160  0.4973  0.0581 -0.1114
  107MOL    C3834170   5.204   1.774   8.338 -0.9044  0.4473  0.3161
  107MOL    C3934171   5.234   1.825   0.043  0.3685 -0.3663 -0.3972
  107MOL    C4034172   5.155   1.788   0.156 -0.2213 -0.8872 -0.1074
  107MOL    C4134173   5.053   1.698   0.142 -0.3115  0.2482 -0.0897
  107MOL    C4234174   4.772   1.633   0.033  0.0924  0.5618 -0.0535
  107MOL    H4334175   4.880   1.512   8.316 -0.0706  0.0838 -0.5204
  107MOL    H4434176   5.262   1.805   8.252  0.2892 -0.2105  0.8598
  107MOL    H4534177   5.324   1.882   0.062 -0.1278 -0.4574  2.5654
  107MOL    H4634178   5.169   1.839   0.250  1.3101  0.4070 -0.9982
  107MOL    H4734179   4.997   1.674   0.231 -1.0924  0.6445 -0.4640
  107MOL    H4834180   4.769   1.733   8.410  0.4046  1.3836  1.7683
  107MOL    H4934181   4.772   1.653   0.140  0.4954 -0.7669  0.2059
  107MOL    C5034182   4.634   1.568   8.414 -0.1100  0.6106  0.2094
  107MOL    C5134183   4.624   1.568   8.260  0.7542  0.3077 -0.1718
  107MOL    C5234184   4.657   1.451   8.182 -0.1589  0.5987  0.7411
  107MOL   Cl5334185   4.668   1.296   8.253  0.3136 -0.0538  0.1639
  107MOL    C5434186   4.675   1.465   8.044  0.3391 -0.3199  0.5172
  107MOL    C5534187   4.639   1.576   7.974 -0.4801  0.4725  0.2153
  107MOL    C5634188   4.595   1.685   8.047 -0.7537  0.5164 -0.0577
  107MOL    C5734189   4.587   1.687   8.193  0.0121 -0.2994  0.1030
  107MOL    C5834190   4.511   1.630   0.068 -0.3581  0.4309 -0.0437
  107MOL    H5934191   4.651   1.464   0.022  2.4946  0.5141 -1.5500
  107MOL    H6034192   4.711   1.380   7.988  2.3585 -1.7280  3.8739
  107MOL    H6134193   4.651   1.579   7.867  3.5163  0.6898  0.5837
  107MOL    H6234194   4.555   1.767   7.990  0.2630 -0.4867 -2.2987
  107MOL    H6334195   4.543   1.769   8.247 -1.5936 -0.2548 -1.2621
  107MOL    H6434196   4.427   1.580   0.021  0.4203 -1.3823  0.4679
  107MOL    H6534197   4.501   1.738   0.052 -1.8852  0.2585 -0.2846
  107MOL    C6634198   4.502   1.602   0.221  0.1211  0.0356 -0.6795
  107MOL    C6734199   4.551   1.463   0.265  0.2842 -0.1721 -0.0942
  107MOL    C6834200   4.670   1.451   0.350 -1.0736  1.4246 -0.0386
  107MOL   Cl6934201   4.754   1.581   0.426  0.4140  0.2960  0.2303
  107MOL    C7034202   4.719   1.318   0.387  0.6490 -0.2403  0.3731
  107MOL    C7134203   4.649   1.204   0.336  0.0365 -0.1307 -0.1984
  107MOL    C7234204   4.536   1.221   0.251 -0.3512  0.0135 -0.0039
  107MOL    C7334205   4.484   1.345   0.219 -0.4473  0.0261  0.0632
  107MOL    C7434206   4.365   1.635   0.282 -0.7543 -0.2435 -0.1463
  107MOL    H7534207   4.577   1.673   0.256 -2.3370  2.1330  0.5183
  107MOL    H7634208   4.802   1.298   0.453 -0.3483 -1.7503  1.1945
  107MOL    H7734209   4.695   1.108   0.355  0.3931 -0.1858 -1.2733
  107MOL    H7834210   4.492   1.129   0.215 -0.3180  0.3363 -0.8747
  107MOL    H7934211   4.410   1.364   0.143 -0.0560  2.9289  0.3599
  107MOL    H8034212   4.375   1.610   0.387 -3.2993 -0.1621  0.1664
  107MOL    H8134213   4.305   1.555   0.237 -1.8673  0.0961  0.7213
  107MOL    C8234214   4.327   1.787   0.262  0.2249 -0.2434  0.5154
  107MOL    C8334215   4.441   1.881   0.317  0.1247  0.3300  0.1908
  107MOL    C8434216   4.481   1.998   0.247 -0.4038 -0.0213 -0.1927
  107MOL   Cl8534217   4.425   2.047   0.096  0.2037 -0.1178 -0.2363
  107MOL    C8634218   4.575   2.087   0.304  0.0025  0.1328  0.1397
  107MOL    C8734219   4.635   2.062   0.425  0.0080  0.0587 -0.0261
  107MOL    C8834220   4.595   1.946   0.497  1.1243  0.5670 -0.9303
  107MOL    C8934221   4.492   1.862   0.449 -0.4386  0.2232 -0.2449
  107MOL    C9034222   4.195   1.833   0.323  0.2461 -0.8488  0.3437
  107MOL    H9134223   4.309   1.799   0.155  1.2121 -0.2372  0.3459
  107MOL    H9234224   4.593   2.184   0.260 -2.6522  0.8593  0.5506
  107MOL    H9334225   4.715   2.127   0.457 -0.3479  0.7005 -0.4434
  107MOL    H9434226   4.655   1.922   0.584  0.5577 -0.4756 -0.8070
  107MOL    H9534227   4.458   1.779   0.509 -0.5445  0.1051 -0.4653
  107MOL    H9634228   4.174   1.940   0.316 -0.6854 -0.9872  0.9059
  107MOL    H9734229   4.204   1.838   0.431  0.7742  2.1261  0.1873
  107MOL    C9834230   4.067   1.757   0.273 -0.5321  0.5249 -0.2855
  107MOL    C9934231   4.040   1.782   0.127 -1.1529 -0.0584 -0.1158
  107MOL   C10034232   4.043   1.681   0.030  0.2744  0.2556  0.8048
  107MOL  Cl10134233   4.077   1.516   0.060  0.5145 -0.3422  0.0087
  107MOL   C10234234   4.004   1.715   8.323 -0.2062 -0.4693  0.0461
  107MOL   C10334235   3.981   1.851   8.282 -0.8130 -0.5241  0.4180
  107MOL   C10434236   3.984   1.953   8.382 -0.2073 -0.3896 -0.0039
  107MOL   C10534237   4.006   1.916   0.089  0.2936 -0.1704  0.0017
  107MOL   C10634238   3.943   1.791   0.367  0.3038 -0.2046 -0.1689
  107MOL   H10734239   4.103   1.654   0.283 -0.0209  0.8374  1.3800
  107MOL   H10834240   3.988   1.630   8.258  3.1488 -1.6843  0.7540
  107MOL   H10934241   3.962   1.865   8.177  1.8361 -3.5033 -0.5459
  107MOL   H11034242   3.958   2.056   8.361  0.2858  0.2562  2.4415
  107MOL   H11134243   4.000   2.001   0.156 -0.1243  1.3076 -1.8906
  107MOL   H11234244   3.855   1.762   0.309 -0.1724  0.5485  0.1555
  107MOL   H11334245   3.933   1.900   0.365 -0.2648 -0.2662 -2.5464
  107MOL   C11434246   3.940   1.726   0.505  0.0855 -0.1305 -0.4517
  107MOL   C11534247   3.931   1.572   0.484 -1.1973  0.0734  0.2602
  107MOL   C11634248   4.042   1.495   0.514  0.2921 -0.3399  0.0336
  107MOL  Cl11734249   4.183   1.557   0.580 -0.0840 -0.3566  0.5319
  107MOL   C11834250   4.030   1.353   0.500 -0.8481 -0.4576 -0.1978
  107MOL   C11934251   3.913   1.294   0.444 -0.7021  0.1234 -0.6157
  107MOL   C12034252   3.805   1.380   0.409  0.9356  0.3949 -0.0865
  107MOL   C12134253   3.816   1.520   0.424 -0.8822  0.1627  0.1901
  107MOL   C12234254   3.826   1.767   0.597  0.1835 -0.0248 -0.4808
  107MOL   H12334255   4.032   1.767   0.546 -1.3428  1.5021  1.2203
  107MOL   H12434256   4.114   1.293   0.532 -1.0770 -0.3621  0.5816
  107MOL   H12534257   3.927   1.196   0.401 -0.5002 -0.3141  0.4207
  107MOL   H12634258   3.715   1.337   0.367 -0.7760  1.7606  2.0355
  107MOL   H12734259   3.733   1.582   0.397 -0.3780  0.0684 -1.6234
  107MOL   H12834260   3.840   1.707   0.687 -0.9312 -2.5288 -1.9447
  107MOL   H12934261   3.734   1.720   0.564 -1.3420  1.3173  1.7206
  107MOL   C13034262   3.791   1.917   0.633 -0.6376  0.1332 -0.0297
  107MOL   C13134263   3.906   1.972   0.717 -0.4015 -0.4362 -0.7733
  107MOL   C13234264   3.953   2.105   0.689 -0.3068  0.6326 -0.1354
  107MOL  Cl13334265   3.891   2.204   0.559  0.0421 -0.1824 -0.3209
  107MOL   C13434266   4.060   2.162   0.758  0.2515 -0.4956 -0.0424
  107MOL   C13534267   4.114   2.092   0.864  0.3458 -0.3141 -0.2457
  107MOL   C13634268   4.071   1.960   0.893 -0.0381 -0.0692 -0.6124
  107MOL   C13734269   3.966   1.898   0.819 -0.1841 -0.3925 -0.7717
  107MOL   C13834270   3.660   1.928   0.716 -0.5865 -0.1088 -0.0634
  107MOL   H13934271   3.787   1.973   0.540 -1.3959  1.5099  0.8158
  107MOL   H14034272   4.098   2.258   0.725  0.2565 -0.8320 -1.0242
  107MOL   H14134273   4.194   2.135   0.922 -0.2037  2.8303 -1.6756
  107MOL   H14234274   4.123   1.902   0.968  0.6542 -1.8189 -2.3963
  107MOL   H14334275   3.950   1.795   0.849 -0.5018 -0.1269 -0.0130
  107MOL   H14434276   3.662   2.028   0.760 -1.1562  0.7400 -1.9077
  107MOL   H14534277   3.674   1.864   0.803  2.3894 -1.1188 -1.2325
  107MOL   C14634278   3.518   1.893   0.656 -0.7614  0.0386 -0.3470
  107MOL   C14734279   3.499   1.972   0.529 -0.4502  0.2441 -0.2162
  107MOL   C14834280   3.482   1.907   0.402 -0.0724 -0.8457 -0.2238
  107MOL  Cl14934281   3.500   1.737   0.375  0.0106  0.2205 -0.0245
  107MOL   C15034282   3.457   1.983   0.285  0.6239 -0.4184  0.3920
  107MOL   C15134283   3.473   2.124   0.288 -0.4733  0.3330  0.3169
  107MOL   C15234284   3.490   2.189   0.414 -0.2898  0.0407 -0.9499
  107MOL   C15334285   3.497   2.113   0.531 -0.7332  0.3176 -1.0448
  107MOL   C15434286   3.405   1.918   0.752 -0.1658 -0.2108 -0.0022
  107MOL   H15534287   3.534   1.786   0.638 -1.0925  0.1483 -1.3147
  107MOL   H15634288   3.455   1.939   0.186 -1.3788 -1.1262  0.7293
  107MOL   H15734289   3.461   2.177   0.194  0.2149 -1.5343 -0.8497
  107MOL   H15834290   3.503   2.296   0.415  2.0118 -0.2115 -0.1687
  107MOL   H15934291   3.511   2.163   0.626  0.4742  1.1198 -1.6332
  107MOL   H16034292   3.414   2.018   0.794 -0.6183 -0.7704  1.4649
  107MOL   H16134293   3.423   1.854   0.839  0.3069  0.8824  0.7098
  107MOL   C16234294   3.255   1.899   0.711  0.2528  0.2601  0.0225
  107MOL   C16334295   3.204   1.760   0.666  0.5197  0.4321 -0.2755
  107MOL   C16434296   3.156   1.661   0.762 -0.4396  0.5790  0.5926
  107MOL  Cl16534297   3.173   1.678   0.934 -0.0159  0.1449 -0.3034
  107MOL   C16634298   3.094   1.543   0.714  0.1052 -0.0372 -0.0387
  107MOL   C16734299   3.072   1.528   0.576  0.8239  0.0160 -0.1615
  107MOL   C16834300   3.110   1.626   0.481 -0.2507 -0.3428  0.1513
  107MOL   C16934301   3.174   1.740   0.530  0.6418 -0.4376  0.4409
  107MOL   C17034302   3.188   2.014   0.633 -0.4525  1.0324 -0.5350
  107MOL   H17134303   3.217   1.907   0.813  2.4811  0.4904  0.8731
  107MOL   H17234304   3.054   1.470   0.783 -0.0443  1.2599  1.2720
  107MOL   H17334305   3.035   1.433   0.539  0.6649 -0.2659  0.7079
  107MOL   H17434306   3.113   1.612   0.374 -1.0463  1.2567 -0.0914
  107MOL   H17534307   3.203   1.812   0.455 -1.7075 -1.4780 -1.5467
  107MOL   H17634308   3.092   1.974   0.600  0.1350 -0.9711  0.1128
  107MOL   H17734309   3.238   2.029   0.538  1.7769 -1.1810  0.2543
  107MOL   C17834310   3.163   2.146   0.715 -0.3881 -0.0810 -0.4197
  107MOL   C17934311   3.082   2.118   0.846 -0.2660 -0.1173  0.2997
  107MOL   C18034312   3.111   2.191   0.967  0.3719 -0.2485 -0.5274
  107MOL  Cl18134313   3.253   2.286   0.980  0.1266  0.0547 -0.2960
  107MOL   C18234314   3.039   2.148   1.081 -0.4248  0.2888 -1.2196
  107MOL   C18334315   2.932   2.056   1.079 -0.0960  0.0794  0.8918
  107MOL   C18434316   2.893   1.996   0.955 -0.6460 -0.2196  0.5745
  107MOL   C18534317   2.966   2.033   0.840 -0.6972  0.5182  0.1776
  107MOL   C18634318   3.089   2.248   0.630 -0.0569 -0.5429 -0.3798
  107MOL   H18734319   3.263   2.187   0.732 -0.8120  1.1815 -0.9039
  107MOL   H18834320   3.068   2.192   1.175  1.5454 -0.3928 -1.4758
  107MOL   H18934321   2.897   2.026   1.176  0.6045 -1.7722  0.5906
  107MOL   H19034322   2.818   1.918   0.959 -0.9349 -0.0487 -1.3216
  107MOL   H19134323   2.934   1.986   0.748  0.6294 -2.2788  1.0883
  107MOL   H19234324   2.985   2.230   0.657  0.2876  0.0786  1.4570
  107MOL   H19334325   3.100   2.229   0.523 -0.8228 -2.5286 -0.1281
  107MOL   C19434326   3.133   2.400   0.651  0.2733  0.2359  0.2928
  107MOL   C19534327   3.017   2.500   0.644 -0.2936  0.1997  0.6755
  107MOL   C19634328   2.990   2.589   0.750 -0.6455  0.4598  0.0057
  107MOL  Cl19734329   3.105   2.610   0.881  0.1782  0.6986 -0.0151
  107MOL   C19834330   2.871   2.670   0.747 -0.0657  0.2712  0.0494
  107MOL   C19934331   2.782   2.654   0.637  0.5147  0.3729  0.6147
  107MOL   C20034332   2.808   2.568   0.530  0.1952  0.2463 -1.6380
  107MOL   C20134333   2.926   2.490   0.537  0.0032 -0.0959  0.0787
  107MOL   C20234334   3.246   2.424   0.536 -0.3300 -0.4003  0.4204
  107MOL   H20334335   3.179   2.414   0.749  2.4653 -0.3575 -0.6231
  107MOL   H20434336   2.853   2.740   0.827 -0.8678 -0.1379  0.2278
  107MOL   H20534337   2.690   2.711   0.646  0.5069  0.3796  0.5015
  107MOL   H20634338   2.737   2.565   0.448 -1.0549 -0.5769 -0.5560
  107MOL   H20734339   2.946   2.425   0.453 -0.9612 -1.1644  0.6461
  107MOL   H20834340   3.234   2.372   0.441  1.4286  0.4376 -0.2844
  107MOL   H20934341   3.329   2.375   0.587  0.6191 -0.1946 -0.9134
  107MOL   C21034342   3.283   2.576   0.511 -0.2956  1.0519 -0.0395
  107MOL   C21134343   3.191   2.644   0.404 -0.2807  0.4938  0.6323
  107MOL   C21234344   3.128   2.768   0.422  0.2110  0.0004 -0.1193
  107MOL  Cl21334345   3.142   2.862   0.566  0.0402 -0.1949  0.1411
  107MOL   C21434346   3.048   2.817   0.323 -0.0880 -0.8946  0.8446
  107MOL   C21534347   3.036   2.753   0.196  0.2695 -0.1683 -0.1511
  107MOL   C21634348   3.112   2.639   0.170  0.0502 -0.5832 -0.5206
  107MOL   C21734349   3.189   2.589   0.273  0.0399  0.6160 -0.1844
  107MOL   C21834350   3.436   2.591   0.470  0.5880 -0.5908  0.2305
  107MOL   H21934351   3.275   2.630   0.605 -0.2579 -1.0641  1.1918
  107MOL   H22034352   2.987   2.904   0.341 -0.5300 -1.0607  0.1742
  107MOL   H22134353   2.962   2.787   0.125  1.5478  2.6879 -0.1640
  107MOL   H22234354   3.108   2.577   0.081  2.9569 -2.2263  0.4445
  107MOL   H22334355   3.243   2.499   0.251 -0.6598  0.2048 -0.2056
  107MOL   H22434356   3.444   2.654   0.382  0.1844 -1.8026 -0.6885
  107MOL   H22534357   3.485   2.502   0.433  1.1161 -0.1911 -0.0294
  107MOL   C22634358   3.527   2.650   0.587  0.2002 -0.1256 -0.5605
  107MOL   C22734359   3.663   2.694   0.534  0.2803  0.4048  0.5877
  107MOL   C22834360   3.708   2.827   0.533 -0.7430  0.5280 -0.2035
  107MOL  Cl22934361   3.624   2.961   0.589  0.1098  0.1831 -0.3064
  107MOL   C23034362   3.845   2.855   0.503 -0.6385  0.3081  0.1307
  107MOL   C23134363   3.937   2.759   0.461  0.2420 -0.2748 -0.0611
  107MOL   C23234364   3.894   2.625   0.462  0.5548  0.2070  0.5222
  107MOL   C23334365   3.761   2.596   0.497 -0.0270  0.0602 -0.6224
  107MOL   C23434366   3.538   2.557   0.708  0.0887  0.9922 -0.4361
  107MOL   H23534367   3.475   2.739   0.623  0.3506 -1.1659  2.3084
  107MOL   H23634368   3.869   2.961   0.503 -3.2154  0.9493  1.8983
  107MOL   H23734369   4.042   2.781   0.467  0.0891  0.7328 -0.9879
  107MOL   H23834370   3.959   2.541   0.441  1.4837  0.4427  2.3797
  107MOL   H23934371   3.732   2.492   0.487 -0.3140  0.2169 -1.5157
  107MOL   H24034372   3.585   2.465   0.670 -1.5306  0.2424 -0.6515
  107MOL   H24134373   3.440   2.530   0.746  0.9216 -0.8876  0.4879
  107MOL   C24234374   3.632   2.607   0.829  0.1790  0.0282  0.3595
  107MOL   C24334375   3.691   2.480   0.898  0.8733 -0.2903  0.6107
  107MOL   C24434376   3.830   2.459   0.910  0.2152 -0.2129  0.8873
  107MOL  Cl24534377   3.947   2.577   0.855  0.0015  0.0688 -0.2361
  107MOL   C24634378   3.878   2.342   0.974 -0.2553 -0.3802 -0.0066
  107MOL   C24734379   3.779   2.246   1.022 -0.3221 -1.0290 -0.7470
  107MOL   C24834380   3.643   2.264   0.996  0.6816  0.1483 -0.5074
  107MOL   C24934381   3.594   2.381   0.938 -0.3103 -0.5503  0.1979
  107MOL   C25034382   3.562   2.698   0.922  0.0132  0.7014 -0.0121
  107MOL   H25134383   3.716   2.663   0.789  0.4180 -1.3609 -1.1852
  107MOL   H25234384   3.984   2.330   0.992 -0.1543 -0.5739 -0.7172
  107MOL   H25334385   3.819   2.158   1.070 -1.6626 -1.0427  0.3820
  107MOL   H25434386   3.585   2.185   1.041  1.1889  0.4445  0.7016
  107MOL   H25534387   3.487   2.395   0.928 -0.3598  0.7141  2.3301
  107MOL   H25634388   3.493   2.638   0.982 -0.2119 -1.7049 -2.5715
  107MOL   H25734389   3.486   2.760   0.873  0.0322  0.7745  0.0500
  107MOL   C25834390   3.639   2.782   1.017 -0.2700  0.5108 -0.2724
  107MOL   C25934391   3.546   2.840   1.129  0.1022  0.0919 -0.4605
  107MOL   C26034392   3.519   2.766   1.246  0.5748  0.6092  0.7940
  107MOL  Cl26134393   3.618   2.625   1.288  0.2710 -0.2027 -0.2928
  107MOL   C26234394   3.423   2.812   1.336 -0.3126  0.3532 -0.4360
  107MOL   C26334395   3.331   2.910   1.291  0.1357 -0.1704 -0.5359
  107MOL   C26434396   3.365   2.994   1.179 -0.1112 -0.9597  0.7040
  107MOL   C26534397   3.471   2.956   1.097  0.1309  0.7780  0.3028
  107MOL   C26634398   3.718   2.899   0.938  0.7825  0.5399 -0.3569
  107MOL   H26734399   3.719   2.722   1.061  1.8600  0.5387 -3.9408
  107MOL   H26834400   3.410   2.751   1.424 -0.5414  2.1441  0.7932
  107MOL   H26934401   3.251   2.941   1.357  0.0511 -3.0725  0.8023
  107MOL   H27034402   3.307   3.082   1.156  0.5592 -0.9393 -0.9291
  107MOL   H27134403   3.499   3.010   1.008 -3.3781 -0.3929 -1.5977
  107MOL   H27234404   3.649   2.970   0.894 -0.2756 -0.5849 -0.5373
  107MOL   H27334405   3.784   2.863   0.859 -0.0248 -1.5451 -0.1152
  107MOL   C27434406   3.814   2.977   1.033 -0.5740  0.7437 -0.3903
  107MOL   C27534407   3.842   3.116   0.977 -0.1000  0.1704 -0.2302
  107MOL   C27634408   3.822   3.226   1.058 -0.0852 -1.0081  0.5734
  107MOL  Cl27734409   3.785   3.210   1.221  0.2651  0.2274 -0.4447
  107MOL   C27834410   3.858   3.353   1.007 -0.0014 -0.7557  0.0185
  107MOL   C27934411   3.878   3.369   0.868 -0.4871 -0.1023  0.4614
  107MOL   C28034412   3.890   3.258   0.787 -0.6344 -0.2097  0.0182
  107MOL   C28134413   3.870   3.132   0.840 -0.1134 -0.0743  0.0674
  107MOL   C28234414   3.942   2.898   1.062  0.6406  0.0773  0.0921
  107MOL   H28334415   3.762   2.987   1.128 -0.2483  0.6538 -0.2032
  107MOL   H28434416   3.865   3.440   1.071  1.0093  1.7334 -3.3453
  107MOL   H28534417   3.890   3.463   0.817 -1.4662  0.7842  1.8361
  107MOL   H28634418   3.908   3.267   0.681 -0.1616 -4.3567 -0.3575
  107MOL   H28734419   3.879   3.043   0.780 -0.7804  0.7448 -1.2637
  107MOL   H28834420   4.014   2.922   0.984 -1.0668  0.9949 -1.2186
  107MOL   H28934421   3.926   2.790   1.062 -0.0256  0.1742 -0.4455
  107MOL   C29034422   4.003   2.943   1.194  0.1128  0.2590  0.0725
  107MOL   C29134423   4.159   2.944   1.201 -0.0432  0.0231 -0.0915
  107MOL   C29234424   4.240   3.063   1.206  0.1235  0.3015 -0.1137
  107MOL  Cl29334425   4.167   3.226   1.192 -0.5244  0.0609 -0.0828
  107MOL   C29434426   4.376   3.054   1.225  0.1362 -0.4869 -0.1538
  107MOL   C29534427   4.436   2.932   1.238  0.2731 -0.5124 -0.3409
  107MOL   C29634428   4.365   2.808   1.230 -0.6736 -0.1123 -0.5032
  107MOL   C29734429   4.227   2.819   1.211 -0.6456 -0.5141  0.6085
  107MOL   C29834430   3.931   2.866   1.313 -0.2148  0.2981  0.9499
  107MOL   H29934431   3.973   3.047   1.209  2.0389  0.8658 -0.1547
  107MOL   H30034432   4.441   3.139   1.238 -0.2445  0.0783 -1.8224
  107MOL   H30134433   4.540   2.925   1.262 -0.1016  1.7622  2.1115
  107MOL   H30234434   4.413   2.712   1.245  1.1325  1.1346  1.9852
  107MOL   H30334435   4.170   2.727   1.217 -1.3170 -0.1442  0.0672
  107MOL   H30434436   3.946   2.761   1.289 -2.3431  0.0075  0.7820
  107MOL   H30534437   3.823   2.875   1.302 -0.4070  0.6316  3.0613
  107MOL   C30634438   3.985   2.892   1.455 -0.0775 -0.6973  0.1277
  107MOL   C30734439   3.922   2.798   1.552  0.2790 -0.5135 -0.0488
  107MOL   C30834440   3.980   2.677   1.593 -0.0215  0.0502 -0.3860
  107MOL  Cl30934441   4.134   2.622   1.550 -0.1668 -0.1315  0.0215
  107MOL   C31034442   3.904   2.601   1.687 -1.1072 -0.0666 -0.4441
  107MOL   C31134443   3.781   2.633   1.738  0.0302 -0.0723  0.1728
  107MOL   C31234444   3.719   2.745   1.679 -0.0287  1.0182 -0.1098
  107MOL   C31334445   3.793   2.828   1.590 -0.8766 -0.1252  0.3497
  107MOL   C31434446   3.977   3.032   1.508  0.4912  0.3909  0.3979
  107MOL   H31534447   4.088   2.859   1.453  0.0566 -0.2608 -0.3410
  107MOL   H31634448   3.955   2.509   1.710  0.0944  0.6458 -0.2085
  107MOL   H31734449   3.728   2.567   1.805 -0.1002  1.2170  1.3772
  107MOL   H31834450   3.618   2.777   1.703  0.0304  0.3979  0.9893
  107MOL   H31934451   3.746   2.915   1.546  3.6350  1.0056 -2.4851
  107MOL   H32034452   4.027   3.097   1.436 -0.8274  0.3192 -0.6055
  107MOL   H32134453   4.029   3.051   1.602  1.2994 -0.3433  0.1023
  107MOL   H32234454   3.875   3.071   1.502  0.0116 -0.7927  0.8243
  108MOL     C134455   3.401   7.827   8.281  0.0223 -0.7663 -0.7040
  108MOL     C234456   3.331   7.917   8.379  0.4129  0.0990 -0.6556
  108MOL     C334457   3.194   7.901   8.401 -0.1383 -0.2393  0.1989
  108MOL    Cl434458   3.098   7.778   8.317  0.0600 -0.2246 -0.1514
  108MOL     C534459   3.121   7.988   0.067 -0.5133 -0.0047  0.3178
  108MOL     C634460   3.189   8.094   0.129  0.5469  0.4685 -0.7038
  108MOL     C734461   3.327   8.106   0.117 -0.2488 -0.3900 -0.2295
  108MOL     C834462   3.398   8.018   0.028  0.8937 -0.0697 -0.1543
  108MOL     C934463   3.473   7.706   8.343 -0.0719 -0.2697 -0.2425
  108MOL    H1034464   3.331   7.782   8.211  1.2372 -2.3631 -0.9176
  108MOL    H1134465   3.013   7.984   0.070 -0.5457  1.3211  1.4945
  108MOL    H1234466   3.142   8.165   0.195  0.0469 -0.3900 -0.1321
  108MOL    H1334467   3.387   8.187   0.155 -0.6403  0.2319 -0.9254
  108MOL    H1434468   3.503   8.040   0.021  0.4044  1.8310 -1.9484
  108MOL    H1534469   3.409   7.648   8.410  1.8336 -0.1202  1.7574
  108MOL    H1634470   3.548   7.746   8.410 -0.3407 -0.7108  0.3269
  108MOL    H1734471   3.477   7.884   8.229 -0.1432 -1.5807 -1.8544
  108MOL    C1834472   3.529   7.614   8.230  0.3865 -0.7740  0.2692
  108MOL    C1934473   3.414   7.545   8.159 -0.3801 -0.7468 -0.0467
  108MOL    C2034474   3.390   7.559   8.023  0.2441 -0.4288 -0.0581
  108MOL   Cl2134475   3.500   7.649   7.928 -0.1218  0.1854  0.4159
  108MOL    C2234476   3.279   7.498   7.960 -0.1436  0.4827  0.1055
  108MOL    C2334477   3.192   7.424   8.040 -0.9432  0.1282  0.2647
  108MOL    C2434478   3.221   7.401   8.174  0.3205  0.0938 -0.9815
  108MOL    C2534479   3.328   7.467   8.237  0.5048 -0.6463  0.8237
  108MOL    C2634480   3.624   7.503   8.284 -0.4554  0.4916  0.2921
  108MOL    H2734481   3.586   7.677   8.162 -3.5186  0.9594 -1.5334
  108MOL    H2834482   3.258   7.517   7.856 -1.7711  0.0431  0.3415
  108MOL    H2934483   3.104   7.384   7.992 -2.5384  1.9010  1.6593
  108MOL    H3034484   3.159   7.346   8.242 -0.9574 -0.2209 -2.3679
  108MOL    H3134485   3.335   7.461   8.345 -1.3043  0.7999  1.0426
  108MOL    H3234486   3.640   7.414   8.223  0.2798  0.8984 -0.1133
  108MOL    H3334487   3.579   7.460   8.373  1.5028  0.9471  1.5504
  108MOL    C3434488   3.762   7.561   8.321 -0.1711 -0.1601 -0.2456
  108MOL    C3534489   3.843   7.618   8.202 -0.3142  0.2059 -0.5306
  108MOL    C3634490   3.887   7.750   8.202  0.1652  0.3533  0.3897
  108MOL   Cl3734491   3.870   7.857   8.329  0.2536  0.1896 -0.3034
  108MOL    C3834492   3.951   7.799   8.084 -0.0634 -0.6793 -0.6692
  108MOL    C3934493   3.962   7.724   7.967 -0.4525 -0.0150 -0.4277
  108MOL    C4034494   3.907   7.593   7.966  0.6809 -0.4364 -0.3007
  108MOL    C4134495   3.850   7.543   8.086 -0.5432 -0.3068  0.4044
  108MOL    C4234496   3.846   7.453   8.392 -0.2066  0.1970 -0.1906
  108MOL    H4334497   3.750   7.634   8.401  0.9265  1.4374 -1.4971
  108MOL    H4434498   3.987   7.900   8.076  0.1878 -0.4686  2.4906
  108MOL    H4534499   4.005   7.767   7.878 -2.6837 -0.2885 -1.6595
  108MOL    H4634500   3.922   7.541   7.872  0.1312 -0.3822 -0.4209
  108MOL    H4734501   3.817   7.440   8.082 -1.7384  0.0541  0.5504
  108MOL    H4834502   3.949   7.486   8.386  0.0593 -0.6713 -0.3728
  108MOL    H4934503   3.839   7.370   8.323  0.0914  0.2695 -0.3067
  108MOL    C5034504   3.803   7.414   0.120  0.7471  0.5112 -0.7699
  108MOL    C5134505   3.791   7.542   0.202 -0.2012 -0.0250 -0.3487
  108MOL    C5234506   3.664   7.578   0.255  0.3248 -0.3347  0.6179
  108MOL   Cl5334507   3.520   7.480   0.237  0.5383  0.2587  0.2183
  108MOL    C5434508   3.644   7.696   0.322 -0.2310  0.1764  0.5286
  108MOL    C5534509   3.753   7.788   0.324 -0.4110 -1.0191 -0.4406
  108MOL    C5634510   3.882   7.753   0.280 -0.3089 -0.3566  0.3122
  108MOL    C5734511   3.897   7.629   0.218 -0.5902  0.2047 -0.6033
  108MOL    C5834512   3.900   7.309   0.173 -0.4071  0.0231  0.7411
  108MOL    H5934513   3.705   7.366   0.128  0.7274  0.5452 -0.7997
  108MOL    H6034514   3.546   7.713   0.364 -0.6187 -1.7243  0.4091
  108MOL    H6134515   3.740   7.880   0.378 -0.4001 -0.6492 -1.0588
  108MOL    H6234516   3.970   7.814   0.288  0.5818 -1.3434 -1.5280
  108MOL    H6334517   3.994   7.593   0.186  0.0558  1.1999  0.2300
  108MOL    H6434518   3.994   7.365   0.176 -0.6469  0.4460  0.3667
  108MOL    H6534519   3.919   7.233   0.098  0.5298 -0.6444  1.6452
  108MOL    C6634520   3.882   7.256   0.315  0.0078 -0.6713 -0.3648
  108MOL    C6734521   4.015   7.205   0.376 -0.1777  0.5714 -0.2761
  108MOL    C6834522   4.089   7.282   0.462 -0.8591 -0.2434  0.4683
  108MOL   Cl6934523   4.058   7.454   0.478 -0.2474  0.4648  0.0667
  108MOL    C7034524   4.196   7.237   0.536  0.1439 -0.2314  0.2399
  108MOL    C7134525   4.244   7.102   0.519  0.0566  0.3936  0.6248
  108MOL    C7234526   4.164   7.022   0.432 -0.5099 -1.1279  0.6965
  108MOL    C7334527   4.055   7.075   0.358 -0.7637  0.2883  0.1333
  108MOL    C7434528   3.757   7.158   0.309 -0.3069  0.0644 -0.4525
  108MOL    H7534529   3.860   7.343   0.377  1.0195 -0.1937 -0.6618
  108MOL    H7634530   4.253   7.301   0.602  0.4996 -1.4071  1.0891
  108MOL    H7734531   4.331   7.069   0.573  0.1599 -0.7100 -0.2144
  108MOL    H7834532   4.184   6.917   0.418  0.1310 -0.6139 -2.5508
  108MOL    H7934533   4.001   7.012   0.290 -2.8739  2.2919 -0.1056
  108MOL    H8034534   3.780   7.078   0.238 -1.2914 -3.0434  2.5430
  108MOL    H8134535   3.663   7.201   0.275 -1.9404 -1.9792  1.2959
  108MOL    C8234536   3.713   7.089   0.441 -0.1511 -0.0669 -0.1661
  108MOL    C8334537   3.621   6.965   0.409 -0.1818 -0.3216  0.0241
  108MOL    C8434538   3.677   6.835   0.394 -0.4517  0.6740  0.0580
  108MOL   Cl8534539   3.855   6.816   0.410 -0.0157  0.0413 -0.5137
  108MOL    C8634540   3.602   6.718   0.369  0.1869  0.1818  0.4024
  108MOL    C8734541   3.462   6.738   0.350  0.9506 -0.6048 -0.2677
  108MOL    C8834542   3.403   6.868   0.355  0.1992 -0.4178 -0.4348
  108MOL    C8934543   3.486   6.982   0.383  0.0640  0.9077  0.1256
  108MOL    C9034544   3.652   7.195   0.537  0.0543  0.2147 -0.5625
  108MOL    H9134545   3.801   7.046   0.490  1.8962  0.4701 -3.2440
  108MOL    H9234546   3.660   6.627   0.374 -1.1102 -0.5760  2.0299
  108MOL    H9334547   3.392   6.659   0.326  1.1557 -0.6410 -0.7498
  108MOL    H9434548   3.295   6.870   0.345  0.2812  0.1413 -1.2790
  108MOL    H9534549   3.444   7.081   0.382 -1.1924  0.3764 -0.7035
  108MOL    H9634550   3.547   7.216   0.520 -0.0956  1.5110  1.7464
  108MOL    H9734551   3.703   7.290   0.522 -1.6479  1.0089 -1.4896
  108MOL    C9834552   3.676   7.149   0.683  0.2108  0.1282  0.2863
  108MOL    C9934553   3.552   7.178   0.770  0.5930  0.6908 -0.0905
  108MOL   C10034554   3.461   7.069   0.808 -0.5395  0.5603 -0.0207
  108MOL  Cl10134555   3.470   6.915   0.728 -0.3694 -0.3441  0.2123
  108MOL   C10234556   3.357   7.090   0.896 -0.0407  0.2822  0.1419
  108MOL   C10334557   3.326   7.220   0.944 -0.3639  0.6790 -0.1023
  108MOL   C10434558   3.412   7.325   0.919  0.0888  0.2988  0.1396
  108MOL   C10534559   3.520   7.300   0.827  0.2687 -0.7194  0.2501
  108MOL   C10634560   3.812   7.204   0.734 -0.2795  0.4214 -0.3096
  108MOL   H10734561   3.685   7.041   0.692 -0.1885  0.0192 -0.5439
  108MOL   H10834562   3.288   7.009   0.910  0.5638 -0.2857 -0.1329
  108MOL   H10934563   3.240   7.240   1.007  0.0351  0.9543  0.3602
  108MOL   H11034564   3.395   7.422   0.963 -3.4823 -0.3098  0.1868
  108MOL   H11134565   3.581   7.387   0.805 -0.3465 -0.6786 -1.3410
  108MOL   H11234566   3.803   7.297   0.789 -1.3459 -0.8714  1.7351
  108MOL   H11334567   3.869   7.232   0.645  1.1883 -0.8424  0.2149
  108MOL   C11434568   3.895   7.098   0.811 -0.0909  0.0014 -0.2482
  108MOL   C11534569   3.816   7.026   0.926 -0.0325 -0.4318  0.0127
  108MOL   C11634570   3.778   6.889   0.914 -0.1089 -0.1241  0.4326
  108MOL  Cl11734571   3.814   6.790   0.770  0.0368 -0.2286 -0.1039
  108MOL   C11834572   3.704   6.825   1.022 -0.5968 -0.6512  0.1398
  108MOL   C11934573   3.669   6.898   1.138  0.2432 -0.1595 -0.0573
  108MOL   C12034574   3.699   7.036   1.146 -0.3283  0.1249  0.0992
  108MOL   C12134575   3.773   7.097   1.040  0.7707 -0.3578 -0.2101
  108MOL   C12234576   4.026   7.161   0.863 -0.2617  0.3878 -0.2611
  108MOL   H12334577   3.921   7.030   0.730 -1.4687  0.8293 -1.4204
  108MOL   H12434578   3.687   6.719   1.013 -1.2454 -0.5318 -0.0390
  108MOL   H12534579   3.618   6.843   1.216  0.8705 -2.2636 -1.1036
  108MOL   H12634580   3.665   7.089   1.233 -2.6151 -1.1077  0.0086
  108MOL   H12734581   3.795   7.202   1.050 -3.2767  0.5137  0.2316
  108MOL   H12834582   4.015   7.240   0.937  1.9840  1.1118 -0.6717
  108MOL   H12934583   4.073   7.201   0.773 -1.4221 -1.5175 -1.7531
  108MOL   C13034584   4.121   7.058   0.933  0.0363  0.6191  0.0451
  108MOL   C13134585   4.241   7.128   1.005  0.6472 -0.8198  0.3681
  108MOL   C13234586   4.266   7.118   1.145  0.2107 -0.6243  0.3842
  108MOL  Cl13334587   4.189   7.001   1.245  0.3652  0.3825 -0.0350
  108MOL   C13434588   4.373   7.182   1.204  0.3710  0.1662 -0.0519
  108MOL   C13534589   4.459   7.271   1.131  0.4626 -0.6691 -0.3584
  108MOL   C13634590   4.439   7.279   0.993 -0.5873 -0.2294 -0.7799
  108MOL   C13734591   4.333   7.209   0.931  0.1050 -0.2277 -0.3874
  108MOL   C13834592   4.161   6.940   0.844  0.2147 -0.1631  0.2975
  108MOL   H13934593   4.066   7.015   1.016 -0.7083 -0.0678 -0.7955
  108MOL   H14034594   4.387   7.181   1.311  1.3437 -2.5943 -0.1612
  108MOL   H14134595   4.543   7.330   1.166 -1.1692  0.3578  1.9540
  108MOL   H14234596   4.508   7.345   0.942  1.0057 -1.5522 -0.3766
  108MOL   H14334597   4.328   7.206   0.823  2.1266  0.5549 -0.5233
  108MOL   H14434598   4.221   6.989   0.767  2.1054 -4.4532 -1.0928
  108MOL   H14534599   4.074   6.907   0.787 -1.4861  2.4586  1.2903
  108MOL   C14634600   4.232   6.816   0.909  0.5234  0.1006 -0.4474
  108MOL   C14734601   4.335   6.753   0.811 -0.5269 -0.8387  0.4760
  108MOL   C14834602   4.475   6.748   0.835  0.4692  0.1088  0.2903
  108MOL  Cl14934603   4.543   6.828   0.970 -0.0388 -0.0427  0.1443
  108MOL   C15034604   4.557   6.681   0.746  0.3695 -0.5704  0.2447
  108MOL   C15134605   4.507   6.623   0.629 -0.7439 -0.3694 -0.2742
  108MOL   C15234606   4.377   6.635   0.592  0.1376 -0.3426 -0.4989
  108MOL   C15334607   4.290   6.701   0.682 -0.4374 -0.7326 -0.4510
  108MOL   C15434608   4.130   6.713   0.948  1.3454 -0.5364 -0.1653
  108MOL   H15534609   4.274   6.859   0.999 -2.9179  0.8028  0.9009
  108MOL   H15634610   4.660   6.669   0.774  0.3950  0.4407  0.6001
  108MOL   H15734611   4.571   6.569   0.561 -0.6844 -1.9964  1.0124
  108MOL   H15834612   4.348   6.590   0.499  1.3770 -2.7756  0.2507
  108MOL   H15934613   4.184   6.691   0.663 -0.1574  0.1715 -2.6892
  108MOL   H16034614   4.091   6.659   0.862 -0.7862 -0.1883  0.5649
  108MOL   H16134615   4.045   6.758   0.999 -0.9551 -1.9366 -2.6306
  108MOL   C16234616   4.173   6.600   1.043  0.7979  0.3439 -0.9067
  108MOL   C16334617   4.073   6.485   1.022  0.1974 -0.5674  0.1921
  108MOL   C16434618   4.113   6.373   0.946 -0.3489 -0.4714  0.0843
  108MOL  Cl16534619   4.263   6.373   0.867 -0.0436 -0.1624 -0.3913
  108MOL   C16634620   4.025   6.266   0.926 -0.2815 -0.3211  0.1778
  108MOL   C16734621   3.893   6.268   0.979 -1.0255 -0.0188 -0.0934
  108MOL   C16834622   3.852   6.377   1.056  0.3280 -0.6148 -1.0453
  108MOL   C16934623   3.938   6.491   1.070 -0.3082  0.4513 -0.1091
  108MOL   C17034624   4.177   6.649   1.192 -0.5471 -0.9004 -0.4360
  108MOL   H17134625   4.276   6.574   1.021  1.1802  0.3601  0.7339
  108MOL   H17234626   4.047   6.185   0.859 -2.0075  1.5903 -2.8595
  108MOL   H17334627   3.820   6.189   0.966 -1.4650  0.4270 -0.3500
  108MOL   H17434628   3.750   6.381   1.092  1.3267 -0.2617  1.8251
  108MOL   H17534629   3.887   6.575   1.116  0.0853  0.6107  0.0422
  108MOL   H17634630   4.080   6.680   1.230 -0.3455  1.2942 -1.6337
  108MOL   H17734631   4.234   6.742   1.191  2.1886 -2.5176 -1.0438
  108MOL   C17834632   4.257   6.562   1.296  0.6422  0.4193 -0.0059
  108MOL   C17934633   4.410   6.538   1.267  0.8249 -0.5013  0.6680
  108MOL   C18034634   4.504   6.645   1.281 -0.4281 -0.2584  0.1044
  108MOL  Cl18134635   4.449   6.804   1.342 -0.2705  0.2483  0.0079
  108MOL   C18234636   4.645   6.623   1.266  0.1213  0.0330  1.1443
  108MOL   C18334637   4.694   6.504   1.211  0.4238  0.2184  0.2693
  108MOL   C18434638   4.603   6.400   1.179 -0.3061  0.0716 -0.5017
  108MOL   C18534639   4.464   6.421   1.212  0.2042 -0.2929  0.9068
  108MOL   C18634640   4.193   6.429   1.345 -0.1438 -0.1592  0.2909
  108MOL   H18734641   4.255   6.621   1.388  0.7963 -0.2185  0.4094
  108MOL   H18834642   4.710   6.708   1.279 -1.9866  1.7355  0.8958
  108MOL   H18934643   4.800   6.492   1.191  0.4920 -0.3756  0.9337
  108MOL   H19034644   4.626   6.302   1.140 -1.1949  0.5095 -2.1609
  108MOL   H19134645   4.404   6.333   1.195 -0.7318  0.7192 -1.1794
  108MOL   H19234646   4.258   6.401   1.428 -2.2876  2.3259  2.9338
  108MOL   H19334647   4.209   6.358   1.264  0.2813 -0.8423  0.9658
  108MOL   C19434648   4.051   6.423   1.400  0.3660  0.0347  0.0508
  108MOL   C19534649   4.026   6.533   1.507 -0.2525  0.5484  0.3589
  108MOL   C19634650   3.929   6.629   1.501  0.3846 -0.3736 -0.2046
  108MOL  Cl19734651   3.817   6.639   1.372  0.1513  0.0938 -0.0026
  108MOL   C19834652   3.911   6.721   1.604 -1.1373  0.9931 -0.0148
  108MOL   C19934653   3.987   6.716   1.717  0.1207  0.2102 -0.3464
  108MOL   C20034654   4.095   6.621   1.724 -0.6943  0.2132  0.5911
  108MOL   C20134655   4.117   6.529   1.619  0.2636  0.3059 -0.3460
  108MOL   C20234656   4.029   6.273   1.443  0.4765  0.7234  0.5504
  108MOL   H20334657   3.971   6.432   1.326  1.3250  0.8452 -0.9045
  108MOL   H20434658   3.832   6.793   1.589  0.0359  2.5139  0.9522
  108MOL   H20534659   3.983   6.792   1.794 -0.7233 -1.0908  0.9261
  108MOL   H20634660   4.162   6.610   1.808  0.9142 -1.9812 -0.9355
  108MOL   H20734661   4.195   6.454   1.623  0.9420  0.9535 -1.1545
  108MOL   H20834662   4.083   6.249   1.534  1.5016 -2.0961 -0.7096
  108MOL   H20934663   4.069   6.210   1.363 -0.8921 -0.7888  1.0371
  108MOL   C21034664   3.881   6.238   1.488 -0.0456 -0.0680 -1.6452
  108MOL   C21134665   3.870   6.160   1.625  0.2905  0.6199 -0.6224
  108MOL   C21234666   3.829   6.224   1.748 -0.0323  0.5605 -0.2065
  108MOL  Cl21334667   3.796   6.395   1.760 -0.5059 -0.3345  0.2328
  108MOL   C21434668   3.806   6.146   1.866 -0.1211  0.3589  0.4477
  108MOL   C21534669   3.838   6.010   1.859 -0.0767 -0.1418 -0.3946
  108MOL   C21634670   3.889   5.948   1.743  0.5221 -0.3870 -0.2329
  108MOL   C21734671   3.898   6.023   1.625 -0.3107 -0.0981 -0.2652
  108MOL   C21834672   3.809   6.163   1.370 -0.4137 -0.1541 -0.2440
  108MOL   H21934673   3.835   6.336   1.497 -1.4048 -0.8058 -0.3911
  108MOL   H22034674   3.790   6.197   1.960  1.8791  0.5007  0.7483
  108MOL   H22134675   3.852   5.947   1.946  0.6746 -0.5260 -0.7904
  108MOL   H22234676   3.920   5.844   1.741  3.5495  0.4502  0.9494
  108MOL   H22334677   3.925   5.975   1.532  1.7325  1.2225 -0.3827
  108MOL   H22434678   3.855   6.064   1.366  0.4192  0.2385 -0.4846
  108MOL   H22534679   3.837   6.219   1.281 -0.6124 -1.7086 -1.3056
  108MOL   C22634680   3.656   6.159   1.385  0.1876  0.0866 -0.2552
  108MOL   C22734681   3.586   6.028   1.349  0.0099 -0.0778  0.0922
  108MOL   C22834682   3.501   5.960   1.443  0.2836 -0.0933  0.2094
  108MOL  Cl22934683   3.471   6.022   1.602 -0.2145 -0.2332  0.2302
  108MOL   C23034684   3.432   5.844   1.395  0.3889  0.1417  0.2569
  108MOL   C23134685   3.460   5.787   1.275 -0.0982 -0.0721 -0.4708
  108MOL   C23234686   3.553   5.843   1.186  0.6169 -0.1115  0.1103
  108MOL   C23334687   3.608   5.974   1.220 -0.6773 -0.6010  0.4952
  108MOL   C23434688   3.579   6.280   1.322 -0.0905  0.2017  0.8582
  108MOL   H23534689   3.641   6.170   1.492  1.4522  1.3016 -0.1886
  108MOL   H23634690   3.357   5.798   1.459 -0.0062  0.9538  0.3717
  108MOL   H23734691   3.405   5.702   1.237 -0.5309 -0.0539  0.1149
  108MOL   H23834692   3.584   5.798   1.093  0.0263 -1.0354  0.3575
  108MOL   H23934693   3.679   6.024   1.156  0.3347  2.6795  3.9740
  108MOL   H24034694   3.559   6.275   1.215 -0.2880 -1.4252  0.9563
  108MOL   H24134695   3.645   6.366   1.326  0.7857 -0.3387 -1.3757
  108MOL   C24234696   3.452   6.337   1.394  0.7110 -0.3202 -0.3164
  108MOL   C24334697   3.383   6.436   1.306  0.5917 -0.0967 -0.0047
  108MOL   C24434698   3.286   6.394   1.212  0.1795 -0.9540  0.0042
  108MOL  Cl24534699   3.240   6.230   1.185 -0.1767  0.0070 -0.0576
  108MOL   C24634700   3.249   6.485   1.111  0.0975 -0.0290  0.4129
  108MOL   C24734701   3.296   6.621   1.106 -0.3330  0.7213  0.2501
  108MOL   C24834702   3.382   6.668   1.206  0.2269  1.0442  0.6856
  108MOL   C24934703   3.433   6.570   1.297 -0.5681 -0.4642  0.3452
  108MOL   C25034704   3.479   6.379   1.538 -0.0638 -0.1824 -0.0841
  108MOL   H25134705   3.384   6.252   1.397 -0.8809  0.8966 -0.6360
  108MOL   H25234706   3.204   6.454   1.018 -0.8311 -0.3770  0.9742
  108MOL   H25334707   3.265   6.693   1.031 -2.0677 -0.1278  0.1214
  108MOL   H25434708   3.420   6.770   1.206 -0.9928  1.5063  1.2375
  108MOL   H25534709   3.508   6.599   1.368 -0.2320 -1.3498  0.3653
  108MOL   H25634710   3.568   6.439   1.521  0.0694 -0.2801  0.2587
  108MOL   H25734711   3.507   6.302   1.610  0.7302  2.5153  2.6346
  108MOL   C25834712   3.372   6.472   1.609  0.4309  0.1909 -0.0024
  108MOL   C25934713   3.433   6.524   1.740  0.0910  0.2011 -0.3338
  108MOL   C26034714   3.514   6.638   1.738 -0.4239 -0.5693 -1.0501
  108MOL  Cl26134715   3.567   6.722   1.595 -0.2383  0.2951 -0.4868
  108MOL   C26234716   3.552   6.690   1.870 -0.9666 -0.6793  0.5677
  108MOL   C26334717   3.512   6.631   1.989  0.0623  0.1565  0.5985
  108MOL   C26434718   3.429   6.520   1.989 -0.0373 -0.2044  0.2532
  108MOL   C26534719   3.393   6.464   1.861  0.5472  0.3955 -0.2475
  108MOL   C26634720   3.227   6.407   1.616  0.1152 -0.5086  0.1373
  108MOL   H26734721   3.349   6.563   1.553  0.1424 -1.5019 -2.7436
  108MOL   H26834722   3.608   6.782   1.878 -0.9479 -0.7397  1.1267
  108MOL   H26934723   3.536   6.679   2.082 -0.1616 -0.4583  0.9763
  108MOL   H27034724   3.393   6.474   2.080 -0.8243  1.3182  0.7398
  108MOL   H27134725   3.331   6.376   1.865  1.3977 -0.2999 -1.8221
  108MOL   H27234726   3.229   6.311   1.667  0.1467  0.0995  1.2965
  108MOL   H27334727   3.206   6.371   1.516 -0.3297 -0.8920  0.3683
  108MOL   C27434728   3.114   6.500   1.681 -0.3331 -0.2291 -0.2096
  108MOL   C27534729   2.980   6.415   1.704 -1.1734 -0.4203  0.2295
  108MOL   C27634730   2.900   6.427   1.818 -0.8249  0.1304  0.7415
  108MOL  Cl27734731   2.932   6.534   1.949 -0.2038  0.0098 -0.0682
  108MOL   C27834732   2.788   6.337   1.839 -0.3103  0.4639 -0.2023
  108MOL   C27934733   2.754   6.238   1.745  0.2820 -0.4699 -0.5155
  108MOL   C28034734   2.817   6.245   1.624 -0.1062  0.4279  1.0404
  108MOL   C28134735   2.932   6.327   1.604  0.3871  0.6823  0.5962
  108MOL   C28234736   3.088   6.624   1.597  0.1680 -0.0910 -0.4675
  108MOL   H28334737   3.154   6.524   1.779 -0.5437  0.2318 -0.2368
  108MOL   H28434738   2.721   6.350   1.923 -1.1593 -0.0245 -0.7989
  108MOL   H28534739   2.677   6.166   1.765  0.5405 -0.0767  2.0647
  108MOL   H28634740   2.799   6.172   1.547 -1.9672  0.5720  1.3086
  108MOL   H28734741   2.973   6.329   1.504  0.2677 -3.1942  0.4138
  108MOL   H28834742   2.997   6.613   1.538 -1.2827  3.7790  0.8593
  108MOL   H28934743   3.158   6.639   1.515  0.4915 -0.2878 -0.2268
  108MOL   C29034744   3.057   6.748   1.696  0.0139  0.3652 -0.3589
  108MOL   C29134745   2.991   6.857   1.618  0.2756  0.6536 -0.3348
  108MOL   C29234746   2.870   6.914   1.663  0.4548 -0.9247  0.3353
  108MOL  Cl29334747   2.776   6.843   1.783 -0.4350  0.3624  0.2208
  108MOL   C29434748   2.823   7.036   1.603  0.0975  0.9122  0.6718
  108MOL   C29534749   2.893   7.082   1.488 -0.3483 -0.3008  0.0152
  108MOL   C29634750   3.004   7.013   1.439 -0.4080 -0.5845  0.3220
  108MOL   C29734751   3.057   6.910   1.505  0.4474  1.1355 -0.1504
  108MOL   C29834752   3.190   6.811   1.767 -0.0694 -0.2814 -0.2079
  108MOL   H29934753   3.008   6.714   1.787  1.5922 -0.5098  0.1826
  108MOL   H30034754   2.726   7.076   1.627 -1.9216 -4.0294  1.3641
  108MOL   H30134755   2.871   7.176   1.440 -0.3897 -1.9773 -3.4017
  108MOL   H30234756   3.055   7.064   1.358 -0.9235  0.1457  0.4514
  108MOL   H30334757   3.155   6.875   1.476  0.3831  1.5542 -0.8896
  108MOL   H30434758   3.262   6.827   1.686 -0.5865 -0.2055 -0.6568
  108MOL   H30534759   3.244   6.733   1.820  0.8108 -0.2384 -1.0342
  108MOL   C30634760   3.183   6.937   1.860  0.3685  0.4321  0.4470
  108MOL   C30734761   3.327   6.985   1.901 -0.1264  0.0187 -0.1507
  108MOL   C30834762   3.398   7.054   1.809  0.2837 -0.1715  0.6985
  108MOL  Cl30934763   3.327   7.100   1.655  0.1882  0.1240 -0.0676
  108MOL   C31034764   3.530   7.090   1.842  0.0967 -1.0035 -0.5732
  108MOL   C31134765   3.582   7.074   1.969 -0.1136  0.3005  0.1519
  108MOL   C31234766   3.503   7.015   2.068 -0.5188  0.1322 -0.1237
  108MOL   C31334767   3.378   6.960   2.031  0.9588 -0.3294 -0.2727
  108MOL   C31434768   3.093   6.907   1.985 -0.6711  0.2169  0.7059
  108MOL   H31534769   3.137   7.021   1.808 -0.1978  0.1784  0.5217
  108MOL   H31634770   3.593   7.137   1.768  0.9582 -1.2429 -0.0030
  108MOL   H31734771   3.678   7.110   2.003  0.5864 -0.1069 -1.3684
  108MOL   H31834772   3.542   7.011   2.168  0.8033 -0.9999 -0.6599
  108MOL   H31934773   3.315   6.906   2.101  1.9629 -1.2003 -0.0359
  108MOL   H32034774   3.117   6.984   2.059  0.4126  0.4868  0.0770
  108MOL   H32134775   3.124   6.808   2.020  0.7596  0.2786 -0.3197
  108MOL   H32234776   2.986   6.902   1.969 -0.7745  1.5899  0.8975
  109MOL     C134777   2.186   6.736   7.961  0.7739 -0.4031  0.5011
  109MOL     C234778   2.246   6.638   8.055 -0.2649  0.1981 -0.5142
  109MOL     C334779   2.233   6.655   8.197  0.2190 -0.3588 -0.5640
  109MOL    Cl434780   2.137   6.788   8.262 -0.0881  0.5765 -0.2009
  109MOL     C534781   2.299   6.565   8.287 -0.5007  0.4386  0.4070
  109MOL     C634782   2.365   6.450   8.237 -0.6927 -0.4351 -0.4303
  109MOL     C734783   2.364   6.430   8.096 -0.2619 -0.2219 -0.0832
  109MOL     C834784   2.323   6.528   8.005 -0.3438  0.3672 -0.3478
  109MOL     C934785   2.277   6.856   7.923  1.1336  0.7165  0.3884
  109MOL    H1034786   2.158   6.674   7.876  0.5539 -1.3356  1.2354
  109MOL    H1134787   2.293   6.595   8.391 -0.7805  1.2288  0.1645
  109MOL    H1234788   2.411   6.367   8.289 -1.3530 -1.9223 -2.1739
  109MOL    H1334789   2.420   6.345   8.059 -0.5478 -0.2478 -0.4571
  109MOL    H1434790   2.336   6.512   7.899  2.6603  0.8280 -0.0759
  109MOL    H1534791   2.374   6.831   7.880 -0.6528 -0.0989 -3.4206
  109MOL    H1634792   2.308   6.912   8.010  2.2306  0.2447  0.3148
  109MOL    H1734793   2.088   6.774   7.991  0.1926 -0.2174 -1.6054
  109MOL    C1834794   2.196   6.965   7.837 -0.5007 -0.1082  0.2086
  109MOL    C1934795   2.122   6.910   7.709  0.4859 -0.9594 -0.4291
  109MOL    C2034796   1.989   6.950   7.672 -0.0406 -0.2107  0.2201
  109MOL   Cl2134797   1.905   7.066   7.770 -0.1321  0.0613 -0.0843
  109MOL    C2234798   1.931   6.901   7.555 -0.1658 -0.9348 -0.0846
  109MOL    C2334799   2.010   6.831   7.464 -0.3561  0.5781  0.2537
  109MOL    C2434800   2.137   6.789   7.497  0.1392  1.2263 -0.4537
  109MOL    C2534801   2.190   6.830   7.622 -0.6224  0.3993 -0.3456
  109MOL    C2634802   2.280   7.088   7.802 -0.1673  0.5855 -0.3226
  109MOL    H2734803   2.111   6.993   7.899 -1.3240  0.2603 -1.0658
  109MOL    H2834804   1.828   6.930   7.543 -0.0388  0.9887  2.8408
  109MOL    H2934805   1.958   6.794   7.377 -0.3817  0.2207  0.4226
  109MOL    H3034806   2.195   6.730   7.427  1.4435  0.8877  0.8971
  109MOL    H3134807   2.289   6.797   7.649 -0.8394  0.5378  0.6231
  109MOL    H3234808   2.220   7.143   7.730  1.9914  0.7397 -2.0447
  109MOL    H3334809   2.371   7.060   7.749  0.2127 -1.4654  1.3016
  109MOL    C3434810   2.332   7.174   7.925 -0.1468  0.5125 -0.1627
  109MOL    C3534811   2.219   7.204   8.037 -0.9900  0.5126 -0.6452
  109MOL    C3634812   2.229   7.154   8.169  0.2831  0.4739  0.1159
  109MOL   Cl3734813   2.366   7.072   8.226  0.0490  0.3012  0.1820
  109MOL    C3834814   2.118   7.171   8.259  0.0740  0.1649  0.1056
  109MOL    C3934815   1.999   7.242   8.214 -1.0882 -0.3342 -0.8661
  109MOL    C4034816   1.993   7.281   8.083 -0.6263 -0.1322 -0.6510
  109MOL    C4134817   2.101   7.272   7.994  0.1392 -0.5236 -0.0186
  109MOL    C4234818   2.392   7.311   7.880  0.6285  0.6681 -0.0032
  109MOL    H4334819   2.407   7.107   7.967 -0.7857 -0.3862 -0.4289
  109MOL    H4434820   2.135   7.140   8.361 -1.7729  2.9832  1.3294
  109MOL    H4534821   1.917   7.262   8.281  1.2426  0.5856  1.8214
  109MOL    H4634822   1.896   7.317   8.052 -1.2204  1.3593  2.7128
  109MOL    H4734823   2.105   7.316   7.896  0.6006 -1.7613 -0.5617
  109MOL    H4834824   2.372   7.371   7.969 -0.5255  0.6956 -0.2711
  109MOL    H4934825   2.347   7.358   7.793  0.3226 -1.1989 -0.8761
  109MOL    C5034826   2.548   7.312   7.858  0.0698  0.0547  0.1980
  109MOL    C5134827   2.595   7.237   7.724 -0.2222 -0.1911 -0.0942
  109MOL    C5234828   2.601   7.309   7.598 -0.2912  0.1168  0.2505
  109MOL   Cl5334829   2.569   7.476   7.585 -0.1098  0.3217 -0.1087
  109MOL    C5434830   2.640   7.243   7.481  0.5408  0.8521 -0.2292
  109MOL    C5534831   2.683   7.111   7.489  0.2296 -0.8707  0.5673
  109MOL    C5634832   2.670   7.039   7.609 -0.4813  0.0946  0.7480
  109MOL    C5734833   2.624   7.099   7.727 -0.1969  0.3407  0.5178
  109MOL    C5834834   2.629   7.283   7.990 -0.0407 -0.6201 -0.1897
  109MOL    H5934835   2.561   7.420   7.844  1.7789 -0.0156  1.1754
  109MOL    H6034836   2.640   7.288   7.383  3.4983 -2.3492 -1.8155
  109MOL    H6134837   2.711   7.059   7.399 -0.8691  1.0780 -0.9326
  109MOL    H6234838   2.706   6.937   7.612  1.0105  0.6490  2.9466
  109MOL    H6334839   2.615   7.037   7.815 -1.6199 -0.5929 -0.2695
  109MOL    H6434840   2.687   7.192   7.976  0.1418 -0.6880  0.9287
  109MOL    H6534841   2.571   7.246   8.075  1.1556  0.4175  1.0908
  109MOL    C6634842   2.731   7.384   8.032 -0.1080  0.0424 -0.6992
  109MOL    C6734843   2.813   7.446   7.914  0.3526  1.0555  0.4351
  109MOL    C6834844   2.862   7.578   7.901  0.3457  0.5280  0.3118
  109MOL   Cl6934845   2.828   7.692   8.025 -0.3433 -0.1143 -0.2087
  109MOL    C7034846   2.938   7.617   7.791  0.4438  0.4427 -0.1827
  109MOL    C7134847   2.993   7.523   7.702  0.0268  0.0115  0.3927
  109MOL    C7234848   2.959   7.390   7.725 -0.8544  0.5117  0.3096
  109MOL    C7334849   2.866   7.350   7.827  0.1027  0.3886 -0.1534
  109MOL    C7434850   2.829   7.335   8.143 -0.3369 -0.1135 -0.0086
  109MOL    H7534851   2.673   7.469   8.069  0.5095 -0.2988  1.0887
  109MOL    H7634852   2.968   7.719   7.774  0.5866  0.3381 -0.5751
  109MOL    H7734853   3.053   7.554   7.617 -1.6745 -1.1855 -1.2916
  109MOL    H7834854   2.993   7.303   7.671 -2.3744  0.0367  0.0819
  109MOL    H7934855   2.850   7.243   7.831 -2.7673  0.8083  0.6565
  109MOL    H8034856   2.917   7.399   8.134  0.7443 -1.5619  0.1195
  109MOL    H8134857   2.856   7.234   8.113 -0.6391  0.2572 -1.6084
  109MOL    C8234858   2.768   7.322   8.287  0.3461 -0.5980  0.1950
  109MOL    C8334859   2.704   7.454   8.342  0.8128  0.3821  0.5659
  109MOL    C8434860   2.585   7.448   8.414 -0.3675 -0.3946  0.2324
  109MOL   Cl8534861   2.489   7.300   0.023 -0.4542 -0.3078 -0.2238
  109MOL    C8634862   2.535   7.562   0.059 -0.5045 -0.2920 -0.9737
  109MOL    C8734863   2.610   7.685   0.056  0.7084  0.3131 -0.2545
  109MOL    C8834864   2.721   7.690   8.392  0.4416 -0.1231  0.4815
  109MOL    C8934865   2.777   7.574   8.331 -0.4043  0.0554 -0.5377
  109MOL    C9034866   2.881   7.281   8.392 -0.1158  0.1455 -0.3060
  109MOL    H9134867   2.698   7.240   8.274  1.5664 -1.4827 -0.8777
  109MOL    H9234868   2.448   7.561   0.123 -1.5544 -0.2375 -2.3681
  109MOL    H9334869   2.577   7.772   0.110 -0.4416 -0.9545  1.1565
  109MOL    H9434870   2.771   7.785   8.387  0.3861 -0.0727  0.8896
  109MOL    H9534871   2.868   7.584   8.272  0.1936 -0.6362  0.2500
  109MOL    H9634872   2.951   7.361   8.416  2.3407 -2.0727  0.1925
  109MOL    H9734873   2.923   7.205   8.325 -1.6342 -0.6678 -0.3639
  109MOL    C9834874   2.830   7.210   0.108  0.7567  0.2585  0.3441
  109MOL    C9934875   2.940   7.178   0.206  0.1341  0.7316  0.0106
  109MOL   C10034876   2.914   7.161   0.345 -0.1258  0.4109  0.1411
  109MOL  Cl10134877   2.759   7.184   0.412 -0.0181 -0.1538  0.0025
  109MOL   C10234878   3.012   7.124   0.434  1.0935  0.0838 -0.0959
  109MOL   C10334879   3.141   7.104   0.387 -0.6096 -1.0052  0.2480
  109MOL   C10434880   3.173   7.121   0.249  0.0566  0.0670  0.1952
  109MOL   C10534881   3.073   7.160   0.161 -0.0306 -0.0186 -0.3979
  109MOL   C10634882   2.751   7.077   0.078  0.0909 -0.2643 -0.3418
  109MOL   H10734883   2.773   7.281   0.169  0.9451  2.4098 -1.9302
  109MOL   H10834884   3.004   7.114   0.542 -0.7483  1.0004 -0.1198
  109MOL   H10934885   3.218   7.075   0.458  1.8563 -0.6387 -2.1596
  109MOL   H11034886   3.279   7.116   0.230 -0.0168 -0.1551 -0.1661
  109MOL   H11134887   3.102   7.175   0.058 -0.4942  3.7817 -0.0707
  109MOL   H11234888   2.661   7.092   0.019  0.1211  1.1015 -0.0609
  109MOL   H11334889   2.698   7.045   0.168  2.0196 -1.0318  0.5748
  109MOL   C11434890   2.832   6.961   0.022 -0.8537  0.2719 -0.1390
  109MOL   C11534891   2.809   6.951   8.290  0.5746 -0.2918  0.5232
  109MOL   C11634892   2.907   6.970   8.190  0.5601  0.2255  0.5254
  109MOL  Cl11734893   3.068   7.028   8.217  0.0837  0.0415  0.3612
  109MOL   C11834894   2.880   6.943   8.054 -0.1949 -0.4303  0.0817
  109MOL   C11934895   2.754   6.894   8.016  0.1941  0.8291 -0.0639
  109MOL   C12034896   2.649   6.888   8.113 -0.0829 -1.2653  0.1924
  109MOL   C12134897   2.677   6.922   8.244  0.4945  0.1293 -0.1698
  109MOL   C12234898   2.809   6.827   0.095  0.3866  0.3306 -0.6170
  109MOL   H12334899   2.941   6.969   0.031 -0.8586 -1.0869  1.3919
  109MOL   H12434900   2.960   6.965   7.984 -0.3615 -2.1851 -0.6878
  109MOL   H12534901   2.728   6.896   7.911  0.6082 -3.9939 -0.3678
  109MOL   H12634902   2.554   6.856   8.075 -1.1529  1.4459  0.4415
  109MOL   H12734903   2.600   6.912   8.320 -1.1235  0.0997 -1.7921
  109MOL   H12834904   2.703   6.805   0.090  0.8812 -2.7117  0.9224
  109MOL   H12934905   2.828   6.840   0.202 -0.7100 -2.3506 -0.0675
  109MOL   C13034906   2.883   6.699   0.027  0.4394 -0.0125 -0.4054
  109MOL   C13134907   2.798   6.576   0.071  0.3395 -0.1347  0.2626
  109MOL   C13234908   2.732   6.497   8.394 -0.1832  1.3876 -0.9156
  109MOL  Cl13334909   2.749   6.534   8.224  0.1888  0.0093 -0.0705
  109MOL   C13434910   2.659   6.386   0.028 -0.0721  0.0688  0.5794
  109MOL   C13534911   2.643   6.356   0.166 -0.4281 -0.0580  0.2818
  109MOL   C13634912   2.701   6.447   0.257 -0.3814 -0.1830  0.1993
  109MOL   C13734913   2.778   6.551   0.215 -0.4685  0.1210  0.1901
  109MOL   C13834914   3.031   6.680   0.067 -0.4930  0.0126 -0.1194
  109MOL   H13934915   2.886   6.712   8.340 -0.5991 -0.6776 -0.5214
  109MOL   H14034916   2.623   6.321   8.370  0.1902 -0.3486  0.7987
  109MOL   H14134917   2.588   6.267   0.192  0.4205 -1.7966 -3.5173
  109MOL   H14234918   2.692   6.433   0.364 -0.1431  1.4897  0.4465
  109MOL   H14334919   2.836   6.613   0.283  0.5943 -0.0928 -0.5060
  109MOL   H14434920   3.053   6.613   0.150  0.0064 -2.2055 -2.0025
  109MOL   H14534921   3.064   6.780   0.094 -1.6374 -0.2404  2.3546
  109MOL   C14634922   3.139   6.644   8.380 -0.3271 -0.2482 -0.8904
  109MOL   C14734923   3.119   6.502   8.327  0.1411  0.4367 -0.2835
  109MOL   C14834924   3.070   6.477   8.194  0.2708  0.0519  0.6402
  109MOL  Cl14934925   3.045   6.608   8.076 -0.3863 -0.0129 -0.3598
  109MOL   C15034926   3.048   6.347   8.149 -0.1648  0.2317 -0.5560
  109MOL   C15134927   3.045   6.238   8.246 -0.1579  0.2824  0.5086
  109MOL   C15234928   3.101   6.262   8.373 -0.6729 -0.4103 -0.4746
  109MOL   C15334929   3.133   6.396   8.416 -0.7013 -0.3063  0.0323
  109MOL   C15434930   3.288   6.669   8.416 -0.0683  0.1390 -0.1504
  109MOL   H15534931   3.117   6.713   8.299 -0.9192 -0.2402 -0.7263
  109MOL   H15634932   3.029   6.331   8.044  0.7947 -1.3494 -0.5028
  109MOL   H15734933   3.018   6.138   8.215 -1.4325  0.6269  0.4700
  109MOL   H15834934   3.111   6.179   0.021 -1.1209  0.7827  1.0694
  109MOL   H15934935   3.170   6.418   0.095  0.4809  1.3431 -0.7575
  109MOL   H16034936   3.325   6.593   0.064 -0.7123  0.8302  1.0008
  109MOL   H16134937   3.302   6.750   0.067  1.2385  0.5725 -0.8950
  109MOL   C16234938   3.394   6.687   8.296  0.2892  0.3701  0.1034
  109MOL   C16334939   3.531   6.626   8.333 -0.2439 -0.2145  0.3758
  109MOL   C16434940   3.577   6.512   8.263  0.8534  0.5010 -0.9994
  109MOL  Cl16534941   3.480   6.431   8.140 -0.1604 -0.0109 -0.2709
  109MOL   C16634942   3.701   6.465   8.298  0.1834 -0.7588  0.2465
  109MOL   C16734943   3.775   6.517   8.402  0.3350 -0.3344 -0.5800
  109MOL   C16834944   3.728   6.622   0.056 -0.9714  0.3946 -0.0667
  109MOL   C16934945   3.606   6.687   0.018  0.2560  0.2404 -0.9425
  109MOL   C17034946   3.398   6.830   8.249 -0.5157  0.1324  0.3411
  109MOL   H17134947   3.345   6.621   8.224  1.4024  0.6679 -0.9459
  109MOL   H17234948   3.729   6.371   8.252 -0.8733 -1.7186  1.5370
  109MOL   H17334949   3.872   6.476   0.005  0.0590  0.5635  2.3431
  109MOL   H17434950   3.790   6.655   0.138 -1.2413  2.8143 -0.8229
  109MOL   H17534951   3.575   6.777   0.070  0.8491  0.9647 -1.8187
  109MOL   H17634952   3.468   6.881   8.315 -1.5820  1.6784  0.3065
  109MOL   H17734953   3.301   6.879   8.245 -0.3881  0.2479 -2.4403
  109MOL   C17834954   3.446   6.830   8.101 -0.0314  0.0018  0.4745
  109MOL   C17934955   3.532   6.956   8.080  0.5453 -0.2240  0.3402
  109MOL   C18034956   3.669   6.941   8.091  0.0092 -0.1741 -0.2037
  109MOL  Cl18134957   3.746   6.804   8.159  0.1029 -0.1324  0.0375
  109MOL   C18234958   3.753   7.052   8.060 -0.3376  0.8514  0.4056
  109MOL   C18334959   3.701   7.171   8.021  0.0230 -0.2559  0.6017
  109MOL   C18434960   3.558   7.184   8.010 -0.0639  0.6015  0.4625
  109MOL   C18534961   3.474   7.078   8.040 -0.3543 -0.4869  0.8075
  109MOL   C18634962   3.324   6.806   8.005 -0.0583 -0.3724 -0.1225
  109MOL   H18734963   3.509   6.743   8.082 -0.7493 -0.7189  1.3728
  109MOL   H18834964   3.860   7.035   8.057 -0.3625  0.8286 -0.4373
  109MOL   H18934965   3.769   7.252   7.999 -1.2240  0.7914  0.5425
  109MOL   H19034966   3.506   7.277   7.992 -0.9695 -0.1861 -1.0120
  109MOL   H19134967   3.367   7.083   8.045 -0.3900  2.7150 -1.5673
  109MOL   H19234968   3.245   6.868   8.046  0.2435  1.8896 -2.7732
  109MOL   H19334969   3.285   6.705   8.013  1.4016 -0.8400  1.3186
  109MOL   C19434970   3.342   6.845   7.853 -0.1229 -0.8711 -0.6621
  109MOL   C19534971   3.192   6.836   7.790 -0.6892  0.3242 -0.3469
  109MOL   C19634972   3.118   6.948   7.751  0.5074  0.5055  0.0598
  109MOL  Cl19734973   3.176   7.100   7.803 -0.1774  0.1125 -0.0742
  109MOL   C19834974   2.995   6.934   7.689  0.0959 -0.0923 -0.1295
  109MOL   C19934975   2.951   6.806   7.658  0.2117 -0.6664 -0.4628
  109MOL   C20034976   3.024   6.691   7.690  0.1664  0.0253  0.4362
  109MOL   C20134977   3.141   6.710   7.764  0.4912  0.6511 -0.1001
  109MOL   C20234978   3.448   6.757   7.792  0.1768  0.0897 -0.0513
  109MOL   H20334979   3.372   6.949   7.841  2.0547 -1.4074 -0.0556
  109MOL   H20434980   2.926   7.015   7.672  0.2771 -0.2103 -1.4858
  109MOL   H20534981   2.851   6.788   7.620  0.5159 -2.5376 -0.3957
  109MOL   H20634982   2.969   6.598   7.680 -0.7330  0.4723  1.1646
  109MOL   H20734983   3.197   6.621   7.788 -0.2257 -0.8836 -3.7783
  109MOL   H20834984   3.415   6.654   7.784  1.9124 -0.5125  0.2367
  109MOL   H20934985   3.546   6.767   7.840 -0.0317  0.7573  0.2396
  109MOL   C21034986   3.477   6.798   7.644  0.0456 -0.1494 -0.3316
  109MOL   C21134987   3.547   6.679   7.573  0.7076 -0.6674 -0.7838
  109MOL   C21234988   3.682   6.628   7.596  0.7526  0.0008  0.8112
  109MOL  Cl21334989   3.778   6.674   7.732 -0.2184  0.0245  0.2737
  109MOL   C21434990   3.735   6.531   7.512 -0.2700  0.1359 -0.0206
  109MOL   C21534991   3.661   6.482   7.405 -0.0186  0.6144 -0.3380
  109MOL   C21634992   3.527   6.521   7.390  0.1793  0.1750 -0.2858
  109MOL   C21734993   3.478   6.628   7.467  0.0060 -0.1791 -0.2500
  109MOL   C21834994   3.566   6.921   7.635  0.2194  0.1317  0.1652
  109MOL   H21934995   3.378   6.822   7.606 -1.2594 -1.5421  2.0545
  109MOL   H22034996   3.835   6.491   7.517 -0.1470  0.3927 -0.4014
  109MOL   H22134997   3.700   6.410   7.335 -1.6850 -0.8535  0.2013
  109MOL   H22234998   3.460   6.494   7.311  1.3618 -1.0152 -0.8844
  109MOL   H22334999   3.381   6.671   7.448  0.5091 -0.5833 -4.1043
  109MOL   H22435000   3.669   6.887   7.627  1.0933  3.1071 -1.9586
  109MOL   H22535001   3.566   6.969   7.733 -0.2354  2.4141 -0.9222
  109MOL   C22635002   3.539   7.029   7.520  0.3383 -0.0593 -0.3663
  109MOL   C22735003   3.660   7.121   7.524 -0.4410  0.2616  0.8672
  109MOL   C22835004   3.740   7.142   7.405  0.3499  0.4357 -0.4956
  109MOL  Cl22935005   3.702   7.070   7.253 -0.3484 -0.0310  0.2493
  109MOL   C23035006   3.856   7.221   7.415  0.3945  0.5480 -0.3718
  109MOL   C23135007   3.889   7.289   7.537 -0.4263 -0.4898  0.8097
  109MOL   C23235008   3.801   7.283   7.648 -0.0603 -1.0012 -0.7994
  109MOL   C23335009   3.695   7.195   7.639  0.4908 -0.3071 -0.0780
  109MOL   C23435010   3.409   7.114   7.546 -0.2240 -0.6107 -0.0501
  109MOL   H23535011   3.533   6.979   7.423 -0.8178  1.1198 -0.9261
  109MOL   H23635012   3.911   7.225   7.323  0.7326  2.4286 -0.1069
  109MOL   H23735013   3.983   7.341   7.544  0.1422 -1.5049  0.7816
  109MOL   H23835014   3.827   7.340   7.736 -1.9366  1.4479 -1.7684
  109MOL   H23935015   3.648   7.192   7.736  1.2350 -2.0304  0.2451
  109MOL   H24035016   3.416   7.157   7.646 -2.2197 -1.4803  0.4846
  109MOL   H24135017   3.330   7.038   7.546 -0.3470 -0.4816  0.2172
  109MOL   C24235018   3.369   7.214   7.430  0.2072  0.5026 -1.2511
  109MOL   C24335019   3.410   7.356   7.464 -0.7763 -0.2677  0.4434
  109MOL   C24435020   3.491   7.438   7.380  0.2025  0.4328 -0.1897
  109MOL  Cl24535021   3.535   7.390   7.223  0.2159 -0.4673 -0.3061
  109MOL   C24635022   3.531   7.561   7.421  0.3799 -0.1676  0.6475
  109MOL   C24735023   3.485   7.622   7.539  0.2568 -0.5466 -0.7201
  109MOL   C24835024   3.396   7.552   7.615 -0.7375  0.3961 -0.3265
  109MOL   C24935025   3.358   7.418   7.584  0.2187 -0.3386  0.2858
  109MOL   C25035026   3.214   7.207   7.402  0.7147  0.5451  0.1890
  109MOL   H25135027   3.425   7.184   7.342  0.1181 -1.0590 -0.7886
  109MOL   H25235028   3.599   7.611   7.354  0.9537 -0.2980  1.1418
  109MOL   H25335029   3.515   7.717   7.582 -0.9270 -1.0852  1.3976
  109MOL   H25435030   3.359   7.606   7.701  1.5562  0.5947  0.5641
  109MOL   H25535031   3.302   7.364   7.658  2.1459  0.1641  2.1753
  109MOL   H25635032   3.179   7.298   7.353  1.9264  0.6087 -0.5853
  109MOL   H25735033   3.155   7.204   7.494  1.5350  1.0792  0.7371
  109MOL   C25835034   3.168   7.102   7.303  0.3950  0.1913 -1.0255
  109MOL   C25935035   3.227   7.141   7.175  0.5287 -0.5069 -0.3718
  109MOL   C26035036   3.335   7.071   7.116  0.3495  1.0542  0.1742
  109MOL  Cl26135037   3.392   6.927   7.197  0.3766  0.0167 -0.5253
  109MOL   C26235038   3.383   7.099   6.989  0.0832 -0.0996  0.4373
  109MOL   C26335039   3.325   7.203   6.910 -0.0630  0.2302  0.6768
  109MOL   C26435040   3.227   7.280   6.977 -0.2987 -0.6656  0.2715
  109MOL   C26535041   3.177   7.252   7.105  0.1289  0.2996 -0.4922
  109MOL   C26635042   3.011   7.103   7.296  0.0587 -0.2548  0.7347
  109MOL   H26735043   3.191   6.999   7.330 -1.2985 -0.1472 -0.8321
  109MOL   H26835044   3.462   7.037   6.949  0.6911  1.0519 -0.1865
  109MOL   H26935045   3.363   7.213   6.810 -1.4021 -1.0934  0.0201
  109MOL   H27035046   3.196   7.371   6.926  1.0636 -0.1534  0.3314
  109MOL   H27135047   3.102   7.322   7.140 -0.1501  0.5542 -1.5777
  109MOL   H27235048   2.968   7.203   7.291  1.3413  0.4059  2.3072
  109MOL   H27335049   2.975   7.065   7.392 -0.0152  1.9381  1.6061
  109MOL   C27435050   2.931   7.013   7.195  0.6328  0.4285 -0.3858
  109MOL   C27535051   2.993   6.874   7.165 -0.6479  0.7771  0.1479
  109MOL   C27635052   2.960   6.756   7.236  0.6279 -0.5939 -0.2983
  109MOL  Cl27735053   2.839   6.759   7.362 -0.1788 -0.0335  0.1188
  109MOL   C27835054   3.018   6.634   7.190 -0.1416  0.4808 -0.3639
  109MOL   C27935055   3.105   6.623   7.080  0.0220  1.0179  0.0656
  109MOL   C28035056   3.148   6.739   7.024 -0.1182  0.6771  0.3418
  109MOL   C28135057   3.081   6.857   7.055  0.5341  0.0093 -0.0329
  109MOL   C28235058   2.882   7.087   7.066 -0.4407  0.1132  0.3554
  109MOL   H28335059   2.840   6.975   7.240  1.2984  1.9034  2.3041
  109MOL   H28435060   2.986   6.541   7.235 -1.2941  0.7892 -0.5489
  109MOL   H28535061   3.152   6.530   7.053  2.0060  2.0089 -0.0084
  109MOL   H28635062   3.217   6.743   6.941  1.3014  0.3630  1.4822
  109MOL   H28735063   3.094   6.941   6.988  1.1496  0.6434  0.8740
  109MOL   H28835064   2.966   7.134   7.015 -2.1376  0.7710 -1.9341
  109MOL   H28935065   2.817   7.168   7.102 -2.6337 -0.6053 -1.7816
  109MOL   C29035066   2.794   7.018   6.963 -0.3036 -0.0458 -0.2748
  109MOL   C29135067   2.772   7.108   6.836 -0.1560 -0.0159 -0.4144
  109MOL   C29235068   2.865   7.109   6.727  0.0850 -0.2014  0.0289
  109MOL  Cl29335069   2.994   6.998   6.727 -0.0310  0.2263  0.4501
  109MOL   C29435070   2.836   7.189   6.616 -0.0008 -1.3189 -0.3621
  109MOL   C29535071   2.733   7.288   6.622 -0.3646 -0.1756  0.5344
  109MOL   C29635072   2.646   7.296   6.734 -0.3085 -0.4752 -0.6866
  109MOL   C29735073   2.661   7.200   6.837  0.1816  0.6301  0.2102
  109MOL   C29835074   2.662   6.961   7.027  1.0773  0.2630  0.9868
  109MOL   H29935075   2.853   6.931   6.935  0.1933  0.1797  0.0528
  109MOL   H30035076   2.895   7.182   6.526 -1.1685  1.2779 -1.3772
  109MOL   H30135077   2.712   7.362   6.547  0.5838 -1.4715 -1.0365
  109MOL   H30235078   2.555   7.354   6.722 -1.1899 -1.2561  1.8453
  109MOL   H30335079   2.581   7.200   6.910 -0.5538 -0.1862 -0.5872
  109MOL   H30435080   2.596   7.041   7.060 -0.5207 -0.8689  0.5949
  109MOL   H30535081   2.675   6.896   7.113 -0.9831  2.4567  3.0362
  109MOL   C30635082   2.578   6.884   6.920  0.1992 -0.3698 -0.2703
  109MOL   C30735083   2.435   6.852   6.971  0.0734  0.7427 -0.4006
  109MOL   C30835084   2.326   6.931   6.929 -0.6858  0.0946 -0.1644
  109MOL  Cl30935085   2.352   7.080   6.841  0.0128 -0.0443 -0.0496
  109MOL   C31035086   2.198   6.898   6.969  0.0601  0.0671  0.0417
  109MOL   C31135087   2.177   6.786   7.048  0.0952  0.5214 -0.3302
  109MOL   C31235088   2.282   6.708   7.097  0.2196 -0.3449  0.5946
  109MOL   C31335089   2.413   6.744   7.064  0.2751 -0.1411  0.2542
  109MOL   C31435090   2.650   6.759   6.861 -0.2505 -0.2387 -0.3516
  109MOL   H31535091   2.558   6.951   6.837  1.2279 -0.5208 -0.6370
  109MOL   H31635092   2.120   6.956   6.922  0.8811 -0.4638 -2.0059
  109MOL   H31735093   2.073   6.766   7.067  0.6026 -2.0715 -0.1170
  109MOL   H31835094   2.246   6.631   7.164  0.6487 -1.5030 -0.4932
  109MOL   H31935095   2.495   6.685   7.101  0.8437  0.7077  0.3615
  109MOL   H32035096   2.738   6.796   6.809  0.7297 -0.5691  1.0344
  109MOL   H32135097   2.586   6.708   6.789 -0.0827  1.3809 -1.6605
  109MOL   H32235098   2.684   6.692   6.940  0.5180  2.3380  1.5629
  110MOL     C135099   4.581   3.303   0.856 -0.5363 -0.7029  0.7147
  110MOL     C235100   4.455   3.252   0.796  0.1905 -0.8911  0.0261
  110MOL     C335101   4.443   3.231   0.659 -0.3382  0.3419 -0.3790
  110MOL    Cl435102   4.560   3.266   0.535 -0.0521 -0.1131 -0.2591
  110MOL     C535103   4.320   3.181   0.606 -0.4804 -0.3301 -0.2394
  110MOL     C635104   4.216   3.140   0.687 -0.3950 -0.4661  0.4604
  110MOL     C735105   4.223   3.171   0.826  0.8825 -0.1560  0.0012
  110MOL     C835106   4.343   3.223   0.877  0.0523  0.3230  0.2172
  110MOL     C935107   4.640   3.215   0.975 -0.5747 -0.9373 -0.1942
  110MOL    H1035108   4.653   3.314   0.776  0.5997 -2.0177  1.5354
  110MOL    H1135109   4.293   3.181   0.501  1.0076 -0.2852 -0.6350
  110MOL    H1235110   4.116   3.122   0.650 -0.7529 -0.4099  1.3872
  110MOL    H1335111   4.137   3.162   0.891  0.7076 -0.7010 -0.3055
  110MOL    H1435112   4.350   3.257   0.980  0.8529 -0.8693  0.5688
  110MOL    H1535113   4.695   3.133   0.930 -0.6024 -0.8937 -0.3069
  110MOL    H1635114   4.560   3.169   1.032 -1.8068  1.2937 -0.0428
  110MOL    H1735115   4.568   3.407   0.887  1.3105 -0.3230  0.2209
  110MOL    C1835116   4.747   3.284   1.063 -0.2214  0.2056  0.1845
  110MOL    C1935117   4.820   3.183   1.147 -0.7322  0.7400 -0.0028
  110MOL    C2035118   4.963   3.158   1.131 -0.6880  0.4221 -0.7555
  110MOL   Cl2135119   5.058   3.229   1.005 -0.1857  0.1768 -0.6452
  110MOL    C2235120   5.027   3.066   1.217 -0.2714 -0.0018 -0.9520
  110MOL    C2335121   4.956   3.014   1.326 -0.0964 -0.5816  0.1349
  110MOL    C2435122   4.819   3.047   1.352 -0.3932 -0.3330 -0.5026
  110MOL    C2535123   4.750   3.124   1.255 -0.0082 -0.0643  0.3813
  110MOL    C2635124   4.691   3.405   1.145  0.9072 -0.4113 -0.5962
  110MOL    H2735125   4.818   3.325   0.991 -0.2848  0.7083  0.4126
  110MOL    H2835126   5.130   3.038   1.199  0.4351  1.9766 -0.0594
  110MOL    H2935127   5.002   2.941   1.391  0.7841  0.5214  0.7708
  110MOL    H3035128   4.769   2.997   1.434  3.4712 -0.8948  1.5957
  110MOL    H3135129   4.648   3.158   1.263 -0.2031 -0.5408 -0.0363
  110MOL    H3235130   4.681   3.389   1.253 -1.4884  0.7168 -0.5942
  110MOL    H3335131   4.583   3.414   1.130  0.8469  0.5727  0.2938
  110MOL    C3435132   4.756   3.543   1.132 -0.1791 -0.2976 -0.1212
  110MOL    C3535133   4.908   3.539   1.158 -0.0996  1.1105 -0.0274
  110MOL    C3635134   5.003   3.593   1.073  0.0796  0.0132 -0.4670
  110MOL   Cl3735135   4.954   3.689   0.936 -0.1252 -0.2342  0.0966
  110MOL    C3835136   5.140   3.576   1.096  0.2372  0.4380  0.0424
  110MOL    C3935137   5.179   3.504   1.215  0.3447  0.0324  0.9979
  110MOL    C4035138   5.090   3.444   1.299  0.0015 -0.5454 -0.2076
  110MOL    C4135139   4.953   3.469   1.269  0.5354  0.1380 -0.1681
  110MOL    C4235140   4.692   3.648   1.226  0.3003 -1.1007 -0.6039
  110MOL    H4335141   4.739   3.566   1.027 -0.0213 -1.5207 -0.4260
  110MOL    H4435142   5.217   3.630   1.042  0.7055  0.6964  0.9647
  110MOL    H4535143   5.285   3.493   1.235  0.7814  0.3341 -1.0970
  110MOL    H4635144   5.114   3.386   1.388  1.1066  0.8118  0.3848
  110MOL    H4735145   4.879   3.419   1.330  0.5792  0.1389 -0.1140
  110MOL    H4835146   4.742   3.744   1.213 -1.6985  0.4085  2.2529
  110MOL    H4935147   4.710   3.619   1.329 -1.7255 -0.5453 -0.0632
  110MOL    C5035148   4.537   3.675   1.210 -0.6338  0.3826  0.9079
  110MOL    C5135149   4.492   3.710   1.073  0.0629  0.3187  0.8448
  110MOL    C5235150   4.388   3.639   1.007  0.5402 -0.4298 -0.0871
  110MOL   Cl5335151   4.286   3.525   1.081  0.2326 -0.0517  0.1786
  110MOL    C5435152   4.356   3.673   0.877  0.4917  0.2209 -1.0338
  110MOL    C5535153   4.420   3.775   0.808 -0.4889  0.2850  0.7704
  110MOL    C5635154   4.521   3.849   0.871  0.7630 -0.1026  0.0118
  110MOL    C5735155   4.557   3.816   1.001  0.3698  0.6888  0.3228
  110MOL    C5835156   4.497   3.784   1.305 -0.7575 -0.0966  0.3771
  110MOL    H5935157   4.492   3.580   1.240 -0.6844  0.0449 -0.2251
  110MOL    H6035158   4.273   3.616   0.838  0.3752 -0.7205  0.5595
  110MOL    H6135159   4.412   3.785   0.701  0.3304  1.4278  0.8095
  110MOL    H6235160   4.571   3.929   0.818  3.1352 -2.4257 -1.4259
  110MOL    H6335161   4.640   3.867   1.047  0.0344 -1.0153  2.9453
  110MOL    H6435162   4.401   3.821   1.269 -0.5441 -0.1911 -0.2937
  110MOL    H6535163   4.569   3.866   1.312 -0.0349 -0.7540  0.8553
  110MOL    C6635164   4.476   3.741   1.456 -0.4756  0.1243  0.1730
  110MOL    C6735165   4.388   3.615   1.464 -0.0661  0.4050 -0.3913
  110MOL    C6835166   4.445   3.493   1.506  0.9679  0.0731  0.5369
  110MOL   Cl6935167   4.614   3.470   1.554 -0.1678  0.1247 -0.1888
  110MOL    C7035168   4.356   3.387   1.537 -0.1480 -0.4349 -0.8231
  110MOL    C7135169   4.222   3.392   1.510 -0.2270  0.1915 -0.0976
  110MOL    C7235170   4.168   3.509   1.445  0.0483 -0.0919 -0.0243
  110MOL    C7335171   4.253   3.619   1.424 -0.6357 -0.7300  0.5323
  110MOL    C7435172   4.426   3.854   1.544  0.4459 -0.7406  0.4640
  110MOL    H7535173   4.573   3.717   1.498 -1.6492 -2.3842  1.5758
  110MOL    H7635174   4.387   3.298   1.590 -1.0170  0.9088  2.0400
  110MOL    H7735175   4.164   3.304   1.533  3.5054 -2.7343 -1.5604
  110MOL    H7835176   4.065   3.520   1.416  0.5656  1.8919 -1.1586
  110MOL    H7935177   4.211   3.707   1.376  0.0325 -0.3674  0.6161
  110MOL    H8035178   4.320   3.873   1.528  0.7816  0.4194 -0.4998
  110MOL    H8135179   4.473   3.951   1.528 -1.6448  0.0727 -0.9325
  110MOL    C8235180   4.463   3.827   1.696 -0.8077 -0.2248 -0.0110
  110MOL    C8335181   4.365   3.911   1.784  0.0597 -0.4913  0.5838
  110MOL    C8435182   4.271   3.847   1.875  0.1071 -0.1485  0.3872
  110MOL   Cl8535183   4.253   3.675   1.880  0.4685  0.7929 -0.0904
  110MOL    C8635184   4.177   3.927   1.946 -0.2669  0.9695  0.3201
  110MOL    C8735185   4.189   4.070   1.936 -0.3711  0.1300  0.0326
  110MOL    C8835186   4.285   4.132   1.847 -0.8671  0.2623  0.8865
  110MOL    C8935187   4.373   4.057   1.772  0.2908 -0.1685  0.2492
  110MOL    C9035188   4.608   3.859   1.725  0.4485  0.1830 -0.2590
  110MOL    H9135189   4.440   3.722   1.712  1.6979 -0.6858  0.7303
  110MOL    H9235190   4.109   3.892   2.022  0.1779 -2.2076 -0.6760
  110MOL    H9335191   4.111   4.125   1.987 -1.3874 -1.1873 -0.0716
  110MOL    H9435192   4.282   4.239   1.836  0.6840  0.3682  1.4302
  110MOL    H9535193   4.430   4.108   1.695  1.0190 -0.5917  0.5022
  110MOL    H9635194   4.629   3.966   1.724  0.7222  0.1342 -2.6094
  110MOL    H9735195   4.685   3.822   1.656 -1.2808 -1.1699 -1.5232
  110MOL    C9835196   4.663   3.815   1.863  0.1895  0.6485 -0.3987
  110MOL    C9935197   4.756   3.922   1.916  0.3521 -0.4045 -0.1519
  110MOL   C10035198   4.715   4.017   2.012  0.1428 -0.4316  0.1085
  110MOL  Cl10135199   4.544   4.024   2.052  0.1864 -0.1823 -0.2153
  110MOL   C10235200   4.801   4.121   2.049 -0.2626 -0.0155  0.1610
  110MOL   C10335201   4.932   4.131   2.005 -0.0705 -0.5676  0.7753
  110MOL   C10435202   4.977   4.031   1.917  0.0764  0.2480 -0.1276
  110MOL   C10535203   4.896   3.925   1.877 -0.4894 -0.6201  0.0805
  110MOL   C10635204   4.724   3.673   1.865 -0.1601  0.0063 -0.2824
  110MOL   H10735205   4.579   3.813   1.932 -0.7228 -0.3049 -1.5281
  110MOL   H10835206   4.753   4.191   2.116 -1.4433  0.2600 -0.9230
  110MOL   H10935207   4.989   4.217   2.038 -1.3448  1.2113 -1.5039
  110MOL   H11035208   5.081   4.030   1.889 -0.3534 -1.1416 -1.7711
  110MOL   H11135209   4.939   3.849   1.813 -1.1342 -0.6512 -0.3213
  110MOL   H11235210   4.804   3.658   1.792 -0.1185 -1.5530  0.0544
  110MOL   H11335211   4.640   3.616   1.824 -0.4289  1.0180 -1.1735
  110MOL   C11435212   4.776   3.611   1.992 -0.2387 -0.2139  0.8611
  110MOL   C11535213   4.669   3.636   2.104 -0.7681 -0.7665 -0.2573
  110MOL   C11635214   4.553   3.557   2.116 -0.5886 -0.4674  0.2659
  110MOL  Cl11735215   4.530   3.417   2.012 -0.0846  0.3752  0.3662
  110MOL   C11835216   4.466   3.576   2.224 -0.1223  0.5496 -0.0339
  110MOL   C11935217   4.478   3.681   2.319  0.0863 -0.8885  0.4594
  110MOL   C12035218   4.597   3.762   2.297 -0.5620  1.1014 -0.6244
  110MOL   C12135219   4.688   3.735   2.196 -0.2296 -0.1740  0.6790
  110MOL   C12235220   4.922   3.627   2.042  0.1879 -0.2715  0.5551
  110MOL   H12335221   4.770   3.504   1.974  0.7315 -0.5800  2.5907
  110MOL   H12435222   4.384   3.506   2.214 -0.8804  1.4637 -0.2642
  110MOL   H12535223   4.406   3.700   2.397 -0.7505  1.5785 -0.8489
  110MOL   H12635224   4.624   3.832   2.375  1.4537 -0.9017  0.5650
  110MOL   H12735225   4.781   3.791   2.195 -0.8665  0.9304 -1.9057
  110MOL   H12835226   4.929   3.575   2.137 -1.2990 -1.0376  0.2665
  110MOL   H12935227   4.944   3.732   2.064 -0.4164 -0.4263  1.9032
  110MOL   C13035228   5.026   3.572   1.946  0.0359 -0.2322 -0.1070
  110MOL   C13135229   4.997   3.428   1.902  0.2137  0.0735  0.7186
  110MOL   C13235230   4.970   3.399   1.762 -0.8048  0.1803 -0.6153
  110MOL  Cl13335231   4.977   3.523   1.641 -0.1746 -0.0401 -0.2303
  110MOL   C13435232   4.942   3.266   1.715  0.1200 -0.1195 -0.0684
  110MOL   C13535233   4.933   3.162   1.808  0.4520  0.6836 -0.4558
  110MOL   C13635234   4.948   3.189   1.949  0.1323  0.0106  0.1552
  110MOL   C13735235   4.989   3.317   1.993  0.1258 -0.1279  0.4264
  110MOL   C13835236   5.162   3.588   2.021 -0.1973  0.0498  0.2621
  110MOL   H13935237   5.027   3.643   1.864  0.9351  0.2192  0.2883
  110MOL   H14035238   4.925   3.244   1.611 -0.7045 -0.0552  0.0455
  110MOL   H14135239   4.906   3.063   1.773 -0.3054  0.2776  1.2449
  110MOL   H14235240   4.922   3.104   2.009  0.5416 -0.1684  0.0771
  110MOL   H14335241   4.985   3.339   2.098  1.0451 -2.9333  1.0970
  110MOL   H14435242   5.198   3.488   2.042  2.6979  0.9893 -0.0042
  110MOL   H14535243   5.148   3.624   2.123 -1.5986  0.7806 -0.1703
  110MOL   C14635244   5.259   3.676   1.939 -0.0970 -0.4658  0.4814
  110MOL   C14735245   5.289   3.627   1.797  0.1042  0.6894 -0.3814
  110MOL   C14835246   5.278   3.711   1.677  0.9147  0.7075  0.5809
  110MOL  Cl14935247   5.213   3.873   1.697 -0.5146  0.2896  0.3234
  110MOL   C15035248   5.322   3.667   1.546 -0.1153  0.5864  0.6875
  110MOL   C15135249   5.376   3.540   1.534 -0.2033 -0.0016  0.3660
  110MOL   C15235250   5.383   3.462   1.650 -0.2879  0.2416  0.1827
  110MOL   C15335251   5.347   3.505   1.776 -1.2015  0.1052  0.1120
  110MOL   C15435252   5.393   3.706   2.009  1.0367 -0.3238  0.2073
  110MOL   H15535253   5.202   3.770   1.936  0.1113 -0.2603  2.7761
  110MOL   H15635254   5.310   3.728   1.457  0.0330 -0.1064  0.1934
  110MOL   H15735255   5.417   3.503   1.440 -0.6508  0.5640 -0.0501
  110MOL   H15835256   5.415   3.360   1.641  0.5830  0.4306  1.0682
  110MOL   H15935257   5.354   3.436   1.859 -2.9845 -0.2317 -0.0161
  110MOL   H16035258   5.476   3.733   1.944  0.9307 -1.4517 -0.4044
  110MOL   H16135259   5.432   3.609   2.042  0.3219 -0.7355 -0.1443
  110MOL   C16235260   5.393   3.806   2.130 -0.0488  0.5969  0.4173
  110MOL   C16335261   5.357   3.946   2.099  0.5669 -0.5386  0.1914
  110MOL   C16435262   5.285   4.025   2.195  0.5721 -1.1784 -0.6460
  110MOL  Cl16535263   5.221   3.958   2.337  0.0282 -0.1562 -0.2011
  110MOL   C16635264   5.255   4.165   2.170 -0.0978 -0.1992 -0.4262
  110MOL   C16735265   5.297   4.230   2.056  0.0954 -0.1516 -0.4547
  110MOL   C16835266   5.361   4.151   1.956 -0.4970  0.3464 -0.3744
  110MOL   C16935267   5.389   4.012   1.979  0.2069  0.6688 -0.3645
  110MOL   C17035268   5.522   3.795   2.207  0.1078 -0.1298  0.1054
  110MOL   H17135269   5.312   3.771   2.194  0.2783 -0.1366  0.4351
  110MOL   H17235270   5.211   4.230   2.245  0.1438  0.4618 -0.8500
  110MOL   H17335271   5.283   4.336   2.049 -0.9400 -0.2359  0.2676
  110MOL   H17435272   5.387   4.195   1.861 -1.2982  1.1119 -0.2488
  110MOL   H17535273   5.431   3.948   1.903  0.6311  1.9445 -1.2211
  110MOL   H17635274   5.534   3.889   2.261 -1.0439  1.1383 -1.7825
  110MOL   H17735275   5.604   3.791   2.135  0.1231 -1.9532  0.2126
  110MOL   C17835276   5.535   3.671   2.297 -0.6904 -0.0184 -0.2128
  110MOL   C17935277   5.458   3.685   2.423  0.0953  0.2968  0.1929
  110MOL   C18035278   5.341   3.613   2.449 -0.2970 -0.4654  0.2911
  110MOL  Cl18135279   5.267   3.503   2.338 -0.0391 -0.1227 -0.3618
  110MOL   C18235280   5.279   3.620   2.574  0.4065  0.1797 -0.1530
  110MOL   C18335281   5.329   3.708   2.671  0.5228 -0.4822 -0.3009
  110MOL   C18435282   5.444   3.776   2.646  0.3753 -0.1044 -0.2310
  110MOL   C18535283   5.509   3.768   2.524  1.1341 -0.1869 -0.0348
  110MOL   C18635284   5.685   3.634   2.325  0.0462 -0.3915 -0.3116
  110MOL   H18735285   5.499   3.588   2.235  1.1122 -0.6274 -0.4746
  110MOL   H18835286   5.192   3.558   2.593 -0.0496  0.6688 -0.6489
  110MOL   H18935287   5.293   3.714   2.772 -0.1617 -2.2932 -0.4201
  110MOL   H19035288   5.483   3.854   2.709 -1.4365 -0.9437  2.0088
  110MOL   H19135289   5.599   3.826   2.508  0.1835  1.4316  0.4472
  110MOL   H19235290   5.732   3.704   2.393 -1.2249  1.3915 -1.2567
  110MOL   H19335291   5.733   3.644   2.227  0.5156 -0.1601 -0.0616
  110MOL   C19435292   5.728   3.487   2.366 -0.0580 -0.2276  0.6762
  110MOL   C19535293   5.661   3.438   2.494  0.6401 -0.3147 -0.1703
  110MOL   C19635294   5.576   3.323   2.486 -0.0745 -0.1089 -0.3473
  110MOL  Cl19735295   5.555   3.226   2.346 -0.3060  0.5370 -0.1376
  110MOL   C19835296   5.514   3.281   2.606  0.4938 -0.4080 -0.2811
  110MOL   C19935297   5.520   3.351   2.727 -0.0867  0.0613  0.7442
  110MOL   C20035298   5.593   3.468   2.727 -0.2768 -0.3959  0.4222
  110MOL   C20135299   5.665   3.507   2.619  0.0355  0.2366 -0.7329
  110MOL   C20235300   5.887   3.458   2.365  0.8685 -0.0566 -0.3905
  110MOL   H20335301   5.704   3.417   2.286 -1.0698  2.6130 -1.5990
  110MOL   H20435302   5.462   3.186   2.597  1.0456 -0.8664  1.2305
  110MOL   H20535303   5.463   3.330   2.817 -1.9141  0.2121 -0.3447
  110MOL   H20635304   5.602   3.532   2.814 -1.3004 -1.4178  1.3051
  110MOL   H20735305   5.711   3.605   2.628  0.9770 -0.4151  2.1031
  110MOL   H20835306   5.903   3.351   2.378  1.7550  0.1448  0.1821
  110MOL   H20935307   5.927   3.502   2.456  1.3049  2.6204 -1.8243
  110MOL   C21035308   5.966   3.486   2.237  0.1837  0.6355 -0.1664
  110MOL   C21135309   5.901   3.422   2.113  0.2482 -0.1567 -0.0171
  110MOL   C21235310   5.849   3.497   2.003 -0.7678 -1.3119  0.1004
  110MOL  Cl21335311   5.850   3.670   1.999 -0.0799  0.2738 -0.1727
  110MOL   C21435312   5.789   3.429   1.893  0.1458  0.4130 -0.0975
  110MOL   C21535313   5.781   3.287   1.889 -0.0937  0.0477 -0.0975
  110MOL   C21635314   5.845   3.213   1.995 -0.0757 -0.1966 -0.2695
  110MOL   C21735315   5.890   3.284   2.102 -0.2568  0.1860 -0.0887
  110MOL   C21835316   6.107   3.429   2.271 -0.3024 -0.3640 -0.4340
  110MOL   H21935317   5.974   3.594   2.230 -0.2441  0.6199 -0.9176
  110MOL   H22035318   5.738   3.485   1.817  0.5701  0.0095 -0.6822
  110MOL   H22135319   5.741   3.231   1.806 -0.7083  0.5637 -0.1441
  110MOL   H22235320   5.853   3.106   1.990 -1.0630 -0.3334  0.6190
  110MOL   H22335321   5.923   3.215   2.178  0.6655  1.0210  0.2902
  110MOL   H22435322   6.102   3.320   2.271 -0.7079 -0.3765 -3.0522
  110MOL   H22535323   6.137   3.467   2.368 -0.2868 -0.2623 -0.4791
  110MOL   C22635324   6.214   3.457   2.165 -0.2723  0.9304 -0.2570
  110MOL   C22735325   6.325   3.345   2.164  0.0745 -0.0965 -0.2801
  110MOL   C22835326   6.341   3.266   2.053 -0.8879 -0.7405 -0.5722
  110MOL  Cl22935327   6.247   3.284   1.901 -0.6147  0.4302 -0.1361
  110MOL   C23035328   6.439   3.167   2.042 -0.0586 -0.0845 -0.7120
  110MOL   C23135329   6.512   3.137   2.162 -0.0923  0.4931  0.6629
  110MOL   C23235330   6.487   3.209   2.276  0.3304 -0.2060 -0.3286
  110MOL   C23335331   6.386   3.310   2.288  0.3109 -0.4981  0.2055
  110MOL   C23435332   6.274   3.595   2.168 -0.0371 -0.1246  0.6375
  110MOL   H23535333   6.166   3.455   2.067  1.1925  1.8528 -1.0220
  110MOL   H23635334   6.460   3.110   1.952  1.1514 -1.7751  0.5961
  110MOL   H23735335   6.582   3.056   2.155  0.6510  1.3067 -1.8478
  110MOL   H23835336   6.543   3.173   2.361 -0.3176 -0.5807 -0.0506
  110MOL   H23935337   6.371   3.368   2.377  2.2696 -0.9147  0.8478
  110MOL   H24035338   6.360   3.600   2.234  0.1779  0.9196  0.2917
  110MOL   H24135339   6.207   3.666   2.216  0.1741 -0.5516  1.5788
  110MOL   C24235340   6.323   3.645   2.027  0.0628  0.2608 -0.0482
  110MOL   C24335341   6.443   3.748   2.048 -0.6953 -0.6658  0.3092
  110MOL   C24435342   6.569   3.713   1.999 -0.0009 -0.1827 -0.0514
  110MOL  Cl24535343   6.608   3.566   1.917 -0.0690  0.3189  0.2487
  110MOL   C24635344   6.674   3.803   2.011  0.8139  0.7339  0.2683
  110MOL   C24735345   6.667   3.926   2.067 -0.1431  0.3328  0.6740
  110MOL   C24835346   6.548   3.961   2.129 -0.0775  0.3681 -0.1985
  110MOL   C24935347   6.431   3.873   2.109 -0.5317  0.3740 -0.6671
  110MOL   C25035348   6.216   3.725   1.951 -0.0435  0.2090 -0.2130
  110MOL   H25135349   6.353   3.561   1.965 -1.4097  1.0412 -1.8611
  110MOL   H25235350   6.771   3.774   1.972 -0.4477  0.0818 -2.5008
  110MOL   H25335351   6.747   3.998   2.063  0.7381 -0.7588 -1.6844
  110MOL   H25435352   6.534   4.056   2.178  1.8369 -0.0448  1.2185
  110MOL   H25535353   6.342   3.912   2.157  0.0059  0.5726  0.1964
  110MOL   H25635354   6.188   3.815   2.005 -0.9568  0.7643 -1.5885
  110MOL   H25735355   6.126   3.664   1.953 -0.0467  0.2477  2.0501
  110MOL   C25835356   6.247   3.767   1.807  0.3538 -0.0493 -0.5869
  110MOL   C25935357   6.168   3.892   1.773 -0.6098 -0.1811  0.6658
  110MOL   C26035358   6.238   4.018   1.745 -0.2534  0.9489 -0.1277
  110MOL  Cl26135359   6.411   4.028   1.749 -0.0270  0.0205  0.2301
  110MOL   C26235360   6.166   4.129   1.722  0.3057  0.0800  0.5745
  110MOL   C26335361   6.028   4.134   1.728 -0.1588  0.3686  0.0908
  110MOL   C26435362   5.962   4.014   1.761  0.3957 -0.5792  0.0844
  110MOL   C26535363   6.030   3.894   1.775  0.3814  0.0647 -0.3120
  110MOL   C26635364   6.211   3.640   1.718  0.0682  0.0085  0.1690
  110MOL   H26735365   6.354   3.785   1.801  0.3409 -0.2040 -1.2199
  110MOL   H26835366   6.217   4.217   1.686  2.9927 -2.3536 -1.9255
  110MOL   H26935367   5.976   4.224   1.700  0.7949  0.8336 -0.2043
  110MOL   H27035368   5.858   4.025   1.789  0.6117  0.6859  0.3780
  110MOL   H27135369   5.977   3.802   1.789  0.6975 -0.1787 -0.6838
  110MOL   H27235370   6.109   3.614   1.744  0.6144  0.1419  2.5670
  110MOL   H27335371   6.264   3.555   1.760  0.1661 -0.8658 -1.6798
  110MOL   C27435372   6.247   3.634   1.572 -0.6346 -0.0573  0.3684
  110MOL   C27535373   6.392   3.682   1.556 -0.8712 -0.5980  0.0941
  110MOL   C27635374   6.500   3.596   1.587 -1.1817  0.1139  0.9140
  110MOL  Cl27735375   6.469   3.443   1.653 -0.1548 -0.1770 -0.3428
  110MOL   C27835376   6.634   3.633   1.568  0.5543  0.2601  0.8841
  110MOL   C27935377   6.663   3.762   1.517 -0.4467 -0.4730  0.3031
  110MOL   C28035378   6.560   3.847   1.471 -0.0074  0.5223 -0.2276
  110MOL   C28135379   6.425   3.809   1.492 -0.9014  0.4674 -0.9726
  110MOL   C28235380   6.152   3.727   1.492  0.1887  0.0651 -0.2356
  110MOL   H28335381   6.242   3.530   1.537 -0.3971  0.1345 -0.2531
  110MOL   H28435382   6.714   3.567   1.598  1.5359  0.8063 -0.4874
  110MOL   H28535383   6.764   3.799   1.523  0.2545 -2.1743 -0.7567
  110MOL   H28635384   6.590   3.946   1.440 -1.6066  1.9910  2.6736
  110MOL   H28735385   6.351   3.885   1.472 -0.5505  1.8610  2.5673
  110MOL   H28835386   6.187   3.734   1.389 -0.3019  0.7489 -0.3607
  110MOL   H28935387   6.138   3.830   1.524 -0.0810 -0.1398  0.3172
  110MOL   C29035388   6.016   3.660   1.468  0.1061  0.4000 -0.1682
  110MOL   C29135389   6.018   3.525   1.387  0.2842  0.3660 -0.1407
  110MOL   C29235390   6.010   3.400   1.451  0.7048  0.2018 -0.4714
  110MOL  Cl29335391   6.017   3.382   1.620 -0.2626 -0.0893  0.3431
  110MOL   C29435392   6.009   3.278   1.378  0.7214  0.3538  0.3459
  110MOL   C29535393   6.010   3.287   1.235  0.4655 -0.7995 -0.8165
  110MOL   C29635394   6.026   3.411   1.174 -0.4134  0.3568  0.2958
  110MOL   C29735395   6.036   3.531   1.248 -0.3014 -0.1897  0.6231
  110MOL   C29835396   5.916   3.761   1.403  1.0813 -0.2552  1.0202
  110MOL   H29935397   5.979   3.634   1.567 -0.9610  1.7399 -0.1984
  110MOL   H30035398   5.995   3.185   1.430 -2.4378  0.8605  0.4904
  110MOL   H30135399   6.004   3.202   1.169  1.2758  0.1562 -2.1548
  110MOL   H30235400   6.032   3.407   1.067  0.2989 -4.3058  0.4050
  110MOL   H30335401   6.043   3.622   1.190 -1.7547 -0.6047 -0.2460
  110MOL   H30435402   5.925   3.777   1.295 -1.7496  2.6303  1.1428
  110MOL   H30535403   5.950   3.852   1.452  1.0554 -0.6520  1.7722
  110MOL   C30635404   5.770   3.735   1.452 -0.0045 -1.3099  0.2590
  110MOL   C30735405   5.663   3.796   1.359 -0.4551  1.0375  0.4074
  110MOL   C30835406   5.610   3.719   1.248 -0.2640 -0.3089  0.1351
  110MOL  Cl30935407   5.668   3.566   1.203  0.4703  0.3423  0.2456
  110MOL   C31035408   5.503   3.773   1.173  0.1540  0.3179  0.6066
  110MOL   C31135409   5.464   3.907   1.198  0.3211 -0.3346  0.6178
  110MOL   C31235410   5.518   3.981   1.305 -0.3371  0.0616 -0.4015
  110MOL   C31335411   5.618   3.923   1.389  0.3102 -0.1862 -0.1716
  110MOL   C31435412   5.746   3.773   1.603  0.3897  0.9062  0.2656
  110MOL   H31535413   5.753   3.627   1.448  1.3811 -1.6714  2.8258
  110MOL   H31635414   5.468   3.711   1.093 -2.2051 -2.5536  3.6914
  110MOL   H31735415   5.391   3.951   1.133 -1.4610 -3.5154  0.3560
  110MOL   H31835416   5.482   4.081   1.321  1.2290  0.4597  0.8064
  110MOL   H31935417   5.644   3.986   1.472  3.1499  0.5720 -1.5916
  110MOL   H32035418   5.782   3.873   1.629 -0.3317  1.5214 -1.0201
  110MOL   H32135419   5.799   3.717   1.679 -1.5115 -1.7951 -0.3540
  110MOL   H32235420   5.639   3.763   1.620 -0.2709  2.8155 -2.4193
  111MOL     C135421   3.785   4.515   5.444  0.3600  0.4310 -0.0317
  111MOL     C235422   3.887   4.443   5.525 -0.0555  0.4080 -0.1863
  111MOL     C335423   3.936   4.493   5.643  0.1238 -0.4750  0.2279
  111MOL    Cl435424   3.885   4.649   5.704 -0.4474 -0.0878  0.3601
  111MOL     C535425   4.027   4.426   5.724  0.3927  0.4198 -0.5040
  111MOL     C635426   4.093   4.316   5.677 -0.7470  0.2801 -0.1403
  111MOL     C735427   4.045   4.254   5.558 -0.1786 -0.5549  0.1763
  111MOL     C835428   3.934   4.317   5.487  0.0102  0.0185  0.3208
  111MOL     C935429   3.739   4.447   5.320 -0.2755 -0.1234  0.5698
  111MOL    H1035430   3.702   4.522   5.514  2.5655 -0.4018  2.8033
  111MOL    H1135431   4.054   4.480   5.814  0.1823  0.4844 -0.4793
  111MOL    H1235432   4.175   4.269   5.730 -0.0433  1.5014 -0.1211
  111MOL    H1335433   4.096   4.167   5.519 -0.5863 -0.6347 -0.1911
  111MOL    H1435434   3.891   4.272   5.398 -0.1444  1.9424 -0.6047
  111MOL    H1535435   3.695   4.353   5.351  0.9093 -1.1712 -0.8952
  111MOL    H1635436   3.824   4.423   5.256 -0.9568 -0.1251 -0.3374
  111MOL    H1735437   3.822   4.612   5.410 -0.6724  0.3368 -1.4298
  111MOL    C1835438   3.642   4.530   5.233  0.8514 -0.4606  0.0988
  111MOL    C1935439   3.515   4.585   5.296  0.1436  0.1306  0.0829
  111MOL    C2035440   3.494   4.729   5.313 -0.5817 -0.4597 -0.2043
  111MOL   Cl2135441   3.610   4.842   5.262  0.1384 -0.0281  0.1280
  111MOL    C2235442   3.370   4.763   5.367 -0.7540 -0.2952  0.1327
  111MOL    C2335443   3.282   4.674   5.426 -0.1726 -0.4300 -0.2689
  111MOL    C2435444   3.303   4.533   5.416 -1.1454 -0.4420 -0.1546
  111MOL    C2535445   3.422   4.491   5.345 -0.0462  0.4445 -0.8145
  111MOL    C2635446   3.605   4.452   5.113 -0.4566 -0.0628  0.7478
  111MOL    H2735447   3.707   4.614   5.209 -0.0615 -0.1638 -1.3889
  111MOL    H2835448   3.337   4.865   5.375  0.4420  0.1582 -0.6575
  111MOL    H2935449   3.186   4.703   5.467  0.2638  0.5618  0.0635
  111MOL    H3035450   3.226   4.461   5.443 -1.4720  0.0651  0.2709
  111MOL    H3135451   3.445   4.387   5.324  2.4194  0.5927  0.9185
  111MOL    H3235452   3.522   4.510   5.071  2.0124  0.9163 -3.0435
  111MOL    H3335453   3.579   4.355   5.155 -0.7050  0.3327  1.5041
  111MOL    C3435454   3.719   4.430   5.008  0.7268 -0.3370 -0.6840
  111MOL    C3535455   3.789   4.558   4.976  0.1214 -0.0755 -0.4436
  111MOL    C3635456   3.926   4.582   5.003 -0.3864  0.3635  0.4287
  111MOL   Cl3735457   4.031   4.462   5.068 -0.1514 -0.0852  0.6924
  111MOL    C3835458   3.976   4.710   4.965 -0.1239  1.0233  0.7569
  111MOL    C3935459   3.888   4.811   4.920 -0.3093 -0.0876 -0.3113
  111MOL    C4035460   3.747   4.785   4.905  0.2047 -0.2878  0.3070
  111MOL    C4135461   3.699   4.651   4.919 -1.0162  0.8183 -0.0552
  111MOL    C4235462   3.663   4.370   4.876 -0.6604  0.5936 -0.6001
  111MOL    H4335463   3.798   4.365   5.046  0.3057 -0.1287  0.5376
  111MOL    H4435464   4.083   4.720   4.978  0.1874  1.1313 -1.6968
  111MOL    H4535465   3.934   4.905   4.896  0.9350 -0.3025  1.1313
  111MOL    H4635466   3.681   4.861   4.867  2.6543  1.1923 -1.0471
  111MOL    H4735467   3.597   4.624   4.895 -0.1082 -4.0937  1.1162
  111MOL    H4835468   3.718   4.411   4.792 -1.3907  2.2871 -0.2732
  111MOL    H4935469   3.558   4.397   4.865 -0.3336  2.4711  0.6019
  111MOL    C5035470   3.668   4.221   4.860 -0.7208  1.0601 -0.2429
  111MOL    C5135471   3.807   4.170   4.902  0.5916 -0.1956  0.7582
  111MOL    C5235472   3.824   4.083   5.018  0.1876 -0.3490  0.5666
  111MOL   Cl5335473   3.698   4.036   5.128 -0.1502 -0.1230  0.0372
  111MOL    C5435474   3.952   4.037   5.050  0.2829  0.1515  0.1957
  111MOL    C5535475   4.069   4.075   4.974 -0.4817  0.5337 -0.0367
  111MOL    C5635476   4.052   4.156   4.858  0.7283 -0.1099 -0.6646
  111MOL    C5735477   3.925   4.197   4.822 -0.4069  0.4985  0.2941
  111MOL    C5835478   3.632   4.174   4.715 -0.3291  0.0524  0.3903
  111MOL    H5935479   3.594   4.179   4.928  0.3210 -1.6865 -0.7101
  111MOL    H6035480   3.975   3.983   5.141 -0.4914  1.5769  1.2581
  111MOL    H6135481   4.170   4.054   5.003 -0.3154 -0.4191 -1.2827
  111MOL    H6235482   4.135   4.172   4.792  0.7220 -0.1335 -0.6778
  111MOL    H6335483   3.915   4.253   4.730  0.0513  0.1056  0.0067
  111MOL    H6435484   3.690   4.222   4.636 -0.0561  0.3161  0.7483
  111MOL    H6535485   3.526   4.194   4.696 -0.8325 -1.7306  1.2259
  111MOL    C6635486   3.666   4.025   4.676  0.0570  0.0199 -0.1506
  111MOL    C6735487   3.642   4.005   4.524 -0.6166  0.0693 -0.5220
  111MOL    C6835488   3.742   3.958   4.438 -0.6510 -0.1996 -0.2202
  111MOL   Cl6935489   3.908   3.938   4.493  0.1286  0.1656  0.2433
  111MOL    C7035490   3.706   3.931   4.300 -0.1547 -0.1794 -0.3561
  111MOL    C7135491   3.579   3.965   4.252 -0.2099 -0.5350 -0.9171
  111MOL    C7235492   3.481   4.015   4.334 -1.0388 -0.1958  0.5110
  111MOL    C7335493   3.514   4.039   4.472  0.2281  0.2806 -0.6533
  111MOL    C7435494   3.583   3.923   4.756  0.4265  0.6554 -0.2686
  111MOL    H7535495   3.770   4.007   4.702  0.3218  0.8196 -0.6249
  111MOL    H7635496   3.774   3.876   4.237  2.6410  2.3224  0.2974
  111MOL    H7735497   3.563   3.950   4.147 -0.6909  1.4322 -1.1400
  111MOL    H7835498   3.386   4.047   4.295 -0.6112 -0.5334 -0.8218
  111MOL    H7935499   3.438   4.074   4.540  0.7509 -0.7892  0.4993
  111MOL    H8035500   3.476   3.934   4.734  0.2576 -1.4364 -0.5835
  111MOL    H8135501   3.591   3.949   4.861 -2.0896  1.0841 -0.1296
  111MOL    C8235502   3.620   3.778   4.745 -0.2742 -0.1158  0.9140
  111MOL    C8335503   3.520   3.686   4.817  0.4030  0.1000 -0.7303
  111MOL    C8435504   3.421   3.617   4.736 -0.5174  0.1688  0.2160
  111MOL   Cl8535505   3.431   3.615   4.563 -0.3476 -0.2105 -0.1530
  111MOL    C8635506   3.319   3.550   4.808 -0.2155 -1.0468  0.2280
  111MOL    C8735507   3.311   3.546   4.945  0.0779 -0.5866  0.2156
  111MOL    C8835508   3.418   3.606   5.022  0.6763 -0.1320  0.6385
  111MOL    C8935509   3.509   3.686   4.955 -0.2675 -0.5907 -0.2837
  111MOL    C9035510   3.770   3.749   4.771  0.3062 -0.5083  0.1005
  111MOL    H9135511   3.617   3.765   4.637  1.0073 -2.0619  1.0868
  111MOL    H9235512   3.240   3.506   4.748 -2.9238  2.1534  1.2315
  111MOL    H9335513   3.237   3.482   4.989 -0.8481 -0.2755 -0.8600
  111MOL    H9435514   3.427   3.603   5.130  3.2650  0.2122  0.4684
  111MOL    H9535515   3.576   3.744   5.016  0.6594 -1.9287 -0.0065
  111MOL    H9635516   3.789   3.777   4.875  0.2485 -0.2760  0.0484
  111MOL    H9735517   3.832   3.818   4.712 -1.3288  1.5289  0.6946
  111MOL    C9835518   3.821   3.606   4.761  0.1939 -0.0880  0.4459
  111MOL    C9935519   3.967   3.603   4.808 -0.1574  0.1774 -0.4371
  111MOL   C10035520   4.016   3.504   4.893 -0.9614  0.0787  0.7730
  111MOL  Cl10135521   3.912   3.379   4.949  0.1552  0.3027 -0.2400
  111MOL   C10235522   4.143   3.517   4.955 -0.6132  0.7162  0.4425
  111MOL   C10335523   4.232   3.613   4.908  0.0905  0.3799 -0.3524
  111MOL   C10435524   4.191   3.700   4.805 -0.0233 -0.4497 -0.5842
  111MOL   C10535525   4.054   3.702   4.755 -0.9941  0.6939 -1.1207
  111MOL   C10635526   3.795   3.553   4.620 -0.6467  0.0266 -0.3007
  111MOL   H10735527   3.761   3.535   4.818 -0.2035  1.3854  1.8784
  111MOL   H10835528   4.171   3.436   5.021 -2.5453 -1.2750 -1.1123
  111MOL   H10935529   4.333   3.627   4.945 -0.4175 -0.7705  1.4898
  111MOL   H11035530   4.255   3.772   4.757  0.7126  0.7054  2.0325
  111MOL   H11135531   4.024   3.764   4.671  2.9968  1.7756 -1.8253
  111MOL   H11235532   3.795   3.639   4.553 -3.1628 -0.3111 -0.7809
  111MOL   H11335533   3.692   3.519   4.610  0.2815 -2.7505 -1.1977
  111MOL   C11435534   3.890   3.436   4.570  0.8325  0.5086 -0.5341
  111MOL   C11535535   4.028   3.479   4.529 -0.0291  0.5930 -0.3505
  111MOL   C11635536   4.141   3.402   4.561  0.7829 -0.5305  0.0040
  111MOL  Cl11735537   4.142   3.267   4.658  0.3634 -0.1777 -0.0791
  111MOL   C11835538   4.265   3.443   4.512  0.8182  0.6425 -0.5611
  111MOL   C11935539   4.286   3.552   4.429  0.4476 -0.4901  0.0522
  111MOL   C12035540   4.174   3.623   4.384 -0.2442  0.5967  0.0460
  111MOL   C12135541   4.048   3.587   4.442  0.7461 -0.4228 -0.4427
  111MOL   C12235542   3.813   3.342   4.476 -0.8874 -0.2968 -0.1865
  111MOL   H12335543   3.900   3.382   4.664 -0.6464  1.5699  0.2430
  111MOL   H12435544   4.353   3.380   4.521 -1.1793 -1.9905  1.0237
  111MOL   H12535545   4.382   3.585   4.392  0.5192  0.1907  0.8311
  111MOL   H12635546   4.183   3.708   4.318 -3.5911 -0.4197 -1.8025
  111MOL   H12735547   3.962   3.634   4.397  1.0091 -1.2439 -1.8595
  111MOL   H12835548   3.833   3.368   4.372  1.6781 -0.4853  0.2248
  111MOL   H12935549   3.704   3.350   4.479 -0.9747 -0.5223 -2.0219
  111MOL   C13035550   3.830   3.184   4.483  0.2060  0.7492  0.2680
  111MOL   C13135551   3.772   3.117   4.357  0.0897 -0.1487 -0.2782
  111MOL   C13235552   3.855   3.066   4.250 -0.1595  0.0562  0.4885
  111MOL  Cl13335553   4.031   3.088   4.250  0.2036 -0.4308  0.4508
  111MOL   C13435554   3.799   2.988   4.145 -0.3687 -0.0252  0.5181
  111MOL   C13535555   3.661   2.960   4.143  0.2968  0.0851 -0.7011
  111MOL   C13635556   3.577   3.015   4.237 -0.1988  0.2214  0.0243
  111MOL   C13735557   3.629   3.094   4.343  0.4124 -0.3528 -0.2450
  111MOL   C13835558   3.784   3.130   4.623  0.5852 -0.0601  0.3307
  111MOL   H13935559   3.938   3.175   4.469  0.3788  0.9064  1.4722
  111MOL   H14035560   3.865   2.945   4.071 -1.0131 -1.5535  0.8161
  111MOL   H14135561   3.609   2.895   4.075 -0.7953 -1.1458  1.2518
  111MOL   H14235562   3.469   3.006   4.229 -0.1404 -0.2858 -0.1535
  111MOL   H14335563   3.558   3.124   4.419  0.1747 -0.5707 -0.3830
  111MOL   H14435564   3.679   3.151   4.642 -0.2162 -3.0553 -0.5577
  111MOL   H14535565   3.843   3.183   4.697  1.3114 -0.1784 -0.1579
  111MOL   C14635566   3.797   2.975   4.646  0.5891  0.0280 -0.2624
  111MOL   C14735567   3.943   2.936   4.620 -0.3280 -0.0466 -0.3373
  111MOL   C14835568   4.032   2.942   4.730 -0.3663 -0.1375 -0.4071
  111MOL  Cl14935569   3.979   2.985   4.894  0.1038 -0.1384 -0.0124
  111MOL   C15035570   4.166   2.904   4.713  0.4874  0.2832  0.5350
  111MOL   C15135571   4.218   2.872   4.588 -0.1844 -0.3291  0.1311
  111MOL   C15235572   4.132   2.873   4.478  0.6936  0.2250 -0.4921
  111MOL   C15335573   3.994   2.896   4.492 -0.4314 -0.5733  0.0896
  111MOL   C15435574   3.701   2.886   4.569 -0.3420 -0.3861 -0.8663
  111MOL   H15535575   3.766   2.955   4.749 -0.0129  2.1492 -0.0263
  111MOL   H15635576   4.225   2.904   4.803  1.9529 -0.7720 -0.4086
  111MOL   H15735577   4.320   2.843   4.568  0.3735  2.1065 -0.6884
  111MOL   H15835578   4.176   2.835   4.387  0.9028 -2.3649  0.6505
  111MOL   H15935579   3.927   2.888   4.408  0.1137 -0.4516 -0.3515
  111MOL   H16035580   3.729   2.860   4.467 -2.1270 -1.2418 -1.1454
  111MOL   H16135581   3.609   2.942   4.555 -1.8121 -2.3946  0.5915
  111MOL   C16235582   3.653   2.763   4.656 -0.2842  0.1215 -1.0032
  111MOL   C16335583   3.769   2.665   4.692 -0.3187 -1.0512 -0.0411
  111MOL   C16435584   3.792   2.629   4.830 -0.2606 -0.4747  0.4601
  111MOL  Cl16535585   3.705   2.694   4.963 -0.0230  0.2977  0.3836
  111MOL   C16635586   3.876   2.522   4.856  0.1349  0.1096  0.0837
  111MOL   C16735587   3.934   2.450   4.748  0.3205  0.1565 -0.4354
  111MOL   C16835588   3.915   2.487   4.615 -0.4536  0.6271 -0.2048
  111MOL   C16935589   3.837   2.599   4.587 -0.0412 -0.2600 -0.0720
  111MOL   C17035590   3.557   2.678   4.565  0.5356  0.0323  0.7556
  111MOL   H17135591   3.616   2.806   4.749  2.5128 -2.5541  1.4624
  111MOL   H17235592   3.894   2.485   4.956  0.4491 -1.9493 -0.7064
  111MOL   H17335593   3.995   2.367   4.780 -1.5636 -0.9438  0.3454
  111MOL   H17435594   3.947   2.430   4.530 -0.1890  0.4151  0.0342
  111MOL   H17535595   3.810   2.605   4.483  0.1796 -3.4053 -0.3428
  111MOL   H17635596   3.602   2.672   4.466 -0.6478 -0.2229  0.2235
  111MOL   H17735597   3.466   2.738   4.552  0.0482 -0.8187  0.1469
  111MOL   C17835598   3.500   2.545   4.613 -0.2704  0.7752  0.0854
  111MOL   C17935599   3.424   2.469   4.496  0.2598  0.2225 -0.3679
  111MOL   C18035600   3.484   2.358   4.432  0.1571 -0.4271  0.3481
  111MOL  Cl18135601   3.637   2.292   4.492  0.3012  0.1831  0.2134
  111MOL   C18235602   3.429   2.291   4.319 -0.9808  0.4379  0.5296
  111MOL   C18335603   3.305   2.339   4.270 -0.3451  0.8275  0.4738
  111MOL   C18435604   3.244   2.458   4.324 -0.1441 -0.1343 -0.2573
  111MOL   C18535605   3.309   2.521   4.435 -0.5700 -0.5179  0.5120
  111MOL   C18635606   3.419   2.556   4.750 -0.6327  0.6728  0.3322
  111MOL   H18735607   3.589   2.490   4.644 -0.4503 -0.3853 -1.4043
  111MOL   H18835608   3.481   2.210   4.270 -1.9888  1.2150 -1.9015
  111MOL   H18935609   3.269   2.306   4.173 -0.9253  2.3471  0.1582
  111MOL   H19035610   3.160   2.509   4.280 -0.3570  1.5840  2.0284
  111MOL   H19135611   3.280   2.620   4.467  1.3893  0.1933  0.1814
  111MOL   H19235612   3.319   2.587   4.719 -0.1369  0.6047 -1.3704
  111MOL   H19335613   3.470   2.642   4.794  3.5290 -0.8282 -1.3627
  111MOL   C19435614   3.428   2.435   4.847  0.6993 -0.5810 -1.0151
  111MOL   C19535615   3.382   2.304   4.783 -1.0471  0.6600  0.3609
  111MOL   C19635616   3.456   2.183   4.786  0.0062 -0.0206  0.2494
  111MOL  Cl19735617   3.573   2.151   4.904 -0.1571  0.1731 -0.2548
  111MOL   C19835618   3.416   2.065   4.715  0.7706  0.3843  0.3627
  111MOL   C19935619   3.305   2.080   4.622  0.2287 -0.2154  0.1082
  111MOL   C20035620   3.228   2.196   4.627 -0.1207 -0.4082 -0.1223
  111MOL   C20135621   3.260   2.303   4.705 -0.4424  0.2340  0.5043
  111MOL   C20235622   3.363   2.469   4.985  0.6329 -0.1122 -0.8688
  111MOL   H20335623   3.535   2.420   4.862  0.9089 -0.1895 -2.0636
  111MOL   H20435624   3.470   1.972   4.724 -0.5666 -0.7345 -2.4911
  111MOL   H20535625   3.270   1.998   4.560  0.0585  0.4992 -0.7512
  111MOL   H20635626   3.137   2.190   4.568 -0.7925 -0.1392  0.8709
  111MOL   H20735627   3.198   2.390   4.691 -3.0426 -1.8093 -0.9545
  111MOL   H20835628   3.297   2.556   4.988 -0.6157 -0.9780 -2.4591
  111MOL   H20935629   3.446   2.508   5.044 -0.7596  1.6305  0.0210
  111MOL   C21035630   3.310   2.358   5.078  0.2543  0.0684  0.0004
  111MOL   C21135631   3.164   2.331   5.058 -0.0547  0.3853 -0.5009
  111MOL   C21235632   3.111   2.203   5.019  0.4686  0.2368 -0.1457
  111MOL  Cl21335633   3.208   2.064   4.997  0.1652 -0.2494 -0.4311
  111MOL   C21435634   2.973   2.180   4.992  0.1860 -0.3762 -0.1996
  111MOL   C21535635   2.885   2.283   5.016 -0.0794 -1.0854  0.5106
  111MOL   C21635636   2.934   2.410   5.056 -0.2861  0.6107  1.1860
  111MOL   C21735637   3.069   2.436   5.070  0.2598  0.2370 -0.9483
  111MOL   C21835638   3.346   2.387   5.228  0.0924  0.1305  0.4262
  111MOL   H21935639   3.366   2.270   5.046 -1.9276 -2.0737  1.9672
  111MOL   H22035640   2.944   2.083   4.953  1.1968  0.7352 -3.9305
  111MOL   H22135641   2.778   2.270   5.017 -0.2036 -0.1900 -0.6556
  111MOL   H22235642   2.862   2.491   5.055  2.0733  2.7622 -0.9495
  111MOL   H22335643   3.096   2.536   5.100 -1.3388 -0.1624  2.0960
  111MOL   H22435644   3.250   2.372   5.278  0.8645 -1.2664  1.5233
  111MOL   H22535645   3.366   2.494   5.233 -0.4962  0.2359  0.6095
  111MOL   C22635646   3.459   2.304   5.292 -0.1943 -0.2090 -0.8199
  111MOL   C22735647   3.446   2.317   5.446  0.1910 -1.0638  0.1849
  111MOL   C22835648   3.388   2.214   5.525  0.3175  0.6256 -0.5948
  111MOL  Cl22935649   3.328   2.062   5.466 -0.0711 -0.0240  0.4676
  111MOL   C23035650   3.376   2.233   5.662 -0.1917  0.9525  0.4333
  111MOL   C23135651   3.428   2.346   5.727  0.7367  0.3184  0.5304
  111MOL   C23235652   3.492   2.442   5.648  0.2696 -0.0110  0.5224
  111MOL   C23335653   3.496   2.433   5.509 -0.8821 -0.4590 -0.1965
  111MOL   C23435654   3.600   2.343   5.240 -0.4536  0.2400  0.2216
  111MOL   H23535655   3.429   2.200   5.276  0.5746 -0.8211  1.4561
  111MOL   H23635656   3.336   2.150   5.718 -0.1775  1.1796  0.7818
  111MOL   H23735657   3.428   2.353   5.834 -0.0185  2.3513  0.3981
  111MOL   H23835658   3.542   2.526   5.695  3.4648 -0.5212 -1.8010
  111MOL   H23935659   3.542   2.516   5.458 -0.2466  0.6441  2.1079
  111MOL   H24035660   3.622   2.449   5.256  1.7979 -0.5188  2.6674
  111MOL   H24135661   3.603   2.324   5.133 -1.4188  0.0668  0.2211
  111MOL   C24235662   3.725   2.274   5.310  0.5229  0.5430 -0.5235
  111MOL   C24335663   3.864   2.302   5.248  0.0286  0.5239  0.2100
  111MOL   C24435664   3.966   2.357   5.331 -0.5304 -0.5799  1.1431
  111MOL  Cl24535665   3.930   2.407   5.494  0.7246 -0.1177  0.0883
  111MOL   C24635666   4.094   2.381   5.278 -0.2382 -0.1080  0.3068
  111MOL   C24735667   4.124   2.351   5.144 -0.0147 -0.5394  0.3610
  111MOL   C24835668   4.028   2.289   5.064  0.5550  0.1037 -0.1084
  111MOL   C24935669   3.902   2.269   5.114  0.2989  0.1771 -0.0408
  111MOL   C25035670   3.719   2.118   5.326 -0.5000 -0.3018  0.2508
  111MOL   H25135671   3.714   2.309   5.413 -0.3311 -0.9572 -0.0858
  111MOL   H25235672   4.173   2.409   5.347 -0.6957  1.9318  0.0481
  111MOL   H25335673   4.225   2.364   5.107 -0.4817  1.1596 -0.3722
  111MOL   H25435674   4.052   2.260   4.963  1.1739  1.9484 -0.5256
  111MOL   H25535675   3.831   2.227   5.044 -0.2689  0.1270  0.5502
  111MOL   H25635676   3.744   2.065   5.234 -1.0779  0.7113 -0.5013
  111MOL   H25735677   3.615   2.090   5.344 -1.1008  0.8280 -1.3301
  111MOL   C25835678   3.803   2.068   5.452 -0.4606 -0.4247  0.2117
  111MOL   C25935679   3.839   1.921   5.441 -0.3886 -0.0684 -0.2294
  111MOL   C26035680   3.959   1.877   5.382  1.1190 -0.2739  0.7477
  111MOL  Cl26135681   4.076   1.987   5.327  0.1078 -0.1110  0.0123
  111MOL   C26235682   3.978   1.739   5.350  0.2434  0.1177  0.0613
  111MOL   C26335683   3.890   1.644   5.398  0.0432  0.2632 -0.6286
  111MOL   C26435684   3.773   1.684   5.460  0.5342  1.2212  0.0758
  111MOL   C26535685   3.748   1.822   5.482  0.1197  0.2276  0.1186
  111MOL   C26635686   3.743   2.100   5.586  0.1429 -0.0394  0.2644
  111MOL   H26735687   3.896   2.124   5.446 -1.4782  1.6670  2.8500
  111MOL   H26835688   4.068   1.708   5.299  0.4949  1.5224 -0.3625
  111MOL   H26935689   3.928   1.543   5.390  1.6295  0.8235 -0.4060
  111MOL   H27035690   3.700   1.615   5.501  0.9292  1.0283  0.4559
  111MOL   H27135691   3.652   1.848   5.525  0.1493 -0.9472  0.9125
  111MOL   H27235692   3.648   2.047   5.589  0.1282 -0.0652 -0.6572
  111MOL   H27335693   3.715   2.205   5.593  0.5987  0.2230 -1.5260
  111MOL   C27435694   3.822   2.059   5.715 -0.5343  0.0954  0.0049
  111MOL   C27535695   3.743   2.083   5.840  0.7589 -0.4126 -0.1074
  111MOL   C27635696   3.676   1.987   5.923  0.1171 -0.4773 -0.1220
  111MOL  Cl27735697   3.676   1.816   5.882  0.2793 -0.0418 -0.1259
  111MOL   C27835698   3.613   2.023   6.043 -0.3133  0.0066  0.1434
  111MOL   C27935699   3.610   2.157   6.084 -0.0463  1.0544 -0.9810
  111MOL   C28035700   3.674   2.257   6.010 -0.1427 -0.6003 -1.0530
  111MOL   C28135701   3.733   2.217   5.886  0.3892 -0.1349  0.1327
  111MOL   C28235702   3.969   2.113   5.717 -0.6883  0.5143 -0.1666
  111MOL   H28335703   3.831   1.950   5.716  2.5655  0.3125 -0.3265
  111MOL   H28435704   3.572   1.950   6.112 -2.0756 -0.4758 -1.3705
  111MOL   H28535705   3.560   2.183   6.176  1.8291  0.5265  0.2216
  111MOL   H28635706   3.687   2.362   6.034  1.6150 -0.8991 -0.6464
  111MOL   H28735707   3.793   2.288   5.831  1.4471  0.9936  2.6499
  111MOL   H28835708   3.966   2.216   5.681 -0.5474  0.6821  0.3032
  111MOL   H28935709   4.019   2.048   5.645  1.3030  1.8514 -0.0497
  111MOL   C29035710   4.042   2.107   5.855 -0.0043 -0.0984 -0.4123
  111MOL   C29135711   4.181   2.181   5.840  0.0322 -1.2506  0.5177
  111MOL   C29235712   4.203   2.310   5.896 -0.2215  0.5658 -0.8813
  111MOL  Cl29335713   4.078   2.384   5.984  0.0760 -0.3430  0.4050
  111MOL   C29435714   4.333   2.366   5.880 -0.0913 -0.3030 -0.7075
  111MOL   C29535715   4.436   2.305   5.810 -0.6204  0.1645 -0.3534
  111MOL   C29635716   4.408   2.181   5.744 -0.7605  0.3825  0.0699
  111MOL   C29735717   4.288   2.120   5.770 -0.3738 -0.1932 -0.2644
  111MOL   C29835718   4.064   1.955   5.893 -0.3837 -0.0686 -0.2333
  111MOL   H29935719   3.981   2.156   5.931  0.7910 -0.2720  0.3290
  111MOL   H30035720   4.352   2.463   5.923 -1.9979  0.1231 -0.7871
  111MOL   H30135721   4.535   2.346   5.801  0.0306 -1.1288  0.6351
  111MOL   H30235722   4.490   2.133   5.692  0.2605  1.4661  0.6456
  111MOL   H30335723   4.273   2.019   5.738 -1.8527 -0.5991  1.5919
  111MOL   H30435724   4.125   1.897   5.824 -0.1242 -1.0033  0.7579
  111MOL   H30535725   3.963   1.914   5.882 -0.3880 -0.4832  1.2134
  111MOL   C30635726   4.110   1.930   6.039  0.5644 -0.0469 -0.2092
  111MOL   C30735727   4.136   1.780   6.054 -0.1109  0.4085  0.1163
  111MOL   C30835728   4.268   1.734   6.038 -1.4560  0.3077  0.1370
  111MOL  Cl30935729   4.401   1.831   6.002 -0.4105  0.2528  0.1110
  111MOL   C31035730   4.300   1.602   6.072 -0.9961  0.3375 -0.4553
  111MOL   C31135731   4.195   1.509   6.097 -0.2814 -0.8344  0.5618
  111MOL   C31235732   4.062   1.549   6.105 -0.1349 -0.6602  0.4289
  111MOL   C31335733   4.033   1.687   6.084  0.6028  0.4256  0.3201
  111MOL   C31435734   3.989   1.986   6.130 -0.2237  0.5366 -0.3813
  111MOL   H31535735   4.199   1.980   6.079  0.9652 -0.4294 -0.6225
  111MOL   H31635736   4.398   1.560   6.060 -0.3344  2.1956 -1.7888
  111MOL   H31735737   4.220   1.404   6.095 -1.4915 -1.1203  0.2980
  111MOL   H31835738   3.978   1.481   6.117 -1.2757  0.5715 -0.4092
  111MOL   H31935739   3.928   1.711   6.091  0.2316  0.2310 -3.6468
  111MOL   H32035740   3.895   1.940   6.102 -0.3497 -0.4104  1.4873
  111MOL   H32135741   3.976   2.094   6.138  0.4914  0.5892  0.1160
  111MOL   H32235742   3.999   1.960   6.236  0.6089  1.5207 -0.2124
  112MOL     C135743   0.329   4.810   0.576 -0.6607  1.0534  0.1722
  112MOL     C235744   0.215   4.784   0.485 -0.7017 -0.5428  0.5562
  112MOL     C335745   0.083   4.804   0.533  0.1045  0.1379  0.1962
  112MOL    Cl435746   0.043   4.839   0.693  0.0352  0.0827  0.0010
  112MOL     C535747   8.398   4.785   0.441 -0.0717 -0.1494  0.2771
  112MOL     C635748   0.000   4.743   0.310 -0.1700 -0.4844 -0.3277
  112MOL     C735749   0.131   4.730   0.256 -0.1665  0.0158 -0.1975
  112MOL     C835750   0.239   4.750   0.347 -0.3421  0.2648 -0.7080
  112MOL     C935751   0.361   4.689   0.659 -0.2225  0.4602 -0.2471
  112MOL    H1035752   0.421   4.842   0.526 -0.3665  0.3603  0.2686
  112MOL    H1135753   8.297   4.790   0.478  0.5344  0.7197  1.8524
  112MOL    H1235754   8.331   4.723   0.254 -0.7746  1.7805 -0.1939
  112MOL    H1335755   0.136   4.699   0.153 -0.4537  0.3060 -0.2994
  112MOL    H1435756   0.340   4.744   0.310 -0.3442 -1.7336 -0.4329
  112MOL    H1535757   0.380   4.613   0.584 -1.2595 -0.3872  0.3456
  112MOL    H1635758   0.273   4.664   0.719 -0.3389 -1.0363 -1.0448
  112MOL    H1735759   0.305   4.903   0.627 -0.2679  0.7378  0.9263
  112MOL    C1835760   0.482   4.714   0.745 -0.0821  0.1716  0.2176
  112MOL    C1935761   0.530   4.588   0.812 -0.1825 -0.3630  0.0536
  112MOL    C2035762   0.618   4.504   0.747 -0.9013 -0.0280  0.0242
  112MOL   Cl2135763   0.688   4.539   0.591 -0.2726  0.4104  0.7905
  112MOL    C2235764   0.663   4.382   0.809  0.5858  0.2422 -0.2477
  112MOL    C2335765   0.618   4.347   0.937  0.2195 -0.2532 -0.4441
  112MOL    C2435766   0.524   4.436   0.996 -0.0607 -0.0211  0.5505
  112MOL    C2535767   0.481   4.556   0.939  0.8729  0.3843 -0.0823
  112MOL    C2635768   0.465   4.843   0.833 -0.2391  0.1201 -0.4437
  112MOL    H2735769   0.564   4.752   0.684  0.1620 -1.3219 -0.3908
  112MOL    H2835770   0.744   4.330   0.760  1.4251  1.7425 -0.4829
  112MOL    H2935771   0.652   4.255   0.982  1.0157  0.5410  0.5939
  112MOL    H3035772   0.480   4.404   1.089  0.9317 -0.5447  0.8517
  112MOL    H3135773   0.411   4.615   0.996  1.0889  2.8184 -2.2508
  112MOL    H3235774   0.377   4.843   0.898 -0.1467  0.2525 -0.3172
  112MOL    H3335775   0.441   4.922   0.762 -1.6817  0.0139 -0.0968
  112MOL    C3435776   0.594   4.897   0.905  0.6979 -0.5132  0.2500
  112MOL    C3535777   0.726   4.863   0.835 -0.1870  0.0861 -0.4407
  112MOL    C3635778   0.754   4.919   0.712  1.0215 -0.2046 -0.0014
  112MOL   Cl3735779   0.650   5.031   0.629  0.5480 -0.1583  0.1371
  112MOL    C3835780   0.874   4.880   0.639 -0.2448 -0.0184 -0.0696
  112MOL    C3935781   0.964   4.785   0.689  0.2723  0.4568  0.1258
  112MOL    C4035782   0.936   4.738   0.816 -0.3821  0.2505  0.4160
  112MOL    C4135783   0.822   4.770   0.890 -0.4376  0.0767 -0.2606
  112MOL    C4235784   0.596   4.875   1.054 -0.1826 -0.0831  0.1422
  112MOL    H4335785   0.592   5.005   0.901 -0.1567 -0.5801 -2.4063
  112MOL    H4435786   0.878   4.930   0.543 -0.8938 -2.1738 -1.2479
  112MOL    H4535787   1.053   4.751   0.638 -0.2969 -0.8290 -0.0145
  112MOL    H4635788   0.994   4.658   0.860  1.0450  0.2979 -1.3150
  112MOL    H4735789   0.803   4.716   0.982  1.4502  0.1093  0.1688
  112MOL    H4835790   0.623   4.772   1.076 -0.2984  0.3585  2.5843
  112MOL    H4935791   0.492   4.869   1.086  0.0239  0.2755  0.8956
  112MOL    C5035792   0.691   4.968   1.140  0.6633  0.1215 -0.0020
  112MOL    C5135793   0.701   4.927   1.286 -0.0844 -0.4661  0.1107
  112MOL    C5235794   0.816   4.860   1.332  0.6124 -0.5122 -0.0826
  112MOL   Cl5335795   0.939   4.803   1.221 -0.3252  0.1429  0.1357
  112MOL    C5435796   0.824   4.833   1.467 -0.4244  0.3785 -0.0178
  112MOL    C5535797   0.724   4.867   1.559 -0.7927  0.2977  0.3099
  112MOL    C5635798   0.605   4.935   1.506 -0.1510  0.1638 -0.5891
  112MOL    C5735799   0.596   4.958   1.372  0.5046  0.1626 -0.3564
  112MOL    C5835800   0.648   5.119   1.130 -0.4744 -0.8012  0.1281
  112MOL    H5935801   0.795   4.960   1.108  0.5574  0.3555 -0.4058
  112MOL    H6035802   0.912   4.793   1.515  0.8272  3.9593  0.8234
  112MOL    H6135803   0.747   4.837   1.660 -0.9519  2.1178  0.8964
  112MOL    H6235804   0.531   4.965   1.579 -0.8500 -0.0398 -1.2105
  112MOL    H6335805   0.520   5.027   1.339 -2.4497 -1.9597  1.7804
  112MOL    H6435806   0.632   5.170   1.224 -1.3695 -0.2858 -0.2967
  112MOL    H6535807   0.547   5.126   1.090  0.5711 -0.4840 -2.5728
  112MOL    C6635808   0.735   5.205   1.045 -0.0436  0.2202 -0.3285
  112MOL    C6735809   0.863   5.252   1.113 -0.6584  0.0403 -0.4352
  112MOL    C6835810   0.992   5.203   1.065  0.3491 -0.1861 -0.5586
  112MOL   Cl6935811   1.011   5.101   0.923 -0.4142 -0.3521 -0.1921
  112MOL    C7035812   1.113   5.252   1.120  0.1380  0.3162 -0.6915
  112MOL    C7135813   1.109   5.355   1.212  0.2427  0.5887 -0.0518
  112MOL    C7235814   0.988   5.406   1.266  0.2185  0.1542 -0.4078
  112MOL    C7335815   0.866   5.348   1.218  0.7486 -0.2308  0.2163
  112MOL    C7435816   0.662   5.326   0.980  0.0555 -0.4298  0.0081
  112MOL    H7535817   0.753   5.134   0.964 -0.1069  0.5230 -0.6090
  112MOL    H7635818   1.207   5.209   1.091 -0.8232 -2.2909 -0.1054
  112MOL    H7735819   1.208   5.389   1.238  1.4541 -0.5117 -2.9972
  112MOL    H7835820   0.982   5.490   1.333 -1.3300 -1.4300  1.4736
  112MOL    H7935821   0.774   5.403   1.235  0.6675  1.0125 -3.7807
  112MOL    H8035822   0.613   5.379   1.062 -3.1243 -1.9774 -0.8066
  112MOL    H8135823   0.574   5.289   0.926 -0.2299  0.2022  0.0314
  112MOL    C8235824   0.751   5.423   0.903 -0.6778  0.3832  0.0499
  112MOL    C8335825   0.687   5.565   0.879 -0.1988 -0.3163  0.3837
  112MOL    C8435826   0.732   5.681   0.946  0.7523 -0.7886 -1.2035
  112MOL   Cl8535827   0.842   5.678   1.077  0.3193  0.0580  0.2945
  112MOL    C8635828   0.678   5.806   0.910  0.3905 -0.1932 -0.5233
  112MOL    C8735829   0.592   5.813   0.799  0.3092  0.9374 -0.3010
  112MOL    C8835830   0.540   5.695   0.737  0.3298 -0.2097 -0.4749
  112MOL    C8935831   0.587   5.573   0.778  0.1662 -0.3969 -0.1845
  112MOL    C9035832   0.807   5.355   0.779  0.1339  0.1023  0.4596
  112MOL    H9135833   0.825   5.448   0.979 -0.0430  0.6253 -0.6435
  112MOL    H9235834   0.718   5.899   0.949  0.1517 -0.4631  0.3761
  112MOL    H9335835   0.557   5.909   0.764  0.1182  0.9657 -0.0360
  112MOL    H9435836   0.474   5.699   0.652  0.1339 -0.9283 -0.3663
  112MOL    H9535837   0.544   5.479   0.747  2.3146 -1.4331 -0.1120
  112MOL    H9635838   0.726   5.343   0.707  0.2893 -0.2715  0.3477
  112MOL    H9735839   0.849   5.258   0.805 -0.0890  0.3737  1.8748
  112MOL    C9835840   0.918   5.439   0.708 -0.1383 -0.0950  0.0397
  112MOL    C9935841   0.950   5.369   0.574 -0.3537 -1.4646  0.3380
  112MOL   C10035842   0.920   5.419   0.441 -0.6325 -0.2060  0.9086
  112MOL  Cl10135843   0.838   5.570   0.425 -0.4717  0.0319 -0.2909
  112MOL   C10235844   0.959   5.346   0.326  0.6121 -0.3954  0.9814
  112MOL   C10335845   1.024   5.223   0.345 -0.2225  0.0685 -0.3950
  112MOL   C10435846   1.049   5.170   0.468 -0.7060  0.0542 -1.0961
  112MOL   C10535847   1.015   5.244   0.583 -1.0684  0.5985  0.0888
  112MOL   C10635848   1.032   5.470   0.806  0.6966  0.4745  0.0182
  112MOL   H10735849   0.874   5.531   0.669 -1.2864 -0.3545  0.7123
  112MOL   H10835850   0.933   5.391   0.231  1.1808 -0.3146  0.8625
  112MOL   H10935851   1.037   5.150   0.266 -0.2740  0.3590 -0.6748
  112MOL   H11035852   1.084   5.068   0.479 -0.2677  0.3275  0.1503
  112MOL   H11135853   1.032   5.210   0.685  0.9199 -1.0354 -0.7481
  112MOL   H11235854   1.071   5.375   0.840 -0.9024 -1.3822 -3.0638
  112MOL   H11335855   1.006   5.533   0.891  0.3951  3.8865 -2.4994
  112MOL   C11435856   1.152   5.546   0.745  0.0602 -0.6504  0.2044
  112MOL   C11535857   1.263   5.562   0.842 -0.4753  0.1030 -0.7837
  112MOL   C11635858   1.388   5.509   0.819 -0.8038 -0.5499  0.3539
  112MOL  Cl11735859   1.424   5.401   0.691 -0.3649 -0.2988 -0.6213
  112MOL   C11835860   1.494   5.540   0.901  0.6126  0.2039 -0.2017
  112MOL   C11935861   1.479   5.614   1.020  0.1155 -0.6318  0.1034
  112MOL   C12035862   1.358   5.668   1.047  0.4171 -0.1552  0.2384
  112MOL   C12135863   1.248   5.641   0.963  0.0155 -0.1176 -0.1596
  112MOL   C12235864   1.112   5.690   0.687  0.4323 -0.7352 -0.0561
  112MOL   H12335865   1.193   5.477   0.671  0.3486  0.0371 -0.2855
  112MOL   H12435866   1.588   5.489   0.884  0.1332 -0.5690 -0.5332
  112MOL   H12535867   1.559   5.620   1.093  0.1030 -2.6688  0.2969
  112MOL   H12635868   1.342   5.733   1.132  1.9268 -1.6030  1.6472
  112MOL   H12735869   1.158   5.693   0.995  0.1478 -0.4640  0.7784
  112MOL   H12835870   1.104   5.769   0.762 -0.0202 -0.0418 -0.8315
  112MOL   H12935871   1.016   5.687   0.634 -0.2367  2.0216  0.9173
  112MOL   C13035872   1.219   5.742   0.588  0.3488  0.1957  1.3196
  112MOL   C13135873   1.208   5.895   0.581  0.4588 -0.5201 -0.5008
  112MOL   C13235874   1.294   5.982   0.654  0.0354 -0.4860 -0.3673
  112MOL  Cl13335875   1.438   5.920   0.733  0.1633 -0.1180  0.3184
  112MOL   C13435876   1.272   6.118   0.666 -0.3193  1.0130 -0.1872
  112MOL   C13535877   1.166   6.170   0.584  0.1961 -0.1611 -0.1245
  112MOL   C13635878   1.078   6.091   0.510 -0.2818  0.6173 -0.3011
  112MOL   C13735879   1.105   5.953   0.503 -0.3356 -0.2934 -0.3350
  112MOL   C13835880   1.217   5.661   0.460 -0.4262 -1.2661 -0.2950
  112MOL   H13935881   1.319   5.713   0.619  0.4367  0.0501  0.8968
  112MOL   H14035882   1.341   6.177   0.725  0.3661  1.8901 -1.8473
  112MOL   H14135883   1.131   6.272   0.585  0.9447  0.1039  1.2709
  112MOL   H14235884   0.988   6.127   0.464 -1.2939 -2.1062 -0.5618
  112MOL   H14335885   1.028   5.889   0.462  1.5343 -3.3479  0.7240
  112MOL   H14435886   1.118   5.670   0.415  0.8512 -2.1855 -3.3960
  112MOL   H14535887   1.215   5.556   0.489  1.8837 -0.7385  1.9887
  112MOL   C14635888   1.320   5.698   0.361 -0.7433  0.6353 -0.3198
  112MOL   C14735889   1.271   5.689   0.217  0.2962  0.4429  0.4953
  112MOL   C14835890   1.281   5.793   0.124 -0.1436  0.1450 -0.7670
  112MOL  Cl14935891   1.367   5.935   0.151  0.0209  0.2678 -0.2337
  112MOL   C15035892   1.217   5.775   8.416  0.7616  0.0090 -0.0869
  112MOL   C15135893   1.156   5.652   8.380  0.2588 -0.7071  0.8046
  112MOL   C15235894   1.155   5.545   0.049 -0.1549 -0.2136  0.0237
  112MOL   C15335895   1.210   5.562   0.176  0.1433 -0.1410  0.1559
  112MOL   C15435896   1.448   5.615   0.381  0.0006 -0.6427 -0.2743
  112MOL   H15535897   1.351   5.801   0.377 -2.0098  1.0459 -0.5135
  112MOL   H15635898   1.205   5.857   8.346  0.3222  3.1810  3.5109
  112MOL   H15735899   1.110   5.638   8.283  0.8189  0.8825  0.2954
  112MOL   H15835900   1.129   5.446   0.015 -2.0808  0.7198 -1.3128
  112MOL   H15935901   1.216   5.476   0.241  0.3247 -0.6009 -0.4651
  112MOL   H16035902   1.425   5.514   0.346 -2.6394  0.7769 -2.9539
  112MOL   H16135903   1.465   5.594   0.486 -1.3840 -2.0877 -0.3241
  112MOL   C16235904   1.583   5.671   0.336 -0.2703 -0.0253  0.7629
  112MOL   C16335905   1.688   5.561   0.345 -0.2345  0.0469 -0.0197
  112MOL   C16435906   1.749   5.501   0.230  0.2763  0.2538  0.4499
  112MOL  Cl16535907   1.698   5.541   0.067  0.1823 -0.2832 -0.8556
  112MOL   C16635908   1.854   5.408   0.247  0.3283 -0.4369 -0.1929
  112MOL   C16735909   1.899   5.372   0.377  0.1064 -0.6098 -1.2901
  112MOL   C16835910   1.840   5.433   0.491  0.2899 -0.2434 -0.7814
  112MOL   C16935911   1.732   5.522   0.476  0.1974 -0.1875 -0.0407
  112MOL   C17035912   1.616   5.810   0.404 -0.6079 -0.2007  0.8432
  112MOL   H17135913   1.567   5.697   0.232 -2.6625 -1.1686  0.7999
  112MOL   H17235914   1.891   5.348   0.166 -0.2100 -0.7241 -0.2332
  112MOL   H17335915   1.983   5.304   0.379  0.9321  0.4234  1.0856
  112MOL   H17435916   1.873   5.410   0.591 -0.2562  1.4107 -0.1918
  112MOL   H17535917   1.695   5.559   0.570  3.0207  0.0118  1.0258
  112MOL   H17635918   1.615   5.796   0.512  1.9940  0.8442  1.0435
  112MOL   H17735919   1.543   5.887   0.380  0.9392  0.9666 -0.1393
  112MOL   C17835920   1.756   5.855   0.349  0.6536 -0.6647  0.2294
  112MOL   C17935921   1.820   5.936   0.466 -0.4119 -0.1969 -0.9642
  112MOL   C18035922   1.934   5.886   0.530 -0.4164  0.5256 -0.3263
  112MOL  Cl18135923   2.028   5.749   0.469  0.0989 -0.2550 -0.1166
  112MOL   C18235924   1.988   5.955   0.641  0.2269 -0.0617  0.7082
  112MOL   C18335925   1.930   6.073   0.694 -0.5547 -0.1609 -0.4915
  112MOL   C18435926   1.813   6.123   0.639  0.4329  0.1583 -0.5167
  112MOL   C18535927   1.759   6.047   0.528 -0.3205  0.7601 -0.5153
  112MOL   C18635928   1.748   5.944   0.218 -0.4545 -0.7369  0.0469
  112MOL   H18735929   1.814   5.765   0.328  1.9525  0.2390 -0.0781
  112MOL   H18835930   2.077   5.913   0.687 -0.6764 -1.8707  0.8421
  112MOL   H18935931   1.986   6.125   0.770  0.1760 -3.8901  1.6090
  112MOL   H19035932   1.770   6.213   0.681 -2.2625 -1.7297  0.8854
  112MOL   H19135933   1.659   6.071   0.496 -1.9521 -1.2424  2.7457
  112MOL   H19235934   1.693   6.037   0.227 -0.9299 -0.9825 -0.3080
  112MOL   H19335935   1.676   5.898   0.150  0.5651 -2.8704  0.3569
  112MOL   C19435936   1.887   5.956   0.143  0.5951 -0.0907  0.2403
  112MOL   C19535937   1.917   6.099   0.097 -0.0415  0.6782  0.7034
  112MOL   C19635938   2.042   6.162   0.138 -0.3017 -0.0341  0.4083
  112MOL  Cl19735939   2.167   6.081   0.225  0.1848 -0.4756 -0.3010
  112MOL   C19835940   2.063   6.296   0.097  0.0344 -0.0569  0.1984
  112MOL   C19935941   1.966   6.359   0.019 -0.5490 -0.2450 -0.2356
  112MOL   C20035942   1.842   6.301   8.399 -0.1407 -1.2366  0.5156
  112MOL   C20135943   1.819   6.172   0.016  0.0517 -0.1032  0.6424
  112MOL   C20235944   1.901   5.852   0.027  0.7720 -0.2047  0.2840
  112MOL   H20335945   1.966   5.928   0.212 -1.7374  1.9162  3.9013
  112MOL   H20435946   2.158   6.335   0.129 -0.4371 -0.8339  2.6451
  112MOL   H20535947   1.984   6.459   8.404  1.5897 -1.1275 -1.7505
  112MOL   H20635948   1.773   6.351   8.333  0.2277 -1.6989 -0.2277
  112MOL   H20735949   1.725   6.128   8.406 -0.0052  0.2416  0.3272
  112MOL   H20835950   1.864   5.910   8.363  0.0900  0.4347  1.0181
  112MOL   H20935951   1.833   5.767   0.033 -0.0270  0.1909 -2.3364
  112MOL   C21035952   2.046   5.804   0.008  0.0490  0.1077  0.3350
  112MOL   C21135953   2.063   5.759   8.283 -0.8652  0.3362  0.4491
  112MOL   C21235954   2.190   5.780   8.216  0.6268  0.4783  0.2939
  112MOL  Cl21335955   2.324   5.871   8.291 -0.2352 -0.2124 -0.2450
  112MOL   C21435956   2.210   5.735   8.087  0.0558  0.7242  0.0982
  112MOL   C21535957   2.107   5.653   8.027 -0.2337 -0.4394  0.0522
  112MOL   C21635958   1.984   5.622   8.089 -0.7547  0.1646 -0.4931
  112MOL   C21735959   1.964   5.673   8.220 -0.6358  0.1500  0.2582
  112MOL   C21835960   2.079   5.700   0.118  0.0126 -0.6057  0.1960
  112MOL   H21935961   2.114   5.886   0.030 -0.3310 -0.2220  2.9066
  112MOL   H22035962   2.308   5.742   8.043  0.3823 -0.6406  0.6060
  112MOL   H22135963   2.117   5.622   7.924  3.3004 -1.4184  0.6576
  112MOL   H22235964   1.900   5.575   8.039 -3.4362  1.2781  2.7303
  112MOL   H22335965   1.874   5.644   8.271 -1.7945 -0.8127 -2.2589
  112MOL   H22435966   2.011   5.617   0.098 -0.0885 -0.1134 -1.6432
  112MOL   H22535967   2.054   5.731   0.219 -1.2297 -1.6474  0.2201
  112MOL   C22635968   2.222   5.637   0.120  0.1344  0.5797  0.3279
  112MOL   C22735969   2.225   5.492   0.174  0.3598  0.4411 -0.0997
  112MOL   C22835970   2.219   5.386   0.081  0.0770 -0.4564 -0.4999
  112MOL  Cl22935971   2.176   5.398   8.331 -0.1288 -0.4109  0.4071
  112MOL   C23035972   2.247   5.258   0.130 -0.4945 -0.1477 -0.6521
  112MOL   C23135973   2.284   5.232   0.263  0.0470  0.2176 -0.3406
  112MOL   C23235974   2.278   5.343   0.355 -0.5375  0.3421  0.3059
  112MOL   C23335975   2.244   5.472   0.309  0.1515  0.1888 -0.1985
  112MOL   C23435976   2.324   5.721   0.190 -0.2954 -1.1065 -0.4953
  112MOL   H23535977   2.258   5.632   0.017 -2.8527 -1.2656 -0.6916
  112MOL   H23635978   2.232   5.177   0.060 -2.5668  1.9182 -2.6734
  112MOL   H23735979   2.306   5.133   0.301  2.0842  1.2392  1.2629
  112MOL   H23835980   2.302   5.320   0.458  1.4391 -1.3875 -0.5284
  112MOL   H23935981   2.230   5.551   0.381 -0.9075  0.8505 -1.1098
  112MOL   H24035982   2.281   5.733   0.290 -2.0700 -2.5589 -1.0543
  112MOL   H24135983   2.323   5.825   0.157  0.4494 -1.1186 -0.5631
  112MOL   C24235984   2.469   5.668   0.185 -0.6988 -0.0239 -0.1839
  112MOL   C24335985   2.545   5.734   0.300  0.1449  0.0132 -0.6754
  112MOL   C24435986   2.604   5.669   0.411 -0.8795  0.0395 -0.2294
  112MOL  Cl24535987   2.601   5.500   0.431  0.3794  0.7246 -0.1968
  112MOL   C24635988   2.669   5.742   0.507  0.1482  0.3929 -0.4310
  112MOL   C24735989   2.680   5.884   0.500 -0.7033 -0.4734  0.5038
  112MOL   C24835990   2.611   5.951   0.402 -0.3508  0.6584  0.4412
  112MOL   C24935991   2.551   5.874   0.300  0.9325 -0.1070  0.1732
  112MOL   C25035992   2.537   5.686   0.045 -0.8506  0.1173 -0.3510
  112MOL   H25135993   2.475   5.563   0.212  0.9885 -0.1513 -0.9665
  112MOL   H25235994   2.712   5.685   0.588 -0.9151 -0.5088 -0.4836
  112MOL   H25335995   2.729   5.942   0.576  0.8317 -1.7894  0.5359
  112MOL   H25435996   2.611   6.058   0.390 -0.1290  0.8528  2.0288
  112MOL   H25535997   2.496   5.929   0.225  0.7705 -0.6499 -0.1072
  112MOL   H25635998   2.551   5.791   0.020 -0.9232 -0.5196 -3.2415
  112MOL   H25735999   2.479   5.649   8.381  1.2978  0.7081 -2.1319
  112MOL   C25836000   2.687   5.643   0.031 -0.0280  0.0123  0.2533
  112MOL   C25936001   2.731   5.698   8.309  0.1866  0.4947  0.2644
  112MOL   C26036002   2.786   5.827   8.294 -0.3728  1.0720 -0.2788
  112MOL  Cl26136003   2.794   5.944   0.005 -0.0469 -0.3287 -0.2348
  112MOL   C26236004   2.845   5.865   8.174 -0.2415  0.0225 -0.0486
  112MOL   C26336005   2.840   5.786   8.062  0.8647  0.3351  0.0828
  112MOL   C26436006   2.779   5.658   8.071 -0.6410 -0.4685 -0.6889
  112MOL   C26536007   2.725   5.612   8.191  0.0492  0.7457  0.7437
  112MOL   C26636008   2.699   5.490   0.051  0.2560  0.5173 -0.3181
  112MOL   H26736009   2.759   5.691   0.098 -1.0230 -0.6211  1.8062
  112MOL   H26836010   2.873   5.969   8.162 -0.2732 -0.0934 -1.1428
  112MOL   H26936011   2.884   5.825   7.971  0.7104  2.7935  1.0190
  112MOL   H27036012   2.769   5.590   7.987 -2.7168  1.6389 -2.2257
  112MOL   H27136013   2.693   5.509   8.186  0.6383  0.6666 -1.4711
  112MOL   H27236014   2.625   5.442   8.408 -0.3611 -0.8556  1.4055
  112MOL   H27336015   2.660   5.460   0.149  0.9562  2.0783  0.4554
  112MOL   C27436016   2.831   5.419   0.039  0.6086 -0.1833 -0.1135
  112MOL   C27536017   2.818   5.266   0.018 -0.1848 -0.1298 -0.1548
  112MOL   C27636018   2.843   5.200   8.316 -0.2310  0.0418  1.0897
  112MOL  Cl27736019   2.910   5.288   8.185  0.1439 -0.4452 -0.3023
  112MOL   C27836020   2.827   5.061   8.305 -0.3039  0.1990  0.2001
  112MOL   C27936021   2.775   4.988   8.408 -0.3030 -0.2222  0.9031
  112MOL   C28036022   2.744   5.050   0.105  0.5575  0.4296  0.0294
  112MOL   C28136023   2.755   5.186   0.124 -0.2009 -0.2368 -0.2157
  112MOL   C28236024   2.929   5.449   0.158 -0.3383 -0.2607 -0.1979
  112MOL   H28336025   2.871   5.476   8.375  3.3980 -0.8397  0.7175
  112MOL   H28436026   2.856   5.017   8.211 -1.0467 -0.8247  0.4389
  112MOL   H28536027   2.753   4.883   8.392 -2.2317 -0.0122  2.1003
  112MOL   H28636028   2.699   5.001   0.191  0.7614 -2.4065 -1.4229
  112MOL   H28736029   2.730   5.228   0.220 -2.2888 -3.5733  0.7565
  112MOL   H28836030   2.905   5.376   0.236  0.5566 -0.0522  0.2718
  112MOL   H28936031   2.911   5.549   0.195  1.7321 -0.1477  0.5552
  112MOL   C29036032   3.087   5.456   0.133 -0.2107 -0.8099 -0.4369
  112MOL   C29136033   3.124   5.587   0.065 -0.6277 -0.4227 -0.2474
  112MOL   C29236034   3.158   5.703   0.135  0.1293 -0.0347 -0.4024
  112MOL  Cl29336035   3.135   5.710   0.309  0.1333  0.1945 -0.0702
  112MOL   C29436036   3.209   5.817   0.068  0.1784  0.2622 -0.2419
  112MOL   C29536037   3.206   5.819   8.349  0.6049 -0.4825 -0.4721
  112MOL   C29636038   3.167   5.704   8.286  0.6703  0.1668  0.3510
  112MOL   C29736039   3.127   5.588   8.346  0.0102  0.3129 -0.7699
  112MOL   C29836040   3.135   5.318   0.068  0.0477 -0.5260 -0.0707
  112MOL   H29936041   3.141   5.460   0.227  0.1118  0.8260 -0.6696
  112MOL   H30036042   3.237   5.904   0.125 -1.8943  0.7473  0.0749
  112MOL   H30136043   3.231   5.909   8.296 -1.8418  0.7722  0.4340
  112MOL   H30236044   3.181   5.706   8.179 -0.7653  0.3942  0.1581
  112MOL   H30336045   3.107   5.501   8.286 -1.2500 -0.0292  0.1240
  112MOL   H30436046   3.094   5.322   8.387 -0.6631 -2.9953  0.0746
  112MOL   H30536047   3.084   5.233   0.114 -1.5835 -0.5350 -1.8325
  112MOL   C30636048   3.290   5.285   0.040  0.9065  0.2858 -0.3248
  112MOL   C30736049   3.369   5.387   8.381 -0.4861  0.0509  0.1906
  112MOL   C30836050   3.453   5.484   0.019 -0.6905  0.6321  0.1651
  112MOL  Cl30936051   3.472   5.500   0.193 -0.0738  0.3895 -0.1049
  112MOL   C31036052   3.516   5.579   8.359 -0.2800 -0.0568 -0.6282
  112MOL   C31136053   3.511   5.570   8.220 -0.3494  0.1428 -0.8515
  112MOL   C31236054   3.432   5.470   8.153 -0.1029  0.1648 -0.7612
  112MOL   C31336055   3.359   5.386   8.237 -0.4744  0.4598 -0.0749
  112MOL   C31436056   3.303   5.139   8.410  0.6824  0.7916  0.5370
  112MOL   H31536057   3.337   5.279   0.138 -0.3230  1.1751  0.3325
  112MOL   H31636058   3.573   5.654   8.411 -0.8067  0.1708 -0.3782
  112MOL   H31736059   3.578   5.637   8.168  0.9366 -1.0586 -0.7661
  112MOL   H31836060   3.433   5.458   8.045  0.2293 -0.7122 -0.6570
  112MOL   H31936061   3.297   5.307   8.198  1.3183 -1.0672  0.1339
  112MOL   H32036062   3.216   5.081   0.019  1.8662 -0.5640  1.4092
  112MOL   H32136063   3.390   5.084   0.024  1.9381 -0.5485 -4.2625
  112MOL   H32236064   3.300   5.122   8.302 -1.4488 -3.7045  1.1969
  113MOL     C136065   3.402   8.135   3.030  0.7250  0.5164  0.2356
  113MOL     C236066   3.526   8.047   3.007 -0.0941  0.4524  0.0500
  113MOL     C336067   3.580   7.968   3.111 -0.3063  1.0046 -0.0751
  113MOL    Cl436068   3.523   7.973   3.272 -0.0391 -0.1587  0.1167
  113MOL     C536069   3.696   7.888   3.089 -0.6326  0.4398  0.2033
  113MOL     C636070   3.756   7.887   2.963  0.6657 -0.5212 -0.7559
  113MOL     C736071   3.697   7.956   2.854 -0.8379 -0.4403 -0.4329
  113MOL     C836072   3.585   8.038   2.878  0.4054  0.1101 -0.1510
  113MOL     C936073   3.441   8.279   3.045 -0.6519 -0.0008 -0.0828
  113MOL    H1036074   3.338   8.122   2.942 -0.9011 -0.0887  1.4751
  113MOL    H1136075   3.738   7.829   3.169 -3.1172 -0.4073  0.9324
  113MOL    H1236076   3.846   7.831   2.942  0.2975 -1.5316  0.3289
  113MOL    H1336077   3.737   7.952   2.753  0.8006 -1.4315  0.2365
  113MOL    H1436078   3.528   8.083   2.799 -1.2881 -3.7681 -1.2381
  113MOL    H1536079   3.503   8.309   2.960  1.3594 -3.4881  0.0721
  113MOL    H1636080   3.501   8.283   3.136  0.4329  2.0974 -0.8505
  113MOL    H1736081   3.333   8.105   3.110  0.6979  1.7327  0.6794
  113MOL    C1836082   3.325   8.384   3.066  0.0228 -0.2137 -0.2256
  113MOL    C1936083   3.219   8.389   2.956 -0.0564 -0.6798 -0.5169
  113MOL    C2036084   3.084   8.417   2.989  0.1778  0.3177 -0.4909
  113MOL   Cl2136085   3.023   0.018   3.148  0.1088  0.1406 -0.2344
  113MOL    C2236086   2.986   0.006   2.887  0.0418  0.3381 -0.3433
  113MOL    C2336087   3.018   8.410   2.757  0.2108 -0.1164  0.1197
  113MOL    C2436088   3.151   8.386   2.724  0.1306 -0.4591 -0.0905
  113MOL    C2536089   3.260   8.375   2.822  0.5722 -0.1775 -0.0340
  113MOL    C2636090   3.396   0.097   3.099 -0.1847 -0.3396 -0.9163
  113MOL    H2736091   3.272   8.342   3.151 -1.6912 -2.8344 -2.4913
  113MOL    H2836092   2.886   0.034   2.916 -0.2976  0.6113 -1.7246
  113MOL    H2936093   2.944   8.410   2.678 -0.5554  3.1197  0.7462
  113MOL    H3036094   3.171   8.366   2.620 -0.5055  0.0135 -0.3078
  113MOL    H3136095   3.364   8.354   2.803  0.4478 -1.2942  0.5109
  113MOL    H3236096   3.409   0.142   3.001  0.9032 -0.2354 -0.7259
  113MOL    H3336097   3.496   0.088   3.142  0.7336  1.4352 -2.6059
  113MOL    C3436098   3.306   0.202   3.172 -0.8385  0.0733  0.3606
  113MOL    C3536099   3.360   0.342   3.152 -0.5244  0.1974  0.8721
  113MOL    C3636100   3.269   0.446   3.139 -0.0321 -0.9497  0.4664
  113MOL   Cl3736101   3.096   0.419   3.150  0.5889 -0.1143 -0.0788
  113MOL    C3836102   3.318   0.580   3.126 -0.3919 -0.3009 -0.7395
  113MOL    C3936103   3.455   0.613   3.112  0.1343  0.8376  1.1583
  113MOL    C4036104   3.543   0.506   3.125 -0.3783  0.2586 -0.3020
  113MOL    C4136105   3.497   0.373   3.145 -0.1021  0.6864  0.5172
  113MOL    C4236106   3.292   0.167   3.322  0.2573  0.4478 -0.8973
  113MOL    H4336107   3.210   0.191   3.121 -0.9569  1.3718  0.3011
  113MOL    H4436108   3.244   0.658   3.115  0.3106  0.5472  0.4390
  113MOL    H4536109   3.493   0.712   3.089 -0.8400  1.5519  2.5116
  113MOL    H4636110   3.649   0.522   3.109 -0.5592  2.3530  0.4182
  113MOL    H4736111   3.578   0.303   3.157  0.9168  1.5298 -1.1822
  113MOL    H4836112   3.252   0.067   3.332  1.8242  0.0017  1.2641
  113MOL    H4936113   3.206   0.219   3.364  0.1774 -0.1078 -0.3701
  113MOL    C5036114   3.413   0.187   3.416  0.1691 -0.3201 -0.2492
  113MOL    C5136115   3.526   0.083   3.397 -0.0290  0.0760 -0.2077
  113MOL    C5236116   3.662   0.118   3.377  0.4876  0.1322  0.3486
  113MOL   Cl5336117   3.708   0.278   3.390  0.1819  0.5537  0.4668
  113MOL    C5436118   3.768   0.024   3.352 -0.5012  0.1342 -0.8823
  113MOL    C5536119   3.728   8.311   3.357 -0.3715 -0.3570  0.0309
  113MOL    C5636120   3.602   8.272   3.396  0.3805  0.2110 -1.0232
  113MOL    C5736121   3.500   8.369   3.412 -0.5138  0.9137  0.1594
  113MOL    C5836122   3.356   0.169   3.564  0.3478 -0.3150  0.6731
  113MOL    H5936123   3.452   0.288   3.401 -1.0202  0.1417 -0.2511
  113MOL    H6036124   3.871   0.053   3.340 -0.0652 -0.2716  1.6409
  113MOL    H6136125   3.809   8.241   3.341  0.6423  0.2896  2.2047
  113MOL    H6236126   3.584   8.166   3.407  0.1626  0.2956 -0.5432
  113MOL    H6336127   3.402   8.343   3.449 -0.1574  0.5525  0.8581
  113MOL    H6436128   3.445   0.149   3.625  1.9221  2.5093 -0.5857
  113MOL    H6536129   3.298   0.078   3.580 -0.4168  0.0643  0.0925
  113MOL    C6636130   3.280   0.289   3.626 -0.3029  0.6963  0.4524
  113MOL    C6736131   3.364   0.417   3.612 -1.0367  0.1067 -0.3375
  113MOL    C6836132   3.312   0.534   3.558  0.0446 -0.6660  0.3066
  113MOL   Cl6936133   3.143   0.539   3.511 -0.2214 -0.0867  0.3072
  113MOL    C7036134   3.397   0.652   3.534  0.1029  0.0004 -0.0955
  113MOL    C7136135   3.529   0.657   3.572 -0.1543  0.2914 -0.0128
  113MOL    C7236136   3.579   0.533   3.625 -0.1260 -0.4034 -0.0364
  113MOL    C7336137   3.501   0.419   3.646  0.2102  0.0519 -0.5995
  113MOL    C7436138   3.220   0.269   3.766 -0.2268  0.0996 -0.2798
  113MOL    H7536139   3.198   0.303   3.555 -0.7719 -1.0050  0.6342
  113MOL    H7636140   3.349   0.731   3.478 -1.3021  0.3339  1.5532
  113MOL    H7736141   3.591   0.744   3.558  0.5147 -0.2802 -0.5819
  113MOL    H7836142   3.682   0.537   3.658 -0.2516 -0.8806  0.4056
  113MOL    H7936143   3.549   0.332   3.689 -0.5401  0.1098  0.3819
  113MOL    H8036144   3.162   0.362   3.769  0.3618  0.5155 -1.3479
  113MOL    H8136145   3.296   0.269   3.845 -0.2176  2.7403 -0.2164
  113MOL    C8236146   3.113   0.153   3.785 -0.3104 -0.3127 -0.3361
  113MOL    C8336147   3.016   0.147   3.663  0.3499  0.0611 -0.2408
  113MOL    C8436148   3.006   0.028   3.594  0.0813  0.5520  0.5485
  113MOL   Cl8536149   3.120   8.321   3.605 -0.3240  0.2218  0.0889
  113MOL    C8636150   2.897   0.009   3.507 -0.3071 -0.1670  0.2877
  113MOL    C8736151   2.804   0.112   3.479 -0.4872 -0.3031 -0.0598
  113MOL    C8836152   2.820   0.234   3.552  0.1459  0.0777 -0.2194
  113MOL    C8936153   2.932   0.257   3.636 -0.3688  0.0303  0.6713
  113MOL    C9036154   3.035   0.152   3.910 -0.6514 -0.0921 -0.4048
  113MOL    H9136155   3.164   0.057   3.788 -2.6000 -1.5306  0.8787
  113MOL    H9236156   2.886   8.333   3.458 -3.6958 -0.0628  0.7398
  113MOL    H9336157   2.725   0.091   3.409 -1.3696  0.7865  0.6116
  113MOL    H9436158   2.750   0.314   3.532 -0.9959 -0.4865  1.3792
  113MOL    H9536159   2.926   0.342   3.702 -2.4889  0.9585 -0.6881
  113MOL    H9636160   2.948   0.087   3.896  0.0978 -1.0452 -0.6671
  113MOL    H9736161   2.992   0.249   3.936  0.6678  0.1210  1.0488
  113MOL    C9836162   3.121   0.108   4.031  0.0553 -0.6516  0.0530
  113MOL    C9936163   3.170   8.379   4.016  0.2363 -1.1127 -0.3096
  113MOL   C10036164   3.314   8.347   4.023  0.3755  0.3794 -0.3086
  113MOL  Cl10136165   3.440   0.046   4.037 -0.1804 -0.0141 -0.1730
  113MOL   C10236166   3.342   8.213   4.018 -0.4505  0.4260  0.5327
  113MOL   C10336167   3.251   8.101   3.999 -0.0888  0.0742  0.2208
  113MOL   C10436168   3.119   8.140   3.974 -0.8192  0.3876 -0.4407
  113MOL   C10536169   3.077   8.272   3.987  0.6841 -0.1176 -0.2052
  113MOL   C10636170   3.040   0.129   4.161 -0.0322 -0.5807 -0.2920
  113MOL   H10736171   3.211   0.170   4.040  0.4007 -0.5199 -3.5762
  113MOL   H10836172   3.444   8.178   4.026 -0.6727 -0.3548  0.0047
  113MOL   H10936173   3.283   7.999   3.991 -1.9257 -0.6281  1.5990
  113MOL   H11036174   3.048   8.059   3.963  0.2535 -0.4452 -1.3233
  113MOL   H11136175   2.974   8.303   3.981  0.9539  0.7332 -0.6014
  113MOL   H11236176   3.052   0.038   4.220 -2.6605  0.2161  1.5676
  113MOL   H11336177   2.934   0.124   4.136  0.2796 -1.2570 -1.5065
  113MOL   C11436178   3.081   0.260   4.243 -0.7327 -0.1715 -0.2891
  113MOL   C11536179   3.230   0.251   4.286  0.1290  0.0843 -0.7267
  113MOL   C11636180   3.335   0.331   4.238 -0.0065  0.2114 -0.5477
  113MOL  Cl11736181   3.306   0.472   4.146  0.0062 -0.2051  0.1399
  113MOL   C11836182   3.469   0.296   4.269 -0.4994  0.2283 -0.6776
  113MOL   C11936183   3.498   0.177   4.332 -0.0733  0.5284  0.4379
  113MOL   C12036184   3.395   0.106   4.391 -0.1233 -0.1462 -0.0079
  113MOL   C12136185   3.263   0.148   4.375 -0.2097 -0.3634  0.0476
  113MOL   C12236186   2.981   0.291   4.360 -0.6021 -0.6549 -0.5804
  113MOL   H12336187   3.090   0.343   4.172  0.5672 -0.8482 -0.9241
  113MOL   H12436188   3.554   0.359   4.248  0.8776 -0.1525  3.2102
  113MOL   H12536189   3.593   0.125   4.342 -1.4890 -2.3601 -0.4780
  113MOL   H12636190   3.432   0.025   4.452  0.4032 -0.4752 -0.7606
  113MOL   H12736191   3.182   0.088   4.414 -0.9454  0.2833 -0.4760
  113MOL   H12836192   3.022   0.359   4.435  0.2591 -1.8906  0.0905
  113MOL   H12936193   2.962   0.203   4.421 -2.0686 -0.1589 -0.3028
  113MOL   C13036194   2.840   0.350   4.311  0.5899  0.4673 -0.6213
  113MOL   C13136195   2.861   0.472   4.215 -0.6037 -0.4093 -0.4151
  113MOL   C13236196   2.825   0.471   4.078  0.9740  0.6918  0.0723
  113MOL  Cl13336197   2.731   0.348   4.016 -0.2519  0.3728 -0.2773
  113MOL   C13436198   2.876   0.572   3.994  0.8146  0.1179 -0.1367
  113MOL   C13536199   2.947   0.684   4.042 -0.4483  0.7081 -0.1624
  113MOL   C13636200   2.974   0.691   4.174  0.0722  0.4222  0.0627
  113MOL   C13736201   2.935   0.585   4.264  0.3800 -0.0582  0.2680
  113MOL   C13836202   2.752   0.383   4.436 -0.6302 -0.3239 -0.5357
  113MOL   H13936203   2.792   0.268   4.258  1.2202 -0.1069 -0.3066
  113MOL   H14036204   2.851   0.573   3.889 -0.0652 -0.1239  0.0665
  113MOL   H14136205   2.973   0.776   3.992  0.4584  0.1614 -0.7035
  113MOL   H14236206   3.040   0.767   4.211 -1.2114  0.4205  2.3838
  113MOL   H14336207   2.974   0.591   4.365  0.7072 -1.3845  0.2274
  113MOL   H14436208   2.819   0.435   4.504  0.0621 -2.9827  0.8634
  113MOL   H14536209   2.724   0.292   4.488 -0.2101 -0.6455 -0.8616
  113MOL   C14636210   2.621   0.468   4.408 -0.0840  0.2853  0.5220
  113MOL   C14736211   2.562   0.491   4.543  0.3205  0.2908 -0.2024
  113MOL   C14836212   2.581   0.617   4.606  0.6257  0.2692  0.2877
  113MOL  Cl14936213   2.690   0.735   4.538 -0.1176  0.3025  0.4503
  113MOL   C15036214   2.536   0.631   4.741  0.1253  0.0965  0.4357
  113MOL   C15136215   2.457   0.535   4.806  0.8093  0.3066 -0.0499
  113MOL   C15236216   2.431   0.412   4.737  0.4542  0.2379 -0.3674
  113MOL   C15336217   2.491   0.390   4.611 -0.6152  0.2870  0.3440
  113MOL   C15436218   2.526   0.404   4.304 -0.6083  1.0840 -0.4414
  113MOL   H15536219   2.645   0.565   4.365  0.8829 -0.8512 -1.5470
  113MOL   H15636220   2.554   0.726   4.789  3.1388  0.0245 -0.4277
  113MOL   H15736221   2.417   0.559   4.904  1.0353 -2.7158  0.8635
  113MOL   H15836222   2.370   0.340   4.789 -0.4025  2.2421  1.4784
  113MOL   H15936223   2.497   0.290   4.572 -3.5267  0.1224  0.2175
  113MOL   H16036224   2.508   0.303   4.343  0.9677  0.4727 -1.2583
  113MOL   H16136225   2.572   0.396   4.206 -0.7429  2.4901 -0.6254
  113MOL   C16236226   2.392   0.482   4.272  0.5375 -0.1466  0.3834
  113MOL   C16336227   2.276   0.382   4.227 -0.0036 -0.2104  0.3690
  113MOL   C16436228   2.168   0.345   4.313 -0.4544  0.5755  0.6756
  113MOL  Cl16536229   2.150   0.414   4.475 -0.1621  0.1340 -0.6283
  113MOL   C16636230   2.072   0.247   4.268 -0.3204  0.0073  0.3530
  113MOL   C16736231   2.096   0.178   4.147  0.1067  0.1585  0.3275
  113MOL   C16836232   2.206   0.208   4.071 -0.4553 -0.0821  0.5212
  113MOL   C16936233   2.293   0.311   4.106  0.0870 -0.8649 -0.3584
  113MOL   C17036234   2.419   0.599   4.171 -0.3661  0.5036  1.0769
  113MOL   H17136235   2.362   0.532   4.364 -0.2736  0.5565 -0.2564
  113MOL   H17236236   1.985   0.227   4.329 -0.8188 -0.5040 -0.5249
  113MOL   H17336237   2.033   0.100   4.108 -0.2023  1.4279 -1.7963
  113MOL   H17436238   2.227   0.158   3.977  0.0971  0.1066  0.5461
  113MOL   H17536239   2.382   0.335   4.050 -1.8167  2.4233 -2.1875
  113MOL   H17636240   2.397   0.569   4.069  2.6440  0.7573  0.3082
  113MOL   H17736241   2.527   0.611   4.174 -0.2634 -0.3294  0.9360
  113MOL   C17836242   2.350   0.734   4.194  0.4719  0.1821 -0.1207
  113MOL   C17936243   2.339   0.808   4.063  0.0115  1.0233  0.9421
  113MOL   C18036244   2.215   0.851   4.008 -0.6017  0.4067 -0.1181
  113MOL  Cl18136245   2.073   0.833   4.108  0.2536 -0.1259 -0.1806
  113MOL   C18236246   2.204   0.911   3.884 -0.3498  0.0586 -0.3301
  113MOL   C18336247   2.322   0.932   3.802  0.6126 -0.5126 -0.1985
  113MOL   C18436248   2.445   0.884   3.853 -0.0719 -0.0097 -0.0690
  113MOL   C18536249   2.455   0.824   3.981  0.5507 -0.0134 -0.5486
  113MOL   C18636250   2.426   0.828   4.293 -0.0144  1.0341  0.7830
  113MOL   H18736251   2.250   0.713   4.230  1.1895  0.1379  1.8671
  113MOL   H18836252   2.107   0.941   3.846 -0.7423  0.1038  0.7167
  113MOL   H18936253   2.303   0.972   3.704 -1.0061 -1.9897 -0.5224
  113MOL   H19036254   2.532   0.889   3.790  0.8670  2.5797  1.3572
  113MOL   H19136255   2.549   0.787   4.019  0.0597 -1.0971 -0.3699
  113MOL   H19236256   2.500   0.890   4.244 -0.3156  0.2006 -0.7561
  113MOL   H19336257   2.484   0.767   4.362  2.0481  1.1342 -0.8193
  113MOL   C19436258   2.316   0.901   4.373 -0.0701  0.0421 -0.2575
  113MOL   C19536259   2.379   1.027   4.425 -0.3550  0.1343 -0.3084
  113MOL   C19636260   2.359   1.156   4.364  0.4356  0.5621  0.6155
  113MOL  Cl19736261   2.264   1.156   4.219 -0.2569 -0.0239  0.1900
  113MOL   C19836262   2.408   1.269   4.420  0.1660  0.1409  0.1990
  113MOL   C19936263   2.501   1.268   4.525 -0.2402  0.3519  0.3007
  113MOL   C20036264   2.530   1.144   4.576  0.4331  0.5361 -0.8807
  113MOL   C20136265   2.471   1.024   4.533  0.0186  0.1073 -0.0255
  113MOL   C20236266   2.256   0.816   4.484  0.6192 -0.2528 -0.8140
  113MOL   H20336267   2.239   0.924   4.299  0.3945  2.2067 -0.0886
  113MOL   H20436268   2.387   1.368   4.381  0.1612  0.6290  1.4189
  113MOL   H20536269   2.532   1.357   4.576  1.1086 -1.1924  2.2331
  113MOL   H20636270   2.593   1.137   4.663  1.7489 -2.8348 -2.0291
  113MOL   H20736271   2.505   0.930   4.575 -1.4368  0.0532  1.0520
  113MOL   H20836272   2.332   0.787   4.557  3.1483  0.4280 -3.1246
  113MOL   H20936273   2.216   0.725   4.440  1.5285 -0.1630 -1.8395
  113MOL   C21036274   2.148   0.879   4.565  0.3178  0.1035  0.1701
  113MOL   C21136275   2.117   0.800   4.694 -0.1198 -0.9063  0.3318
  113MOL   C21236276   2.138   0.860   4.820 -0.6674  0.0617 -0.2721
  113MOL  Cl21336277   2.195   1.018   4.851 -0.1117  0.3132  0.3118
  113MOL   C21436278   2.099   0.787   4.938  0.0101 -0.2541  1.1805
  113MOL   C21536279   2.036   0.660   4.928 -0.9073  0.3977 -0.8963
  113MOL   C21636280   2.014   0.604   4.804  0.0620 -0.1921  0.3407
  113MOL   C21736281   2.058   0.673   4.688  0.7111 -0.0935 -0.5700
  113MOL   C21836282   2.026   0.902   4.481  0.0798  0.0388 -0.4416
  113MOL   H21936283   2.188   0.978   4.586 -2.2428  1.1238  0.4153
  113MOL   H22036284   2.107   0.825   5.039  1.8932 -0.0944  0.9846
  113MOL   H22136285   2.008   0.615   5.022  0.4760 -1.1779 -1.2223
  113MOL   H22236286   1.960   0.511   4.802  0.2400 -0.2892 -0.0053
  113MOL   H22336287   2.038   0.623   4.595  0.2457 -1.5656  0.3154
  113MOL   H22436288   2.001   0.809   4.430 -0.0431  0.7365 -1.6685
  113MOL   H22536289   2.056   0.973   4.404 -0.2623  0.9579  0.2601
  113MOL   C22636290   1.896   0.957   4.536 -0.8636 -0.1119  0.3333
  113MOL   C22736291   1.784   0.945   4.437  0.9990 -0.3184 -0.0566
  113MOL   C22836292   1.658   0.890   4.463 -0.0089 -0.2972  0.2265
  113MOL  Cl22936293   1.647   0.778   4.595 -0.0319 -0.2360 -0.0301
  113MOL   C23036294   1.552   0.896   4.369 -0.2499 -0.4890  0.2459
  113MOL   C23136295   1.559   0.978   4.256  0.2232  0.1920  0.3832
  113MOL   C23236296   1.686   1.042   4.227  0.4940  0.3124  0.0632
  113MOL   C23336297   1.796   1.014   4.315 -0.5718  0.0659 -0.2725
  113MOL   C23436298   1.921   1.105   4.588 -0.0895 -0.3483 -0.1854
  113MOL   H23536299   1.874   0.900   4.627 -2.0006  0.9593  0.7393
  113MOL   H23636300   1.460   0.840   4.379  0.0999 -1.4915 -1.7772
  113MOL   H23736301   1.483   0.980   4.178 -1.1582  0.6173  1.7202
  113MOL   H23836302   1.707   1.088   4.132  0.3451 -0.5426 -0.3829
  113MOL   H23936303   1.887   1.068   4.291  0.2413 -0.4799  1.5205
  113MOL   H24036304   1.913   1.181   4.510  0.5923  0.6991  0.7387
  113MOL   H24136305   2.021   1.123   4.627 -1.0037  1.8479  1.2385
  113MOL   C24236306   1.813   1.135   4.692  0.1165 -0.4603  0.2494
  113MOL   C24336307   1.772   1.281   4.695  0.2810  0.1207  0.1374
  113MOL   C24436308   1.654   1.332   4.632 -1.2190  0.0628  0.2887
  113MOL  Cl24536309   1.531   1.230   4.559  0.0566 -0.0090  0.2763
  113MOL   C24636310   1.626   1.471   4.631 -0.1244 -0.4445  0.1196
  113MOL   C24736311   1.703   1.562   4.707 -0.1049 -0.6734 -0.6104
  113MOL   C24836312   1.819   1.510   4.768 -0.8078  0.3079  0.2249
  113MOL   C24936313   1.857   1.373   4.758  0.4892 -0.2684 -0.6650
  113MOL   C25036314   1.841   1.083   4.837  0.2680 -0.7380  0.3536
  113MOL   H25136315   1.722   1.083   4.660  0.4234 -0.3740 -0.7749
  113MOL   H25236316   1.534   1.509   4.591  0.5023  1.9376  0.8514
  113MOL   H25336317   1.663   1.660   4.729 -2.4897 -1.6563 -0.3743
  113MOL   H25436318   1.873   1.577   4.833 -3.7976  0.4242  2.7158
  113MOL   H25536319   1.949   1.338   4.802  0.5163  0.8517  0.2205
  113MOL   H25636320   1.926   1.139   4.876 -0.3574  1.0581 -0.7891
  113MOL   H25736321   1.880   0.982   4.831  2.1112 -0.0568  0.4555
  113MOL   C25836322   1.723   1.082   4.935 -0.1958 -0.0452 -0.7056
  113MOL   C25936323   1.751   1.059   5.084  0.3354  1.3574 -0.3903
  113MOL   C26036324   1.727   1.165   5.175 -0.0665  0.1808  0.0208
  113MOL  Cl26136325   1.716   1.328   5.117 -0.0464  0.0754  0.3878
  113MOL   C26236326   1.717   1.137   5.315  0.4821  0.0217 -0.5530
  113MOL   C26336327   1.727   1.010   5.361  0.9786  0.2959  0.5260
  113MOL   C26436328   1.744   0.904   5.268  0.4294  0.3276 -0.2279
  113MOL   C26536329   1.765   0.928   5.129  0.3551 -0.2503 -0.7756
  113MOL   C26636330   1.605   0.992   4.878  0.5461  0.1395  0.3691
  113MOL   H26736331   1.677   1.181   4.926 -2.3155 -0.9952 -0.7555
  113MOL   H26836332   1.724   1.221   5.383  2.0259 -0.3261 -0.2498
  113MOL   H26936333   1.711   0.991   5.467  0.8265  0.7652  0.5885
  113MOL   H27036334   1.739   0.800   5.296  0.8583  0.2037 -0.5931
  113MOL   H27136335   1.753   0.843   5.063  2.2626 -0.5546 -0.7492
  113MOL   H27236336   1.631   0.887   4.892  0.1001 -0.2115 -1.3369
  113MOL   H27336337   1.597   0.995   4.769 -0.8337  1.0595  0.4822
  113MOL   C27436338   1.467   1.033   4.942 -0.2009  0.5113  0.0205
  113MOL   C27536339   1.375   0.916   4.951 -0.9829 -0.2582  0.5509
  113MOL   C27636340   1.294   0.886   5.068  0.0105 -0.0848  0.5552
  113MOL  Cl27736341   1.319   0.970   5.223  0.4716 -0.0676 -0.0822
  113MOL   C27836342   1.203   0.777   5.067  0.5173  0.6523  0.3388
  113MOL   C27936343   1.186   0.703   4.949 -0.6474 -0.4161 -0.8415
  113MOL   C28036344   1.247   0.743   4.830  1.0277  0.4575 -0.1850
  113MOL   C28136345   1.344   0.840   4.837 -0.0106 -0.6420  0.3213
  113MOL   C28236346   1.401   1.153   4.868  0.4294  0.8399  0.3035
  113MOL   H28336347   1.486   1.059   5.046 -1.1416  1.5576 -0.0690
  113MOL   H28436348   1.143   0.750   5.153 -0.6888  1.5081 -0.2189
  113MOL   H28536349   1.121   0.616   4.954  0.6806 -1.3386  0.6118
  113MOL   H28636350   1.217   0.701   4.735  2.8562  0.2107 -0.6824
  113MOL   H28736351   1.403   0.860   4.749  0.4569 -0.9340  0.5634
  113MOL   H28836352   1.365   1.112   4.774  0.5761 -3.6416  2.0730
  113MOL   H28936353   1.477   1.228   4.847  1.8105  0.1188  2.5530
  113MOL   C29036354   1.294   1.222   4.953 -0.0035  0.3462 -0.5683
  113MOL   C29136355   1.212   1.311   4.861 -0.4452 -0.7011 -0.1014
  113MOL   C29236356   1.084   1.269   4.823  0.4433  0.5732  0.5049
  113MOL  Cl29336357   1.021   1.108   4.837  0.1539 -0.4054 -0.5383
  113MOL   C29436358   1.008   1.359   4.743 -0.4282  0.7374  0.2972
  113MOL   C29536359   1.055   1.478   4.702  0.2443 -0.4822 -0.3451
  113MOL   C29636360   1.186   1.520   4.736 -0.2753  0.1340  0.0295
  113MOL   C29736361   1.267   1.438   4.811  0.0191  0.5935 -0.3212
  113MOL   C29836362   1.356   1.301   5.064  0.0972  0.4126  0.1712
  113MOL   H29936363   1.230   1.143   4.991  1.1685 -1.1531 -1.6403
  113MOL   H30036364   0.918   1.323   4.695 -0.2853  0.2547  0.3824
  113MOL   H30136365   1.004   1.545   4.634  0.7023  1.5798  1.2975
  113MOL   H30236366   1.223   1.617   4.706  1.1946 -0.2136  0.6779
  113MOL   H30336367   1.370   1.463   4.828  0.3657 -0.8615 -0.1824
  113MOL   H30436368   1.438   1.362   5.026 -0.3086  1.6022  1.1730
  113MOL   H30536369   1.386   1.227   5.138 -0.4317 -0.1842 -0.2064
  113MOL   C30636370   1.262   1.392   5.145 -0.4452 -0.4896 -0.2433
  113MOL   C30736371   1.342   1.471   5.252  0.3314  0.3217 -0.1158
  113MOL   C30836372   1.318   1.608   5.278 -0.2871 -0.2521 -0.2811
  113MOL  Cl30936373   1.181   1.684   5.200 -0.5721  0.2780 -0.2039
  113MOL   C31036374   1.399   1.695   5.357 -0.2255  0.4083 -0.3314
  113MOL   C31136375   1.517   1.641   5.418  0.1123  0.7064  0.5948
  113MOL   C31236376   1.543   1.504   5.400  1.1434 -0.1929 -0.9324
  113MOL   C31336377   1.456   1.425   5.322  1.1116 -0.2921 -0.1102
  113MOL   C31436378   1.152   1.319   5.222  0.4521  0.1703 -0.5512
  113MOL   H31536379   1.214   1.465   5.081 -1.2658  1.8473  2.9211
  113MOL   H31636380   1.373   1.799   5.370  1.2157  0.7239  0.0684
  113MOL   H31736381   1.593   1.695   5.473  2.4990 -2.2306  0.3136
  113MOL   H31836382   1.622   1.455   5.456 -0.2172  0.2556  1.4721
  113MOL   H31936383   1.492   1.325   5.302 -0.8021 -0.8646 -0.7761
  113MOL   H32036384   1.189   1.231   5.275  0.9193  2.3724  2.9088
  113MOL   H32136385   1.074   1.286   5.152 -0.0101  0.9577 -0.4134
  113MOL   H32236386   1.103   1.380   5.297  0.3461 -0.5863  0.0018
  114MOL     C136387   4.945   0.051   0.978 -0.1108  0.5676 -0.8672
  114MOL     C236388   4.888   8.358   0.894 -0.4976  0.1949 -0.0742
  114MOL     C336389   4.903   8.354   0.753  0.4453  0.5308  0.1274
  114MOL    Cl436390   4.971   0.067   0.667 -0.0586 -0.0416  0.5352
  114MOL     C536391   4.854   8.239   0.681 -0.0867 -0.2018  0.8052
  114MOL     C636392   4.785   8.129   0.754 -0.4365 -0.4073  0.1775
  114MOL     C736393   4.785   8.138   0.894 -0.1400 -0.3915 -0.0730
  114MOL     C836394   4.823   8.254   0.958  0.2432  0.1803 -1.0547
  114MOL     C936395   5.093   0.039   1.027  0.0529  0.5167  0.0389
  114MOL    H1036396   4.923   0.143   0.923  1.0944  1.0278 -0.5817
  114MOL    H1136397   4.857   8.248   0.574 -3.0072  2.5082  0.8749
  114MOL    H1236398   4.757   8.034   0.710  1.1991 -0.7121 -0.2467
  114MOL    H1336399   4.745   8.056   0.952  0.8613  0.0328  1.2441
  114MOL    H1436400   4.813   8.253   1.066 -0.2954 -0.7284 -1.1103
  114MOL    H1536401   5.156   0.084   0.950 -0.4163 -3.2332 -2.6847
  114MOL    H1636402   5.115   8.353   1.036  0.6472  0.6987  0.8070
  114MOL    H1736403   4.893   0.057   1.074  0.7101 -0.3945 -0.3665
  114MOL    C1836404   5.137   0.112   1.156  0.7315 -0.1986 -0.1721
  114MOL    C1936405   5.086   0.259   1.163 -0.2656 -0.9944 -0.1958
  114MOL    C2036406   4.978   0.300   1.239 -0.6611  0.9989  0.2057
  114MOL   Cl2136407   4.894   0.188   1.344  0.3011  0.1690 -0.3313
  114MOL    C2236408   4.936   0.434   1.236 -0.7311 -0.1020  0.1228
  114MOL    C2336409   5.005   0.524   1.152 -0.0744  0.1559  0.2674
  114MOL    C2436410   5.113   0.485   1.080 -0.3268 -0.0355 -0.1324
  114MOL    C2536411   5.149   0.350   1.072  0.0086  0.2119 -1.0017
  114MOL    C2636412   5.285   0.109   1.183  0.5750 -0.2220 -0.1282
  114MOL    H2736413   5.090   0.050   1.233  0.7025 -1.1258 -0.9298
  114MOL    H2836414   4.866   0.479   1.304  0.8992  0.3653  1.5111
  114MOL    H2936415   4.978   0.629   1.152 -0.9912 -0.0402 -3.0140
  114MOL    H3036416   5.165   0.551   1.012 -1.3778 -0.3435 -1.2537
  114MOL    H3136417   5.229   0.311   1.012  0.6191  0.7323 -0.5285
  114MOL    H3236418   5.308   0.181   1.260  0.0304  0.2345 -0.3866
  114MOL    H3336419   5.327   0.159   1.096  1.4496 -0.0157  0.4124
  114MOL    C3436420   5.359   8.396   1.207 -0.2769  0.4062  0.2788
  114MOL    C3536421   5.275   8.300   1.301  0.1387 -0.2782 -0.1121
  114MOL    C3636422   5.233   8.171   1.258  0.0040  0.8679  0.3529
  114MOL   Cl3736423   5.287   8.107   1.109 -0.0533  0.2015  0.0086
  114MOL    C3836424   5.132   8.102   1.330 -0.4303  0.7926  0.0107
  114MOL    C3936425   5.078   8.161   1.448  1.0081 -0.2244  0.5177
  114MOL    C4036426   5.124   8.288   1.493 -1.6799 -0.4617  0.8158
  114MOL    C4136427   5.231   8.350   1.425  0.3484  0.1893  0.7817
  114MOL    C4236428   5.497   0.011   1.262  0.6544 -0.0685 -0.1390
  114MOL    H4336429   5.384   8.342   1.116  0.7951  0.5109  0.5039
  114MOL    H4436430   5.109   8.003   1.293 -0.5371  0.2483  1.4907
  114MOL    H4536431   4.997   8.102   1.487  1.3317  0.0280  1.5719
  114MOL    H4636432   5.087   8.322   1.589 -2.7857  2.2962 -0.5326
  114MOL    H4736433   5.257   0.029   1.458  1.8581  0.3942 -1.0135
  114MOL    H4836434   5.553   8.339   1.272  3.5893  1.9715  4.0968
  114MOL    H4936435   5.476   0.034   1.367 -1.1212  0.3005 -0.5452
  114MOL    C5036436   5.579   0.120   1.194  0.2084  0.0461  0.3447
  114MOL    C5136437   5.644   0.074   1.057  0.3933  0.6336 -0.4033
  114MOL    C5236438   5.619   0.143   0.940 -1.0239 -0.0159 -0.2849
  114MOL   Cl5336439   5.507   0.271   0.916  0.1131  0.3045  0.1930
  114MOL    C5436440   5.689   0.103   0.826  0.5405 -0.3482 -0.2409
  114MOL    C5536441   5.777   8.417   0.825 -0.2214 -0.4186 -0.1128
  114MOL    C5636442   5.789   8.343   0.946 -0.1625 -0.0862 -0.3946
  114MOL    C5736443   5.728   8.383   1.062  0.6678  0.4253 -0.3615
  114MOL    C5836444   5.698   0.175   1.285 -0.0985  0.8056 -0.0271
  114MOL    H5936445   5.517   0.210   1.193  0.9848  0.5675 -1.5914
  114MOL    H6036446   5.665   0.156   0.735  2.0052 -0.3950 -0.6612
  114MOL    H6136447   5.836   8.400   0.737 -0.3044 -2.5164  0.2238
  114MOL    H6236448   5.844   8.250   0.942  0.3448  0.2285 -0.8228
  114MOL    H6336449   5.744   8.321   1.149 -1.3637  1.1435  0.5453
  114MOL    H6436450   5.764   0.239   1.226 -1.8790  1.1297 -1.7421
  114MOL    H6536451   5.761   0.089   1.308 -0.3023 -0.0951 -2.7267
  114MOL    C6636452   5.648   0.260   1.402 -0.0986 -0.0403  0.0743
  114MOL    C6736453   5.571   0.381   1.352 -0.0773 -0.1078 -0.0827
  114MOL    C6836454   5.438   0.408   1.393 -0.1930  0.2304  0.4447
  114MOL   Cl6936455   5.349   0.300   1.499  0.1154  0.0529 -0.0967
  114MOL    C7036456   5.374   0.525   1.349 -0.9239 -0.2389  0.1199
  114MOL    C7136457   5.439   0.620   1.260  0.2071  0.1254 -0.9819
  114MOL    C7236458   5.573   0.593   1.224 -0.2317  0.3192  0.1417
  114MOL    C7336459   5.632   0.474   1.263  0.2247  0.4709  0.0595
  114MOL    C7436460   5.761   0.295   1.504 -0.1466  0.4417  0.3788
  114MOL    H7536461   5.578   0.196   1.455 -0.1207  1.2219  1.6042
  114MOL    H7636462   5.270   0.537   1.376 -0.3670  1.0017  1.8266
  114MOL    H7736463   5.383   0.705   1.225 -1.2940  1.0603  3.4260
  114MOL    H7836464   5.624   0.664   1.159  0.4471 -2.1494 -2.1140
  114MOL    H7936465   5.734   0.455   1.232  0.3408  1.1450  0.0112
  114MOL    H8036466   5.732   0.382   1.562 -0.6407 -0.3828  1.4005
  114MOL    H8136467   5.849   0.311   1.442  0.2730 -0.4934  0.7229
  114MOL    C8236468   5.789   0.170   1.602  0.5236 -0.1207  0.2189
  114MOL    C8336469   5.676   0.137   1.703  0.5553 -0.7522 -0.2470
  114MOL    C8436470   5.607   0.008   1.696 -0.5804 -0.5319 -0.1952
  114MOL   Cl8536471   5.652   8.306   1.585  0.0832 -0.0381  0.1514
  114MOL    C8636472   5.498   8.410   1.782 -0.3947  0.3726  0.7705
  114MOL    C8736473   5.447   0.084   1.868 -0.8744 -0.0835  0.4975
  114MOL    C8836474   5.509   0.212   1.862 -0.5128 -0.5331 -0.6302
  114MOL    C8936475   5.627   0.236   1.793 -0.6808  0.0075 -0.0600
  114MOL    C9036476   5.928   0.163   1.676 -0.0981 -0.0668  0.3595
  114MOL    H9136477   5.786   0.087   1.532 -0.8748  1.7412 -1.9827
  114MOL    H9236478   5.462   8.308   1.789 -2.3749  0.7907 -2.2792
  114MOL    H9336479   5.365   0.058   1.932 -0.5337 -0.7802  0.6537
  114MOL    H9436480   5.480   0.291   1.930  0.8911 -0.5873  0.0447
  114MOL    H9536481   5.674   0.332   1.809  1.1124 -0.9318  0.4838
  114MOL    H9636482   5.933   0.073   1.737  0.5651  0.2265  0.7423
  114MOL    H9736483   5.923   0.244   1.749 -0.9206  0.9537 -0.8065
  114MOL    C9836484   6.052   0.169   1.579 -0.0065  0.5770  0.0323
  114MOL    C9936485   6.032   0.062   1.470  0.3839  0.2172  0.1753
  114MOL   C10036486   6.044   0.087   1.328  0.1980 -0.1175  0.5724
  114MOL  Cl10136487   6.060   0.238   1.260 -0.3129 -0.0763 -0.3552
  114MOL   C10236488   6.032   8.394   1.239 -0.7558 -0.3111  0.3332
  114MOL   C10336489   6.014   8.265   1.285  0.2835 -0.0152 -0.7132
  114MOL   C10436490   6.001   8.240   1.423  0.6149 -1.1912  0.5272
  114MOL   C10536491   6.018   8.348   1.516 -0.0219 -0.2792  0.4793
  114MOL   C10636492   6.179   0.153   1.665  0.1173 -0.1906  0.2649
  114MOL   H10736493   6.057   0.264   1.526  1.2930 -1.0155 -2.7847
  114MOL   H10836494   6.050   8.408   1.133  0.0442 -1.9493  0.2506
  114MOL   H10936495   6.016   8.186   1.212  0.9367  0.5105 -1.2736
  114MOL   H11036496   5.977   8.144   1.466  1.5933 -1.9433 -0.5886
  114MOL   H11136497   6.005   8.327   1.621  0.3185  0.5160  0.6856
  114MOL   H11236498   6.255   0.113   1.598  1.6025  0.9276  1.2756
  114MOL   H11336499   6.169   0.077   1.743 -0.2990 -0.0115  0.3911
  114MOL   C11436500   6.231   0.285   1.725  0.1332  0.2200  0.4808
  114MOL   C11536501   6.243   0.405   1.623  0.5312 -0.2897 -0.5744
  114MOL   C11636502   6.168   0.522   1.614  0.5853  0.1731 -0.4788
  114MOL  Cl11736503   6.045   0.555   1.728 -0.1992  0.2002  0.0666
  114MOL   C11836504   6.191   0.622   1.515  0.9135  0.9880 -0.1345
  114MOL   C11936505   6.281   0.594   1.411 -0.5759 -0.2707 -0.5318
  114MOL   C12036506   6.370   0.487   1.427  0.4148 -0.8136  0.5043
  114MOL   C12136507   6.344   0.392   1.527 -0.2894  0.6690  0.0255
  114MOL   C12236508   6.367   0.260   1.791  0.0346 -0.0840  0.2744
  114MOL   H12336509   6.160   0.309   1.804  0.7996 -2.6990  2.0096
  114MOL   H12436510   6.128   0.710   1.505  0.7389  0.9034  0.2264
  114MOL   H12536511   6.288   0.663   1.328 -0.7243  0.0867 -0.2486
  114MOL   H12636512   6.442   0.469   1.349 -0.5490  1.6316 -0.9980
  114MOL   H12736513   6.416   0.311   1.531 -1.3317 -0.3369 -1.3281
  114MOL   H12836514   6.407   0.355   1.828 -1.4433 -0.5152  3.1498
  114MOL   H12936515   6.431   0.213   1.717  0.1115 -0.6487  0.6949
  114MOL   C13036516   6.359   0.180   1.920  0.4946  0.3470 -0.0531
  114MOL   C13136517   6.309   0.263   2.041 -0.5211  0.5243  0.0686
  114MOL   C13236518   6.178   0.243   2.093  0.4215 -1.0360  0.3196
  114MOL  Cl13336519   6.053   0.148   2.015  0.0081  0.0421 -0.0924
  114MOL   C13436520   6.142   0.323   2.203 -0.0076 -0.0526  0.2347
  114MOL   C13536521   6.228   0.422   2.253 -0.3306  0.2650  0.0100
  114MOL   C13636522   6.360   0.437   2.201 -0.0650 -0.5014  0.4787
  114MOL   C13736523   6.401   0.353   2.097  0.3346  0.3061  0.3222
  114MOL   C13836524   6.496   0.105   1.950 -0.7755  0.4113 -1.5685
  114MOL   H13936525   6.288   0.102   1.893  2.5143 -0.5842 -2.9377
  114MOL   H14036526   6.040   0.307   2.234 -0.3661 -0.8721 -1.3344
  114MOL   H14136527   6.185   0.484   2.331 -1.5196  1.7130 -1.7649
  114MOL   H14236528   6.428   0.503   2.252 -1.0980  0.8742  0.1123
  114MOL   H14336529   6.498   0.358   2.049 -0.8599  0.2856 -2.1662
  114MOL   H14436530   6.546   0.132   2.043 -0.5644 -2.9826 -0.6367
  114MOL   H14536531   6.572   0.137   1.879  1.8546 -0.6237  0.7095
  114MOL   C14636532   6.476   8.374   1.943  0.0892  0.0454  0.2647
  114MOL   C14736533   6.400   8.321   2.065 -0.3945  0.0950 -1.0669
  114MOL   C14836534   6.271   8.254   2.059  0.2467  0.1139  0.4690
  114MOL  Cl14936535   6.201   8.213   1.907 -0.2549 -0.0883  0.2176
  114MOL   C15036536   6.198   8.232   2.176  0.1926  0.3760 -1.2923
  114MOL   C15136537   6.257   8.259   2.302 -0.0975 -0.4743 -0.4507
  114MOL   C15236538   6.387   8.319   2.311 -0.1768 -0.0869 -0.2249
  114MOL   C15336539   6.463   8.346   2.189 -0.1781  0.2800  0.3314
  114MOL   C15436540   6.611   8.301   1.919  0.4259 -0.6721 -0.7133
  114MOL   H15536541   6.403   8.347   1.867  1.1603 -1.9791 -0.0783
  114MOL   H15636542   6.101   8.183   2.176  0.0835  0.5954 -1.0523
  114MOL   H15736543   6.202   8.241   2.393  0.7628 -0.3521  0.1036
  114MOL   H15836544   6.424   8.366   2.401 -1.1971 -0.7280  0.5239
  114MOL   H15936545   6.562   8.389   2.189  0.0268 -0.0167  3.6365
  114MOL   H16036546   6.598   8.193   1.934  0.7264 -0.7922 -1.3060
  114MOL   H16136547   6.684   8.339   1.991 -0.2057  1.7093 -1.2855
  114MOL   C16236548   6.670   8.310   1.777  0.7390 -0.1946  0.1792
  114MOL   C16336549   6.563   8.276   1.672 -0.2728 -0.3975 -0.0514
  114MOL   C16436550   6.522   8.367   1.575  0.4353 -0.2751 -0.0982
  114MOL  Cl16536551   6.607   0.099   1.557  0.2384 -0.0174 -0.1193
  114MOL   C16636552   6.415   8.336   1.486  0.2475  0.6637 -0.6871
  114MOL   C16736553   6.353   8.208   1.485  0.2436 -0.0665  0.6814
  114MOL   C16836554   6.408   8.113   1.573  0.1550  0.0015  0.1281
  114MOL   C16936555   6.504   8.149   1.668  1.0166 -0.2922  0.0020
  114MOL   C17036556   6.795   8.213   1.768 -0.0571 -0.5836 -0.0238
  114MOL   H17136557   6.713   8.410   1.770  0.2743  0.0352  0.5828
  114MOL   H17236558   6.377   8.405   1.412 -1.9519 -2.8690 -3.0249
  114MOL   H17336559   6.266   8.184   1.424  1.1264  2.5930 -1.7376
  114MOL   H17436560   6.367   8.014   1.562  1.6064 -0.9416  2.7962
  114MOL   H17536561   6.545   8.074   1.734  0.2313 -0.6297  0.1041
  114MOL   H17636562   6.758   8.112   1.757 -1.8475  0.2216 -1.7072
  114MOL   H17736563   6.851   8.234   1.860  0.8812  2.3703 -1.1975
  114MOL   C17836564   6.900   8.232   1.654  0.2738 -0.3154  0.1476
  114MOL   C17936565   6.845   8.221   1.506  1.4157 -0.1437  0.2289
  114MOL   C18036566   6.775   8.106   1.456  0.0836 -0.2339 -0.0821
  114MOL  Cl18136567   6.742   7.967   1.554  0.3855  0.3616  0.2181
  114MOL   C18236568   6.720   8.109   1.325 -0.4162 -0.4505  0.4256
  114MOL   C18336569   6.736   8.227   1.246  0.1959 -0.5226  0.1400
  114MOL   C18436570   6.801   8.340   1.294  0.1769  0.5764 -0.1824
  114MOL   C18536571   6.855   8.336   1.423 -0.3038  0.4708 -0.4737
  114MOL   C18636572   7.016   8.128   1.676 -0.4264  0.4009 -0.2865
  114MOL   H18736573   6.949   8.328   1.669  0.8658 -0.4897 -0.6498
  114MOL   H18836574   6.662   8.028   1.284 -0.7147  0.1263 -0.3006
  114MOL   H18936575   6.680   8.218   1.154  2.5745 -0.6279 -1.3621
  114MOL   H19036576   6.817   0.009   1.236 -1.6517  0.5483 -0.7649
  114MOL   H19136577   6.923   8.407   1.467 -0.9867  0.2972  0.9113
  114MOL   H19236578   6.977   8.029   1.698  2.8647 -1.2709 -1.6347
  114MOL   H19336579   7.066   8.150   1.770  1.2154 -1.1698 -0.7740
  114MOL   C19436580   7.118   8.105   1.562  0.1573 -0.1291  0.0125
  114MOL   C19536581   7.094   7.978   1.477 -0.8166  0.3763  0.1645
  114MOL   C19636582   7.090   7.985   1.334  0.0863  0.0044 -0.9434
  114MOL  Cl19736583   7.110   8.134   1.244 -0.2950 -0.2566 -0.0436
  114MOL   C19836584   7.079   7.865   1.262 -0.0916  0.4660  0.4960
  114MOL   C19936585   7.084   7.734   1.327 -0.1379  0.1651 -0.6690
  114MOL   C20036586   7.084   7.734   1.469 -0.6277  0.1133 -0.2031
  114MOL   C20136587   7.088   7.851   1.545 -1.2741  0.8865 -0.5884
  114MOL   C20236588   7.263   8.113   1.608 -0.4648 -0.7197  0.2505
  114MOL   H20336589   7.106   8.188   1.493  3.2352  0.6123  0.3008
  114MOL   H20436590   7.072   7.872   1.155  0.2207 -2.0050  0.2766
  114MOL   H20536591   7.072   7.638   1.278  1.1559  0.4706 -1.6381
  114MOL   H20636592   7.078   7.634   1.508 -2.8162 -0.2845 -1.4917
  114MOL   H20736593   7.093   7.837   1.652 -0.4688 -1.7994 -0.9515
  114MOL   H20836594   7.334   8.093   1.528 -1.4767  2.0391 -1.4411
  114MOL   H20936595   7.288   8.039   1.684  0.9591  1.1877  1.6850
  114MOL   C21036596   7.314   8.252   1.645  0.1175 -0.1051  0.2068
  114MOL   C21136597   7.250   8.376   1.580 -0.6986 -0.5407  0.7159
  114MOL   C21236598   7.185   0.058   1.646  0.4683 -0.8659  0.3630
  114MOL  Cl21336599   7.157   0.050   1.818  0.1132  0.0268 -0.0704
  114MOL   C21436600   7.132   0.170   1.579 -0.2234 -0.1099  0.4888
  114MOL   C21536601   7.149   0.176   1.441  0.4757 -0.1541  0.1886
  114MOL   C21636602   7.214   0.074   1.372 -0.1037 -0.2647 -0.1494
  114MOL   C21736603   7.264   8.384   1.438 -0.3144  0.5361 -0.0293
  114MOL   C21836604   7.464   8.268   1.628 -1.2917 -0.5814  0.1983
  114MOL   H21936605   7.286   8.257   1.750  0.1890 -0.4585  0.2458
  114MOL   H22036606   7.074   0.239   1.640 -0.8123  0.2298 -0.4432
  114MOL   H22136607   7.111   0.263   1.388 -0.1071 -1.4162 -1.5096
  114MOL   H22236608   7.226   0.081   1.264 -2.9992 -1.8746 -0.6212
  114MOL   H22336609   7.309   8.302   1.383 -2.4846  0.7587 -2.2313
  114MOL   H22436610   7.495   8.361   1.674  1.5829 -1.6315  0.4647
  114MOL   H22536611   7.490   8.280   1.523 -0.1388  0.7275  0.6260
  114MOL   C22636612   7.550   8.165   1.705 -0.2132 -0.3710  0.0316
  114MOL   C22736613   7.524   8.164   1.853  0.1303 -0.4578 -0.2994
  114MOL   C22836614   7.526   8.041   1.921  0.3465 -0.3549 -0.1456
  114MOL  Cl22936615   7.561   7.891   1.833  0.0372  0.1839 -0.7334
  114MOL   C23036616   7.504   8.037   2.059 -0.3566 -0.7090 -0.3835
  114MOL   C23136617   7.482   8.156   2.126 -0.2089 -0.8002  0.5510
  114MOL   C23236618   7.468   8.281   2.061  0.0890 -0.0072  0.5635
  114MOL   C23336619   7.484   8.281   1.922  0.3155  0.1360  0.6199
  114MOL   C23436620   7.696   8.180   1.669 -0.3954  0.1601 -0.0619
  114MOL   H23536621   7.504   8.073   1.669  0.2859 -1.0133  1.0066
  114MOL   H23636622   7.494   7.949   2.121 -1.4874 -0.1457  0.2528
  114MOL   H23736623   7.457   8.165   2.231 -0.7986 -1.1495  0.4413
  114MOL   H23836624   7.427   8.367   2.113 -1.4224  0.4144 -1.2875
  114MOL   H23936625   7.467   8.376   1.872 -0.8679  0.7310  2.1017
  114MOL   H24036626   7.744   8.101   1.726  1.8702  0.9749 -0.7803
  114MOL   H24136627   7.737   8.279   1.689 -0.9115  0.1403  1.1718
  114MOL   C24236628   7.746   8.148   1.521  0.4779 -0.0381 -0.2294
  114MOL   C24336629   7.708   8.001   1.494  0.6323  0.3733  0.1836
  114MOL   C24436630   7.606   7.968   1.403  0.5440  0.5585  1.0055
  114MOL  Cl24536631   7.513   8.084   1.312 -0.4739 -0.0086  0.0252
  114MOL   C24636632   7.580   7.832   1.373 -0.4224 -0.6606  0.2646
  114MOL   C24736633   7.647   7.730   1.441 -0.5021  0.1670 -0.0970
  114MOL   C24836634   7.740   7.760   1.540 -0.0613  0.0810  0.5071
  114MOL   C24936635   7.770   7.899   1.565 -0.0285 -0.0840  0.1119
  114MOL   C25036636   7.899   8.178   1.513  0.3305 -0.2814 -0.0735
  114MOL   H25136637   7.695   8.221   1.458  3.6714  1.3598 -1.3438
  114MOL   H25236638   7.513   7.809   1.291  1.6857  1.1345 -2.0265
  114MOL   H25336639   7.645   7.623   1.423  2.6025  0.5137 -3.1095
  114MOL   H25436640   7.783   7.678   1.596 -0.4817 -0.5044 -0.0331
  114MOL   H25536641   7.841   7.925   1.643  0.8818  0.8172 -1.0106
  114MOL   H25636642   7.947   8.151   1.607 -2.3392 -0.4687  1.2878
  114MOL   H25736643   7.923   8.284   1.506  0.2430 -0.2984 -0.6437
  114MOL   C25836644   7.967   8.106   1.392 -0.0486 -0.1247 -1.1196
  114MOL   C25936645   8.080   8.018   1.440  0.0305  0.0064  0.5739
  114MOL   C26036646   8.085   7.881   1.401  0.3529  0.0092  0.3893
  114MOL  Cl26136647   7.973   7.820   1.289 -0.4401  0.1296 -0.3582
  114MOL   C26236648   8.198   7.804   1.437  0.0979 -0.0919  0.4122
  114MOL   C26336649   8.303   7.860   1.508  0.4364 -0.2662  0.0428
  114MOL   C26436650   8.289   7.986   1.559 -1.1116 -0.4051 -0.3539
  114MOL   C26536651   8.179   8.069   1.532 -0.0253  0.2112  0.7288
  114MOL   C26636652   8.038   8.209   1.298 -0.3119  0.1228  0.3203
  114MOL   H26736653   7.892   8.053   1.333 -0.2806 -1.7522  0.6042
  114MOL   H26836654   8.211   7.701   1.406  0.9240  0.2736 -0.4539
  114MOL   H26936655   8.388   7.804   1.543  0.0986 -0.8031  0.0085
  114MOL   H27036656   8.363   8.011   1.633 -0.7262 -0.3324 -0.7629
  114MOL   H27136657   8.173   8.172   1.563  1.1499 -0.1727  2.2969
  114MOL   H27236658   8.102   8.148   1.235 -0.2427  1.2049 -0.6569
  114MOL   H27336659   8.106   8.261   1.365  0.4298 -0.4182 -0.0049
  114MOL   C27436660   7.964   8.321   1.223  0.7030 -1.2296 -0.1536
  114MOL   C27536661   7.843   8.277   1.153  0.7817 -0.8532 -0.1744
  114MOL   C27636662   7.717   8.349   1.169 -0.0376 -0.3396  0.5810
  114MOL  Cl27736663   7.710   0.057   1.272 -0.3284 -0.3389  0.3343
  114MOL   C27836664   7.603   8.315   1.094 -0.3470  0.2907  0.2581
  114MOL   C27936665   7.609   8.200   1.013  1.0326 -0.9677 -0.3808
  114MOL   C28036666   7.729   8.131   1.000 -0.2807  0.4808 -0.1646
  114MOL   C28136667   7.844   8.179   1.058 -0.1357 -0.0332  0.0730
  114MOL   C28236668   8.054   8.408   1.132  0.0262  0.5245 -0.7823
  114MOL   H28336669   7.931   8.380   1.308 -0.6858 -1.9695 -0.1583
  114MOL   H28436670   7.516   8.378   1.102  0.6794  1.7253  0.3142
  114MOL   H28536671   7.527   8.178   0.946  0.5143  1.1195 -0.4507
  114MOL   H28636672   7.732   8.045   0.936  2.7643  1.3443 -1.2499
  114MOL   H28736673   7.940   8.131   1.042 -1.2432 -1.3870 -2.7248
  114MOL   H28836674   7.978   0.057   1.097 -1.9657 -0.6561  1.0377
  114MOL   H28936675   8.089   8.360   1.041 -1.8069 -1.2307 -0.6040
  114MOL   C29036676   8.166   0.069   1.206 -0.0418 -0.4286  0.0456
  114MOL   C29136677   8.115   0.150   1.328  0.0251  0.7205 -0.0838
  114MOL   C29236678   8.185   0.159   1.456 -0.6842  0.0390 -0.1816
  114MOL  Cl29336679   8.319   0.050   1.496  0.1362 -0.4584 -0.2398
  114MOL   C29436680   8.129   0.233   1.564 -0.5214  1.0013 -0.3095
  114MOL   C29536681   8.017   0.319   1.545  0.5270  1.3082 -0.3531
  114MOL   C29636682   7.957   0.319   1.419  0.1580  0.2086 -0.0944
  114MOL   C29736683   8.011   0.242   1.314 -0.7188 -0.9215 -0.0940
  114MOL   C29836684   8.255   0.148   1.112  0.2859 -0.7364 -0.5783
  114MOL   H29936685   8.231   8.414   1.250  1.4176  0.7348 -0.0421
  114MOL   H30036686   8.187   0.230   1.655 -2.4213  3.1489  1.0519
  114MOL   H30136687   7.967   0.380   1.619 -0.6216 -0.4839  0.3742
  114MOL   H30236688   7.870   0.377   1.390 -0.0471 -0.9353 -1.8219
  114MOL   H30336689   7.966   0.249   1.217 -0.4722 -0.2428 -0.1627
  114MOL   H30436690   8.319   0.213   1.172  1.5401 -0.0396 -2.6435
  114MOL   H30536691   8.201   0.215   1.046 -0.0614  1.4881  1.8566
  114MOL   C30636692   8.357   0.052   1.038 -0.0607  0.3400  0.0692
  114MOL   C30736693   0.027   8.394   1.131  0.5985  0.8369 -0.6687
  114MOL   C30836694   0.026   8.248   1.137  0.4846  0.0597 -0.5094
  114MOL  Cl30936695   8.330   8.151   1.057 -0.0028 -0.1394 -0.2985
  114MOL   C31036696   0.122   8.180   1.220 -0.1423 -0.4421  0.7284
  114MOL   C31136697   0.208   8.262   1.302  0.5780  0.6616  0.3843
  114MOL   C31236698   0.202   8.401   1.301 -0.4158 -0.5574 -0.2418
  114MOL   C31336699   0.116   0.046   1.211 -0.2275  0.4398 -0.5019
  114MOL   C31436700   0.022   0.120   0.928  0.3845 -0.1869  0.2848
  114MOL   H31536701   8.283   8.413   0.985  1.3401 -0.6681 -0.7982
  114MOL   H31636702   0.131   8.074   1.206 -0.4443 -0.5529  1.3652
  114MOL   H31736703   0.287   8.213   1.356  0.6962  2.6498  2.0699
  114MOL   H31836704   0.265   0.047   1.358  0.9284 -0.4841 -1.7904
  114MOL   H31936705   0.117   0.151   1.188  2.1696  0.5105 -0.1640
  114MOL   H32036706   8.386   0.170   0.850  3.0294 -0.3677 -1.8106
  114MOL   H32136707   0.080   0.042   0.879 -1.5070 -0.6210 -1.2904
  114MOL   H32236708   0.085   0.200   0.967 -1.3933  0.9303  0.8983
  115MOL     C136709   5.602   4.863   0.245  0.4662 -0.1904  0.3871
  115MOL     C236710   5.547   4.814   0.116 -0.0527  0.5765 -0.1517
  115MOL     C336711   5.572   4.862   8.404  0.1487 -0.6655  0.3153
  115MOL    Cl436712   5.689   4.982   8.379 -0.2714 -0.1079  0.2584
  115MOL     C536713   5.500   4.825   8.291 -0.5122  0.1615 -0.2045
  115MOL     C636714   5.407   4.723   8.302  0.6837  0.2107 -0.9182
  115MOL     C736715   5.392   4.654   0.006  0.1779  0.1761  0.9805
  115MOL     C836716   5.454   4.706   0.119 -0.7459  0.0681  0.3671
  115MOL     C936717   5.729   4.780   0.276 -0.4024 -0.2206  0.0923
  115MOL    H1036718   5.628   4.968   0.254  1.7145 -0.0692 -3.7490
  115MOL    H1136719   5.506   4.871   8.193  0.5376  0.0100 -0.2147
  115MOL    H1236720   5.358   4.693   8.211 -0.8785  0.3880 -0.1574
  115MOL    H1336721   5.327   4.567   0.009 -1.2808  1.2598  1.2007
  115MOL    H1436722   5.428   4.675   0.219  0.8669 -0.3080  0.6768
  115MOL    H1536723   5.797   4.796   0.192 -3.4394 -0.8017 -2.5876
  115MOL    H1636724   5.708   4.673   0.283  0.4707 -0.3876  0.2458
  115MOL    H1736725   5.523   4.844   0.318 -0.0460 -0.3023 -0.1871
  115MOL    C1836726   5.792   4.806   0.412 -0.1882  0.0366  0.1790
  115MOL    C1936727   5.842   4.946   0.444  0.2538 -0.3372 -0.0596
  115MOL    C2036728   5.936   5.014   0.365  0.5121 -0.6575 -0.7948
  115MOL   Cl2136729   6.014   4.945   0.231  0.1322 -0.1516 -0.1018
  115MOL    C2236730   5.967   5.152   0.394 -0.4210 -0.1724 -0.3602
  115MOL    C2336731   5.911   5.219   0.504  1.1388 -0.1714  0.2718
  115MOL    C2436732   5.816   5.155   0.583  0.6825 -0.2796 -0.3162
  115MOL    C2536733   5.775   5.024   0.551 -0.3442  0.1820 -0.5249
  115MOL    C2636734   5.902   4.699   0.436  0.1403 -0.1836 -0.6497
  115MOL    H2736735   5.720   4.790   0.492  0.0834 -0.2022  0.3788
  115MOL    H2836736   6.038   5.202   0.330  0.0314  2.4661  2.0720
  115MOL    H2936737   5.940   5.321   0.528 -0.8613  0.7654 -1.1499
  115MOL    H3036738   5.776   5.199   0.673 -1.9246  0.9575 -2.0388
  115MOL    H3136739   5.705   4.972   0.615  1.3394 -0.2229  1.0414
  115MOL    H3236740   5.997   4.742   0.403  0.6493  1.5918  2.8364
  115MOL    H3336741   5.898   4.609   0.374  1.5948 -0.9499  0.3293
  115MOL    C3436742   5.923   4.639   0.577 -0.3500 -0.3299 -0.7545
  115MOL    C3536743   6.058   4.685   0.635 -0.0689  0.7470 -0.1501
  115MOL    C3636744   6.065   4.789   0.733  0.1180  0.3884 -0.3256
  115MOL   Cl3736745   5.940   4.888   0.782 -0.0749 -0.1098  0.4415
  115MOL    C3836746   6.193   4.826   0.784  0.0087 -0.2073 -0.2816
  115MOL    C3936747   6.309   4.757   0.752 -0.3687 -0.0241  0.3423
  115MOL    C4036748   6.299   4.659   0.650  0.6911  0.1539  0.3605
  115MOL    C4136749   6.176   4.629   0.587 -0.1175 -0.5143 -0.4427
  115MOL    C4236750   5.917   4.481   0.574 -0.4181 -0.7135 -0.1741
  115MOL    H4336751   5.847   4.675   0.646  0.9420  2.6237 -0.7917
  115MOL    H4436752   6.208   4.893   0.867 -1.8802  0.8610 -0.7578
  115MOL    H4536753   6.403   4.794   0.790 -1.6543  4.4728 -0.5461
  115MOL    H4636754   6.387   4.606   0.618  0.4698 -0.9235  1.4997
  115MOL    H4736755   6.161   4.554   0.511 -1.1919 -1.4946  0.7177
  115MOL    H4836756   5.945   4.448   0.674  0.4500 -1.9160 -0.7988
  115MOL    H4936757   5.996   4.433   0.516 -0.8898 -0.2216 -1.2339
  115MOL    C5036758   5.779   4.422   0.549  0.2737  0.0323  0.3165
  115MOL    C5136759   5.677   4.471   0.650 -0.2127  0.1668 -0.5134
  115MOL    C5236760   5.556   4.532   0.608  0.2077  0.0050 -0.5901
  115MOL   Cl5336761   5.512   4.558   0.440 -0.2106  0.3054 -0.0787
  115MOL    C5436762   5.460   4.574   0.707  0.0262  0.0485 -0.2796
  115MOL    C5536763   5.489   4.552   0.841  0.0919  0.0882 -1.3844
  115MOL    C5636764   5.612   4.494   0.880  0.9017 -0.4813  0.1166
  115MOL    C5736765   5.704   4.449   0.788  1.1607 -0.3908  0.0053
  115MOL    C5836766   5.771   4.266   0.528 -0.2177 -0.4461  0.9752
  115MOL    H5936767   5.745   4.451   0.450 -0.3762  0.5208  0.6782
  115MOL    H6036768   5.364   4.616   0.681 -0.1976  0.4939  1.1935
  115MOL    H6136769   5.415   4.575   0.916 -0.8695 -2.6440 -1.4523
  115MOL    H6236770   5.630   4.466   0.983  1.1552  1.2715  0.5672
  115MOL    H6336771   5.796   4.405   0.824  0.5001 -2.3976 -0.7215
  115MOL    H6436772   5.666   4.236   0.517 -0.0785 -1.0157  1.2040
  115MOL    H6536773   5.811   4.226   0.621  1.4175  0.3152  0.6177
  115MOL    C6636774   5.854   4.211   0.410  0.2182 -0.8496  0.3742
  115MOL    C6736775   5.805   4.272   0.278  0.2169 -0.8458  1.3485
  115MOL    C6836776   5.901   4.346   0.196  0.3704 -0.1399  0.0466
  115MOL   Cl6936777   6.065   4.372   0.239 -0.0170  0.2124 -0.2088
  115MOL    C7036778   5.861   4.398   0.073  0.6081  0.1224  0.1652
  115MOL    C7136779   5.729   4.398   0.038  0.5373 -0.2146 -0.0670
  115MOL    C7236780   5.633   4.329   0.109 -0.2190  0.2023  0.3581
  115MOL    C7336781   5.668   4.263   0.232  0.3062  0.5092  0.8209
  115MOL    C7436782   5.863   4.056   0.386  0.2807  0.1607  0.5624
  115MOL    H7536783   5.956   4.245   0.425 -0.0134  0.4449 -0.8989
  115MOL    H7636784   5.945   4.438   0.019  0.3378  0.6737  0.1423
  115MOL    H7736785   5.711   4.445   8.363 -0.4472  2.6118  1.4843
  115MOL    H7836786   5.528   4.326   0.082  0.4877  0.0384 -2.4482
  115MOL    H7936787   5.593   4.205   0.285 -0.4684 -0.9347 -1.7559
  115MOL    H8036788   5.905   4.042   0.287  0.7377 -0.0960  0.7917
  115MOL    H8136789   5.760   4.022   0.383  0.4720 -0.3411 -0.5911
  115MOL    C8236790   5.961   3.981   0.481 -0.1298  0.4573  0.1844
  115MOL    C8336791   6.106   4.038   0.464  0.5162  0.7124 -0.2453
  115MOL    C8436792   6.172   4.121   0.567  0.5762  1.2927 -0.5803
  115MOL   Cl8536793   6.087   4.167   0.711 -0.2759  0.1202 -0.0828
  115MOL    C8636794   6.305   4.163   0.547 -0.0305  0.5024 -0.2150
  115MOL    C8736795   6.376   4.135   0.431 -0.1256  0.2719  0.0361
  115MOL    C8836796   6.309   4.062   0.331  0.3866 -0.5395  1.1713
  115MOL    C8936797   6.181   4.013   0.347  0.0761  0.4582 -0.2235
  115MOL    C9036798   5.967   3.833   0.466 -0.9580  0.4519  0.2401
  115MOL    H9136799   5.937   3.994   0.587 -0.4796 -0.6278  0.2424
  115MOL    H9236800   6.347   4.231   0.620 -0.3131  0.0971  0.3315
  115MOL    H9336801   6.479   4.167   0.426 -0.2893  1.0138  1.1329
  115MOL    H9436802   6.357   4.049   0.235 -1.0723  1.1134  0.1960
  115MOL    H9536803   6.142   3.970   0.256 -0.0463 -1.2594  0.6225
  115MOL    H9636804   6.057   3.795   0.515 -1.0485 -2.9381 -2.0377
  115MOL    H9736805   5.968   3.808   0.360  0.7334  3.0432 -0.3841
  115MOL    C9836806   5.852   3.762   0.534 -0.0569 -0.8427  0.1196
  115MOL    C9936807   5.845   3.790   0.682  0.0169 -0.4659  0.1112
  115MOL   C10036808   5.735   3.867   0.746 -0.6445  0.3853  0.6476
  115MOL  Cl10136809   5.629   3.954   0.644  0.2513  0.4812 -0.0214
  115MOL   C10236810   5.732   3.877   0.888 -0.1478 -0.0989  0.0826
  115MOL   C10336811   5.817   3.802   0.969 -0.3238  0.0142 -0.3560
  115MOL   C10436812   5.915   3.719   0.907  0.4362 -0.0927  0.2393
  115MOL   C10536813   5.939   3.729   0.765 -0.1681  0.4843 -0.6189
  115MOL   C10636814   5.850   3.615   0.490 -0.0606 -0.6345  0.0521
  115MOL   H10736815   5.762   3.808   0.492 -0.1082  0.3011  1.4171
  115MOL   H10836816   5.662   3.942   0.938  1.4676  1.7889 -0.0064
  115MOL   H10936817   5.819   3.814   1.076  0.1015  1.3737 -0.5100
  115MOL   H11036818   5.981   3.659   0.968  0.3214 -1.4894 -0.9805
  115MOL   H11136819   6.017   3.670   0.721 -1.4992 -0.5704 -1.6201
  115MOL   H11236820   5.948   3.575   0.518 -1.2651 -2.7319  1.3218
  115MOL   H11336821   5.850   3.621   0.381 -1.2211  0.7263  0.1190
  115MOL   C11436822   5.730   3.538   0.538 -0.5303  0.4490 -0.0929
  115MOL   C11536823   5.736   3.477   0.678  0.2576  0.4272 -0.6772
  115MOL   C11636824   5.636   3.498   0.774 -0.5243 -0.3430 -0.4317
  115MOL  Cl11736825   5.505   3.608   0.748 -0.0234  0.6040 -0.1817
  115MOL   C11836826   5.645   3.431   0.899  0.2328 -0.0582 -0.6204
  115MOL   C11936827   5.757   3.349   0.930 -0.1578 -0.0737  0.1741
  115MOL   C12036828   5.856   3.327   0.834  0.0670 -0.2563 -0.2177
  115MOL   C12136829   5.844   3.389   0.708  0.2558 -0.5715 -0.1119
  115MOL   C12236830   5.689   3.435   0.427 -0.3464 -0.5187 -0.6285
  115MOL   H12336831   5.659   3.621   0.537  0.5698  1.5066  3.1014
  115MOL   H12436832   5.570   3.449   0.975  0.2798  2.0939 -1.0634
  115MOL   H12536833   5.763   3.304   1.028 -2.4980 -0.9212 -0.0439
  115MOL   H12636834   5.945   3.276   0.867  0.2743 -0.0359 -0.4388
  115MOL   H12736835   5.923   3.357   0.641 -0.2952 -1.5116 -0.3257
  115MOL   H12836836   5.770   3.363   0.436  1.0934  1.2447  1.0795
  115MOL   H12936837   5.693   3.487   0.331 -1.0603  1.1384  0.2026
  115MOL   C13036838   5.551   3.373   0.434 -0.0017 -0.0153  0.1255
  115MOL   C13136839   5.556   3.222   0.474  0.3170 -0.5192 -0.2278
  115MOL   C13236840   5.499   3.171   0.590  0.8189 -0.0217  0.9704
  115MOL  Cl13336841   5.383   3.263   0.678 -0.2189  0.3046  0.5580
  115MOL   C13436842   5.526   3.039   0.625  0.0708  0.2852  0.4206
  115MOL   C13536843   5.610   2.957   0.550  0.2291 -0.4433  0.1325
  115MOL   C13636844   5.662   3.010   0.426  0.0442  0.1898 -0.1096
  115MOL   C13736845   5.628   3.142   0.388 -0.7780 -0.1312 -0.1163
  115MOL   C13836846   5.467   3.395   0.300  0.3741 -0.5275 -0.3416
  115MOL   H13936847   5.496   3.410   0.520  0.1770 -0.5145  0.4579
  115MOL   H14036848   5.485   2.995   0.715 -0.8282  2.1410  0.9487
  115MOL   H14136849   5.632   2.857   0.584 -1.2728 -1.3795 -1.5726
  115MOL   H14236850   5.713   2.937   0.365 -0.2693  0.3401 -0.5589
  115MOL   H14336851   5.666   3.175   0.293  0.2647  1.4513  0.8112
  115MOL   H14436852   5.373   3.341   0.295 -0.0434  0.3023 -1.5471
  115MOL   H14536853   5.516   3.351   0.213  0.3059  0.7884 -1.0531
  115MOL   C14636854   5.432   3.540   0.268 -0.0860 -0.1617 -0.1634
  115MOL   C14736855   5.346   3.615   0.374  0.0154 -1.3077  0.4305
  115MOL   C14836856   5.369   3.754   0.406  0.3380  0.3206  0.2613
  115MOL  Cl14936857   5.504   3.844   0.337 -0.3794 -0.0944 -0.1352
  115MOL   C15036858   5.300   3.810   0.514 -0.0308 -0.0696 -0.4280
  115MOL   C15136859   5.190   3.743   0.574  0.3421 -0.4558  1.3772
  115MOL   C15236860   5.164   3.613   0.536  0.6773 -0.0116  0.0293
  115MOL   C15336861   5.242   3.549   0.441 -0.4781 -0.2204  0.5418
  115MOL   C15436862   5.367   3.558   0.129  0.0308 -0.1197 -0.1250
  115MOL   H15536863   5.522   3.602   0.275 -0.1932  0.2179 -2.0644
  115MOL   H15636864   5.318   3.906   0.559 -0.6679  0.2960 -0.9327
  115MOL   H15736865   5.150   3.799   0.658 -1.5463  0.7693 -0.3011
  115MOL   H15836866   5.087   3.560   0.590 -0.2584  1.0320 -0.2551
  115MOL   H15936867   5.216   3.450   0.408  2.0023 -0.8452  0.3778
  115MOL   H16036868   5.297   3.642   0.138 -1.2784 -0.8992 -2.4814
  115MOL   H16136869   5.301   3.474   0.111  0.6174 -0.6667  0.2817
  115MOL   C16236870   5.469   3.578   0.005  0.3597  0.0300 -0.4529
  115MOL   C16336871   5.558   3.702   0.009  0.3384 -0.0857  0.4147
  115MOL   C16436872   5.702   3.701   0.026  0.2643 -0.0490 -0.0221
  115MOL  Cl16536873   5.798   3.557   0.053  0.1400 -0.0012 -0.0946
  115MOL   C16636874   5.771   3.824   0.024 -0.1487  0.3152 -0.0363
  115MOL   C16736875   5.701   3.949   0.007 -0.1109  0.3760 -0.3791
  115MOL   C16836876   5.563   3.944   8.415 -0.1007 -0.1897  0.5246
  115MOL   C16936877   5.488   3.825   0.003 -0.0047 -0.8596  0.3538
  115MOL   C17036878   5.405   3.575   8.281  0.3026  0.3070  0.7931
  115MOL   H17136879   5.530   3.487   0.010 -0.9663 -1.0091 -2.4049
  115MOL   H17236880   5.879   3.818   0.032 -0.0407  0.5529 -1.2421
  115MOL   H17336881   5.769   4.033   0.008  1.2769 -0.7123  2.4870
  115MOL   H17436882   5.513   4.039   8.403  1.5972  0.4048 -2.5173
  115MOL   H17536883   5.382   3.839   8.407  0.4178  0.0327 -1.8200
  115MOL   H17636884   5.494   3.581   8.219 -0.5424  0.8588 -0.4022
  115MOL   H17736885   5.345   3.662   8.253  0.4156 -0.7611 -2.9705
  115MOL   C17836886   5.329   3.443   8.240 -0.5411 -0.6126  0.9229
  115MOL   C17936887   5.404   3.316   8.282 -0.2347  0.5783 -0.5863
  115MOL   C18036888   5.339   3.219   8.363 -0.1318  1.4107 -0.1890
  115MOL  Cl18136889   5.173   3.232   8.404 -0.2476 -0.0685  0.1103
  115MOL   C18236890   5.412   3.105   8.403 -0.6358  0.4029  0.3806
  115MOL   C18336891   5.549   3.090   8.371  0.2700  0.2341  0.1286
  115MOL   C18436892   5.611   3.181   8.281 -0.0583 -0.3727 -0.4360
  115MOL   C18536893   5.540   3.302   8.256  0.4082 -0.2800  0.2541
  115MOL   C18636894   5.311   3.447   8.086  0.7258  0.0785  0.4228
  115MOL   H18736895   5.229   3.441   8.282 -0.4676 -3.4568  1.0540
  115MOL   H18836896   5.363   3.030   0.043  0.8737 -0.7824  0.1299
  115MOL   H18936897   5.597   3.007   8.419  1.1672  0.7811  0.1930
  115MOL   H19036898   5.712   3.169   8.245  0.0951 -0.5046  0.0442
  115MOL   H19136899   5.585   3.383   8.201 -1.8626 -0.3337 -1.7872
  115MOL   H19236900   5.402   3.464   8.030 -1.0644  1.2131 -2.2351
  115MOL   H19336901   5.245   3.526   8.049 -0.6468 -0.8827  0.7633
  115MOL   C19436902   5.244   3.311   8.026  0.6002  0.2806 -0.8687
  115MOL   C19536903   5.351   3.202   8.001  0.1465 -0.2829  0.2705
  115MOL   C19636904   5.340   3.071   8.056 -0.0053  0.1890 -0.0340
  115MOL  Cl19736905   5.187   3.015   8.129 -0.4652 -0.2494  0.2891
  115MOL   C19836906   5.441   2.977   8.036  0.6187  0.2709 -0.1340
  115MOL   C19936907   5.544   3.011   7.951 -0.0678  0.3753 -0.1209
  115MOL   C20036908   5.561   3.141   7.898  0.5488  0.5970 -0.3761
  115MOL   C20136909   5.462   3.240   7.921 -0.4987 -0.0177 -0.1543
  115MOL   C20236910   5.170   3.330   7.891 -0.2295 -0.6891 -0.0432
  115MOL   H20336911   5.173   3.266   8.095  1.1475 -0.4950 -0.7907
  115MOL   H20436912   5.426   2.876   8.071  0.3688 -0.0233 -1.0805
  115MOL   H20536913   5.617   2.933   7.933  0.7405  0.5673  2.1337
  115MOL   H20636914   5.649   3.161   7.839  0.5041  0.1805 -0.5906
  115MOL   H20736915   5.467   3.341   7.883 -0.3281 -0.4821 -1.3924
  115MOL   H20836916   5.170   3.232   7.843 -4.4371 -0.7346 -0.1417
  115MOL   H20936917   5.225   3.393   7.821  1.4674 -0.1315  1.7392
  115MOL   C21036918   5.027   3.381   7.902  0.0998 -0.2357 -0.3060
  115MOL   C21136919   4.928   3.266   7.950  0.0182 -0.5823  0.0396
  115MOL   C21236920   4.849   3.278   8.066  0.5581 -0.2030  0.5101
  115MOL  Cl21336921   4.829   3.435   8.141  0.1951  0.0587  0.0895
  115MOL   C21436922   4.771   3.173   8.112  0.1871 -0.0761  0.0041
  115MOL   C21536923   4.782   3.050   8.043  0.0785  0.0639 -0.2253
  115MOL   C21636924   4.868   3.030   7.936  0.2755  0.5569  0.2445
  115MOL   C21736925   4.939   3.142   7.887  0.3956 -0.4604 -0.6300
  115MOL   C21836926   4.983   3.437   7.771 -0.5055  0.4763  0.0025
  115MOL   H21936927   5.029   3.464   7.972 -2.3628  0.5331 -1.1062
  115MOL   H22036928   4.710   3.192   8.200  1.4730  0.9185  0.6963
  115MOL   H22136929   4.716   2.971   8.075  0.8699 -1.8496 -3.1282
  115MOL   H22236930   4.878   2.932   7.893 -0.9783 -0.6073  2.5254
  115MOL   H22336931   4.999   3.127   7.799 -0.2609 -0.3250 -1.1073
  115MOL   H22436932   4.879   3.465   7.786 -0.4198 -0.1097  1.8278
  115MOL   H22536933   4.984   3.363   7.691 -0.1732  0.0885  0.3629
  115MOL   C22636934   5.056   3.561   7.712 -0.3408  0.3599 -0.6153
  115MOL   C22736935   5.066   3.680   7.805 -0.2890  0.6757  1.1501
  115MOL   C22836936   5.186   3.752   7.843 -0.4811 -0.4224  0.6689
  115MOL  Cl22936937   5.346   3.691   7.802 -0.4867  0.4718  0.0812
  115MOL   C23036938   5.177   3.862   7.933 -0.4824  0.0076  0.5381
  115MOL   C23136939   5.055   3.905   7.979  0.6073 -0.2019 -0.3359
  115MOL   C23236940   4.936   3.843   7.941  0.2505  1.2016 -0.4269
  115MOL   C23336941   4.946   3.730   7.856  0.1441 -0.4466 -0.5685
  115MOL   C23436942   4.984   3.607   7.586  0.3778  0.5508 -0.2671
  115MOL   H23536943   5.160   3.536   7.691  0.3430  1.7994  0.9531
  115MOL   H23636944   5.262   3.914   7.974 -1.4879  0.3229  2.2958
  115MOL   H23736945   5.054   3.986   8.050 -1.7626 -0.7790  0.3375
  115MOL   H23836946   4.843   3.878   7.984 -1.0787 -2.0822 -0.5035
  115MOL   H23936947   4.851   3.681   7.837  1.2868 -2.3030 -1.6313
  115MOL   H24036948   5.011   3.710   7.564  0.9987  0.1814 -1.3000
  115MOL   H24136949   4.876   3.598   7.597  0.5446  0.2391  1.1373
  115MOL   C24236950   5.030   3.536   7.455  0.3716  0.5141  0.1425
  115MOL   C24336951   5.181   3.566   7.439 -0.7387  0.1823  0.1163
  115MOL   C24436952   5.271   3.460   7.436 -0.2867 -0.3265  0.1468
  115MOL  Cl24536953   5.229   3.296   7.484  0.1066 -0.0362  0.2928
  115MOL   C24636954   5.408   3.485   7.420  0.1405  0.2785 -0.0839
  115MOL   C24736955   5.455   3.612   7.396 -0.1309  0.0243 -0.1426
  115MOL   C24836956   5.367   3.720   7.396 -0.5505 -0.3881  0.1160
  115MOL   C24936957   5.227   3.696   7.421 -0.5881  0.4612  0.3696
  115MOL   C25036958   4.949   3.595   7.336  0.0110  0.7366 -0.0296
  115MOL   H25136959   5.018   3.428   7.465  1.7107  0.5088  2.1765
  115MOL   H25236960   5.481   3.405   7.425 -1.0449 -0.8340 -0.4700
  115MOL   H25336961   5.562   3.630   7.402 -0.4871  1.8892  1.2616
  115MOL   H25436962   5.422   3.813   7.393  0.3600 -0.8319  2.0522
  115MOL   H25536963   5.173   3.789   7.410 -0.5536  0.5533  1.0062
  115MOL   H25636964   5.006   3.596   7.243  2.1172 -3.9210  1.0641
  115MOL   H25736965   4.921   3.698   7.361  0.1204  0.7724 -0.0547
  115MOL   C25836966   4.827   3.511   7.304  0.0329  0.3919 -0.5781
  115MOL   C25936967   4.858   3.403   7.202 -0.7064 -0.1323 -1.0787
  115MOL   C26036968   4.848   3.264   7.232 -0.6832  0.0213 -0.0961
  115MOL  Cl26136969   4.800   3.211   7.385  0.5874  0.0826 -0.0809
  115MOL   C26236970   4.886   3.167   7.137  0.1663  0.2728  0.1217
  115MOL   C26336971   4.921   3.203   7.009 -0.0610 -0.2309 -0.2352
  115MOL   C26436972   4.913   3.340   6.973 -0.4304 -0.1230  0.2722
  115MOL   C26536973   4.892   3.439   7.068 -0.8159  0.3943 -0.1206
  115MOL   C26636974   4.709   3.599   7.260 -0.3357  0.1413  0.2627
  115MOL   H26736975   4.799   3.465   7.399  1.1443 -0.6265 -0.7259
  115MOL   H26836976   4.895   3.065   7.172 -1.1311 -0.2405 -0.9946
  115MOL   H26936977   4.943   3.130   6.933 -3.2890 -2.9988  1.3799
  115MOL   H27036978   4.935   3.376   6.874 -0.2758 -0.8349  0.0411
  115MOL   H27136979   4.913   3.540   7.037 -1.1219 -0.1491 -2.2210
  115MOL   H27236980   4.726   3.641   7.161 -1.1711  1.3512  0.6270
  115MOL   H27336981   4.703   3.690   7.319  0.6647  0.8384 -0.6716
  115MOL   C27436982   4.572   3.523   7.236  0.0859  0.4480  0.8250
  115MOL   C27536983   4.460   3.605   7.171  0.1494 -0.1379 -0.7512
  115MOL   C27636984   4.428   3.581   7.036  0.1692 -0.3557  0.2609
  115MOL  Cl27736985   4.505   3.463   6.936  0.0092  0.0520  0.2609
  115MOL   C27836986   4.323   3.656   6.974  0.8727 -0.4630  0.3185
  115MOL   C27936987   4.252   3.758   7.046  0.0028 -0.1891 -0.4160
  115MOL   C28036988   4.283   3.779   7.181 -0.6641  0.1522  0.1224
  115MOL   C28136989   4.384   3.703   7.237 -0.4230  0.5306  0.0188
  115MOL   C28236990   4.520   3.458   7.365 -0.4657  0.1400  0.3553
  115MOL   H28336991   4.607   3.434   7.184  0.5002  0.8164  0.4664
  115MOL   H28436992   4.301   3.634   6.871 -0.5023 -0.5686  0.6264
  115MOL   H28536993   4.171   3.810   6.996 -0.3974  0.3921  0.8095
  115MOL   H28636994   4.218   3.834   7.246  0.1691  1.3742 -0.0648
  115MOL   H28736995   4.412   3.720   7.340  2.2389 -0.5967 -0.4806
  115MOL   H28836996   4.510   3.534   7.442  1.2281  1.6262 -0.8665
  115MOL   H28936997   4.595   3.397   7.414  0.2191  0.6757 -0.0257
  115MOL   C29036998   4.396   3.370   7.350 -0.5068  0.6148  0.0406
  115MOL   C29136999   4.355   3.316   7.492 -0.3136 -0.2480  0.5545
  115MOL   C29237000   4.244   3.370   7.561  0.3441 -0.4865 -0.1897
  115MOL  Cl29337001   4.126   3.482   7.488 -0.0738  0.4380  0.0142
  115MOL   C29437002   4.215   3.327   7.694  0.5702  0.1514 -0.0972
  115MOL   C29537003   4.301   3.236   7.761 -0.5434 -0.1245  0.2385
  115MOL   C29637004   4.410   3.181   7.689 -0.0552 -0.7191  0.2421
  115MOL   C29737005   4.436   3.217   7.556  0.6329 -0.3442  0.7712
  115MOL   C29837006   4.419   3.255   7.250 -0.3822  0.6546  0.2693
  115MOL   H29937007   4.320   3.433   7.305 -1.5642 -0.8870 -0.3067
  115MOL   H30037008   4.131   3.374   7.742 -1.1425 -1.5797 -1.3136
  115MOL   H30137009   4.275   3.199   7.859 -0.9818  1.1799  0.6275
  115MOL   H30237010   4.481   3.111   7.730  1.6049  0.0986 -1.1827
  115MOL   H30337011   4.521   3.177   7.504  0.8725  0.0622  0.8488
  115MOL   H30437012   4.513   3.203   7.270 -0.8793  0.3315  1.8373
  115MOL   H30537013   4.431   3.298   7.151  0.5536 -1.3128 -0.4901
  115MOL   C30637014   4.318   3.143   7.238  0.1554 -0.0776  0.0843
  115MOL   C30737015   4.362   3.034   7.139 -0.2653 -0.1582 -0.7114
  115MOL   C30837016   4.295   2.905   7.147 -0.1667 -0.9791 -0.7181
  115MOL  Cl30937017   4.167   2.873   7.260 -0.0469 -0.2657  0.6452
  115MOL   C31037018   4.331   2.802   7.057  0.4819  0.1204  0.9134
  115MOL   C31137019   4.433   2.829   6.963  0.6399 -0.2771  0.5599
  115MOL   C31237020   4.486   2.952   6.944 -0.1700 -0.4460  0.1912
  115MOL   C31337021   4.453   3.058   7.031 -0.0875 -0.5688 -0.0280
  115MOL   C31437022   4.181   3.197   7.193 -0.1984 -0.3304  0.0995
  115MOL   H31537023   4.319   3.092   7.335  0.6782 -1.1948 -0.4915
  115MOL   H31637024   4.279   2.708   7.065  0.0315  0.4421  1.8854
  115MOL   H31737025   4.454   2.751   6.892 -1.4032  1.2758 -1.8359
  115MOL   H31837026   4.556   2.962   6.862 -0.4944  1.5150  0.1161
  115MOL   H31937027   4.500   3.154   7.014 -1.0996 -0.0023  0.3247
  115MOL   H32037028   4.198   3.263   7.108  1.1717 -2.8880 -1.6718
  115MOL   H32137029   4.137   3.247   7.279  0.8580 -2.3006  1.8288
  115MOL   H32237030   4.113   3.117   7.164 -1.0508  0.1340  0.8165
  116MOL     C137031   4.349   6.065   5.024 -0.7135 -0.2631 -0.5055
  116MOL     C237032   4.480   6.152   5.040  0.2747  0.4951 -0.1009
  116MOL     C337033   4.549   6.214   4.928  0.3711 -0.2925 -0.3735
  116MOL    Cl437034   4.482   6.188   4.768 -0.0261  0.1502  0.2319
  116MOL     C537035   4.660   6.298   4.946  0.4386  0.5312  0.2442
  116MOL     C637036   4.698   6.327   5.075 -0.1818  0.4554  0.1555
  116MOL     C737037   4.638   6.264   5.185 -0.4464  0.0549  0.0412
  116MOL     C837038   4.531   6.176   5.167  0.0617  0.0506  0.4385
  116MOL     C937039   4.379   5.923   4.981 -0.2590  0.1851  0.4119
  116MOL    H1037040   4.290   6.065   5.116 -2.1043 -2.9460 -1.3459
  116MOL    H1137041   4.717   6.342   4.866 -1.1252  0.6120 -0.8588
  116MOL    H1237042   4.771   6.404   5.093  0.1630 -0.0408  0.9331
  116MOL    H1337043   4.677   6.308   5.275 -0.4495 -0.4141  0.2721
  116MOL    H1437044   4.477   6.140   5.253  3.7321 -0.1960  2.7492
  116MOL    H1537045   4.450   5.883   5.053 -0.2177  1.4047  1.0698
  116MOL    H1637046   4.415   5.931   4.878  0.1826 -1.3536  0.4262
  116MOL    H1737047   4.276   6.111   4.956 -2.6158  0.1777  1.7709
  116MOL    C1837048   4.252   5.832   5.004 -0.3311 -0.5198 -0.1308
  116MOL    C1937049   4.270   5.690   4.954 -0.0074  0.2717  0.1780
  116MOL    C2037050   4.238   5.582   5.035 -0.7656  0.2018  0.1311
  116MOL   Cl2137051   4.185   5.602   5.202  0.5294  0.3826  0.2830
  116MOL    C2237052   4.242   5.450   4.980 -0.1168  0.7792 -0.0802
  116MOL    C2337053   4.287   5.425   4.847 -0.4958 -0.3805 -0.3023
  116MOL    C2437054   4.317   5.535   4.766  0.1634  0.4135 -0.4151
  116MOL    C2537055   4.312   5.665   4.820 -1.0355  0.8884 -0.6544
  116MOL    C2637056   4.124   5.894   4.939  0.0630  0.0257 -0.2338
  116MOL    H2737057   4.248   5.831   5.113  0.0914 -0.5878 -0.1162
  116MOL    H2837058   4.204   5.369   5.040  2.0336 -0.3482 -0.1893
  116MOL    H2937059   4.278   5.333   4.792 -1.3082 -1.1642  1.1226
  116MOL    H3037060   4.350   5.525   4.664 -0.5715 -0.9901 -0.5299
  116MOL    H3137061   4.323   5.749   4.753 -0.2996  1.7031  0.4716
  116MOL    H3237062   4.142   5.909   4.833  0.4332  1.0948 -0.0250
  116MOL    H3337063   4.100   5.998   4.960  1.1411  0.2629 -0.1013
  116MOL    C3437064   3.989   5.814   4.956  0.8384  0.2843  0.3930
  116MOL    C3537065   3.892   5.847   4.840  0.1876 -0.2035 -0.0705
  116MOL    C3637066   3.821   5.741   4.775  0.5177  0.5521  0.2847
  116MOL   Cl3737067   3.862   5.574   4.789 -0.7063 -0.1209  0.2671
  116MOL    C3837068   3.719   5.767   4.682 -0.1020  0.2993  0.0217
  116MOL    C3937069   3.699   5.898   4.642 -0.4043  0.2400  0.7053
  116MOL    C4037070   3.768   6.012   4.690 -0.1823  0.4254 -0.3493
  116MOL    C4137071   3.866   5.980   4.792 -0.4577 -0.2372  0.1792
  116MOL    C4237072   3.928   5.832   5.099  0.3820 -0.4701 -0.0070
  116MOL    H4337073   4.022   5.711   4.951  0.1237  0.0482  0.4195
  116MOL    H4437074   3.660   5.693   4.632  0.6385  0.7230 -1.5147
  116MOL    H4537075   3.616   5.931   4.581 -0.6720 -0.3864  0.7302
  116MOL    H4637076   3.751   6.105   4.639  2.0209  0.6016 -0.7886
  116MOL    H4737077   3.937   6.053   4.827  0.1722  0.2252 -1.9854
  116MOL    H4837078   4.003   5.822   5.178  0.4053  1.1768  0.1814
  116MOL    H4937079   3.875   5.736   5.094  1.0183 -0.7945 -0.6201
  116MOL    C5037080   3.827   5.944   5.120  0.4331  0.0193  0.6897
  116MOL    C5137081   3.892   6.082   5.119  0.0994  0.4448 -0.1473
  116MOL    C5237082   3.833   6.202   5.064 -0.6014 -0.5915 -0.8180
  116MOL   Cl5337083   3.689   6.190   4.974 -0.3628 -0.1257  0.2840
  116MOL    C5437084   3.897   6.327   5.069  0.1134  0.4971 -0.2950
  116MOL    C5537085   4.017   6.339   5.146 -0.0528 -0.3527  0.0125
  116MOL    C5637086   4.073   6.226   5.209 -0.0642 -0.4626  0.6206
  116MOL    C5737087   4.011   6.100   5.191  0.1972 -0.7785 -0.4839
  116MOL    C5837088   3.739   5.928   5.246  0.1440 -0.0669 -0.4709
  116MOL    H5937089   3.756   5.944   5.037  1.4687 -1.1103 -0.1914
  116MOL    H6037090   3.847   6.411   5.022 -2.3749 -1.0338 -0.4727
  116MOL    H6137091   4.063   6.436   5.155  0.9598 -0.7207 -1.1074
  116MOL    H6237092   4.154   6.238   5.279 -1.4294 -0.2246  2.1948
  116MOL    H6337093   4.053   6.022   5.254  0.6368 -0.6436 -0.6058
  116MOL    H6437094   3.703   6.029   5.265 -0.9342 -0.6829  0.8047
  116MOL    H6537095   3.799   5.893   5.330 -0.5167 -0.8111 -0.3031
  116MOL    C6637096   3.630   5.811   5.234  0.0048 -0.2935 -0.2596
  116MOL    C6737097   3.564   5.785   5.093 -0.4347 -0.0080 -0.4543
  116MOL    C6837098   3.555   5.654   5.033 -0.0852 -0.4030 -0.0560
  116MOL   Cl6937099   3.625   5.519   5.100 -0.1271  0.2557 -0.0941
  116MOL    C7037100   3.479   5.641   4.912 -0.4391  0.3565 -0.2003
  116MOL    C7137101   3.425   5.753   4.850  0.1965 -0.6386  0.3456
  116MOL    C7237102   3.433   5.877   4.911 -0.3323 -0.0857  0.7342
  116MOL    C7337103   3.502   5.895   5.031 -0.7986  0.1054  0.4163
  116MOL    C7437104   3.514   5.849   5.326  0.1802  0.1453 -0.3842
  116MOL    H7537105   3.688   5.725   5.268 -0.8624 -0.7404  0.1159
  116MOL    H7637106   3.481   5.542   4.869  0.8098  0.5702 -0.6451
  116MOL    H7737107   3.380   5.738   4.753  1.3804  1.4054 -0.5571
  116MOL    H7837108   3.384   5.965   4.871 -0.8048 -1.0198 -0.7728
  116MOL    H7937109   3.506   5.985   5.090  0.3516  0.3152  0.0206
  116MOL    H8037110   3.426   5.788   5.303  0.6117 -0.4885 -0.3614
  116MOL    H8137111   3.475   5.948   5.303 -0.5230 -0.5709 -2.4134
  116MOL    C8237112   3.536   5.834   5.482 -0.2946 -1.1644 -0.0191
  116MOL    C8337113   3.598   5.696   5.507 -0.5606 -0.0311 -0.0500
  116MOL    C8437114   3.713   5.682   5.592 -0.5488  0.3547  0.9941
  116MOL   Cl8537115   3.785   5.805   5.686 -0.3430  0.3659 -0.3584
  116MOL    C8637116   3.765   5.549   5.603  0.3809  0.1371  0.5990
  116MOL    C8737117   3.718   5.441   5.527 -0.0157  0.2528 -0.4511
  116MOL    C8837118   3.602   5.461   5.452 -0.6530 -0.0178  0.7459
  116MOL    C8937119   3.547   5.587   5.437 -0.2173 -0.4426  0.3477
  116MOL    C9037120   3.403   5.860   5.571  0.5131 -0.4864  0.1665
  116MOL    H9137121   3.610   5.907   5.513 -0.1169 -1.6590  0.7386
  116MOL    H9237122   3.850   5.532   5.668  0.9235 -0.2122 -0.1975
  116MOL    H9337123   3.762   5.343   5.539  0.4850  0.6764  1.1858
  116MOL    H9437124   3.571   5.374   5.396  0.7397 -1.5019  2.1909
  116MOL    H9537125   3.471   5.585   5.360  1.1521 -2.9451 -1.0251
  116MOL    H9637126   3.406   5.782   5.646  0.6464  0.9050  1.6267
  116MOL    H9737127   3.317   5.839   5.507  0.9375  1.6779 -1.1925
  116MOL    C9837128   3.373   6.006   5.606  0.7493 -0.2718 -0.3503
  116MOL    C9937129   3.486   6.067   5.692 -0.1180  0.0596  0.2145
  116MOL   C10037130   3.587   6.143   5.626  0.3511 -0.0859  0.2510
  116MOL  Cl10137131   3.580   6.183   5.457  0.1705  0.3135 -0.2091
  116MOL   C10237132   3.699   6.184   5.703 -0.2154 -0.1087  0.7038
  116MOL   C10337133   3.714   6.166   5.844 -0.5518 -0.5477  0.2932
  116MOL   C10437134   3.611   6.092   5.904 -0.5255  0.9045  0.3037
  116MOL   C10537135   3.507   6.032   5.827 -0.2151  0.0311 -0.1989
  116MOL   C10637136   3.235   6.004   5.688 -0.4505 -0.4407 -0.4197
  116MOL   H10737137   3.361   6.058   5.511  0.1094  0.7494  0.2757
  116MOL   H10837138   3.789   6.224   5.658  1.1883 -0.5274  3.0159
  116MOL   H10937139   3.799   6.199   5.902 -0.6192 -3.7005  2.3614
  116MOL   H11037140   3.614   6.069   6.010 -0.3996  3.0888  0.7969
  116MOL   H11137141   3.431   5.975   5.877 -1.1455 -0.0014 -1.6324
  116MOL   H11237142   3.241   5.940   5.776  0.2575 -0.5265 -0.5308
  116MOL   H11337143   3.164   5.954   5.623 -1.6600  1.4052 -0.5655
  116MOL   C11437144   3.179   6.145   5.725 -0.0994  0.4528  0.0809
  116MOL   C11537145   3.080   6.152   5.843  0.2831  0.2501  0.0880
  116MOL   C11637146   3.093   6.250   5.938  0.0403  0.7183  0.7598
  116MOL  Cl11737147   3.221   6.362   5.932 -0.1801  0.0517  0.2577
  116MOL   C11837148   2.999   6.264   6.036  0.6449 -0.3875 -0.0039
  116MOL   C11937149   2.897   6.172   6.051 -0.3299  0.1170  0.5689
  116MOL   C12037150   2.881   6.070   5.958  0.1420 -0.2263 -0.0246
  116MOL   C12137151   2.975   6.061   5.849  0.6147  0.1913  0.6283
  116MOL   C12237152   3.109   6.216   5.599 -0.1817  0.6309 -0.2890
  116MOL   H12337153   3.272   6.188   5.762  0.9214 -1.1133 -0.6281
  116MOL   H12437154   3.021   6.341   6.110  0.1841 -1.0159  0.7875
  116MOL   H12537155   2.832   6.199   6.133 -0.9629  0.0063  0.1085
  116MOL   H12637156   2.801   6.000   5.973  0.6103 -0.5079  1.1774
  116MOL   H12737157   2.964   5.984   5.774  1.1361  1.0701 -0.3615
  116MOL   H12837158   3.003   6.197   5.614 -0.3551  2.3819  0.8191
  116MOL   H12937159   3.138   6.159   5.510  0.2904  1.1046 -0.4403
  116MOL   C13037160   3.135   6.365   5.587 -0.8180  0.5976 -0.0424
  116MOL   C13137161   3.033   6.448   5.512  0.1267  0.7762 -0.5002
  116MOL   C13237162   2.948   6.546   5.573 -0.2819  0.0869  0.6917
  116MOL  Cl13337163   2.942   6.579   5.741  0.0107  0.4078  0.2473
  116MOL   C13437164   2.858   6.623   5.493 -0.3671 -1.3676 -0.5804
  116MOL   C13537165   2.851   6.603   5.354 -0.5888 -0.4620  0.0916
  116MOL   C13637166   2.933   6.512   5.288 -0.8047  0.5819  0.4376
  116MOL   C13737167   3.027   6.433   5.370  0.0398  0.3840  0.3637
  116MOL   C13837168   3.279   6.392   5.537 -0.0831  0.1668 -0.6620
  116MOL   H13937169   3.135   6.411   5.686  2.1867  0.6786 -0.0581
  116MOL   H14037170   2.793   6.693   5.542 -0.2907 -0.2505 -2.0413
  116MOL   H14137171   2.792   6.669   5.292  0.3371 -0.5283 -0.8751
  116MOL   H14237172   2.930   6.507   5.180  0.2714  1.3929  0.3647
  116MOL   H14337173   3.109   6.379   5.326  1.0613  1.9114  0.3854
  116MOL   H14437174   3.279   6.328   5.449  1.0079  0.1343 -0.6415
  116MOL   H14537175   3.358   6.359   5.605  2.3212  1.6221 -2.6708
  116MOL   C14637176   3.321   6.536   5.482  0.4010 -1.0220  0.3786
  116MOL   C14737177   3.457   6.540   5.426  0.0226 -0.0771 -0.2335
  116MOL   C14837178   3.485   6.535   5.286 -0.1269  0.5209 -1.0957
  116MOL  Cl14937179   3.366   6.519   5.163  0.3930  0.1647 -0.0876
  116MOL   C15037180   3.619   6.521   5.249 -0.6889 -0.4653 -0.6280
  116MOL   C15137181   3.719   6.522   5.345 -0.1351  0.1591  0.3449
  116MOL   C15237182   3.694   6.542   5.476 -0.1424 -0.2358  0.5442
  116MOL   C15337183   3.564   6.546   5.522  0.0230 -0.0269 -0.6254
  116MOL   C15437184   3.291   6.654   5.581  0.0754  0.7759 -0.5666
  116MOL   H15537185   3.260   6.548   5.392  1.0412 -0.4076  0.0222
  116MOL   H15637186   3.642   6.522   5.143 -2.8748  2.0996 -1.1370
  116MOL   H15737187   3.821   6.514   5.311 -0.0664  0.2899  0.5211
  116MOL   H15837188   3.782   6.548   5.539 -0.3119  0.9112  0.6706
  116MOL   H15937189   3.540   6.556   5.627  1.2864  0.8444 -0.4099
  116MOL   H16037190   3.359   6.661   5.666 -1.0587 -0.5768  0.4692
  116MOL   H16137191   3.197   6.644   5.636 -0.0063  1.1203 -0.6419
  116MOL   C16237192   3.286   6.794   5.501  0.4971  0.4946  0.4263
  116MOL   C16337193   3.276   6.908   5.602 -0.3629 -0.3990  0.3983
  116MOL   C16437194   3.390   6.964   5.657 -0.5659 -0.0048  0.2797
  116MOL  Cl16537195   3.543   6.891   5.617 -0.3733 -0.4435  0.2518
  116MOL   C16637196   3.381   7.069   5.751  0.1354 -0.4011 -0.4842
  116MOL   C16737197   3.257   7.104   5.803 -0.4517 -0.6072 -0.0326
  116MOL   C16837198   3.135   7.048   5.746 -0.7108 -0.0962  0.3140
  116MOL   C16937199   3.147   6.950   5.646  0.1259 -0.1248  0.3980
  116MOL   C17037200   3.191   6.800   5.373 -0.5245  0.0677  0.0654
  116MOL   H17137201   3.383   6.801   5.452  0.7295  2.0852  1.0942
  116MOL   H17237202   3.472   7.106   5.795 -0.4013 -2.0275  2.1080
  116MOL   H17337203   3.247   7.176   5.883  2.6626 -0.5797  0.3937
  116MOL   H17437204   3.040   7.092   5.771 -0.2730  0.4169  1.0809
  116MOL   H17537205   3.061   6.912   5.593  0.8391  2.1165 -2.5451
  116MOL   H17637206   3.088   6.791   5.407 -0.7422 -2.5054 -1.1353
  116MOL   H17737207   3.199   6.717   5.302  1.6867  1.2862 -1.1574
  116MOL   C17837208   3.181   6.939   5.298  0.3308  0.1094 -0.0514
  116MOL   C17937209   3.043   6.970   5.245 -0.6523 -0.2337  0.6182
  116MOL   C18037210   2.965   7.072   5.296  0.7988  0.5320 -0.9920
  116MOL  Cl18137211   3.022   7.170   5.431  0.2060  0.0497  0.1715
  116MOL   C18237212   2.837   7.099   5.239  0.3145  0.1776 -0.6308
  116MOL   C18337213   2.791   7.028   5.127  0.3592 -0.5207 -0.0463
  116MOL   C18437214   2.866   6.919   5.081  0.0339 -0.1488 -0.5507
  116MOL   C18537215   2.995   6.890   5.137  1.2110 -0.4971  0.2118
  116MOL   C18637216   3.294   6.951   5.190  0.1448 -0.3258 -0.5413
  116MOL   H18737217   3.198   7.010   5.380 -1.1862 -2.1821  2.3266
  116MOL   H18837218   2.787   7.187   5.274 -0.1165 -0.3455  0.0721
  116MOL   H18937219   2.696   7.059   5.087 -0.2079 -1.3072  0.7042
  116MOL   H19037220   2.821   6.854   5.007  1.9903 -2.8808  0.5819
  116MOL   H19137221   3.048   6.808   5.092 -0.2242  0.5200 -3.4477
  116MOL   H19237222   3.292   6.854   5.139 -0.3446 -1.4287  1.5073
  116MOL   H19337223   3.391   6.945   5.240  1.3044 -0.5000 -2.7841
  116MOL   C19437224   3.302   7.092   5.111 -0.0439 -0.5343  0.6062
  116MOL   C19537225   3.378   7.072   4.987  0.6656 -0.6693  0.4967
  116MOL   C19637226   3.324   7.048   4.857 -0.9575 -0.8861  0.5574
  116MOL  Cl19737227   3.158   7.025   4.823 -0.1753 -0.0934  0.1311
  116MOL   C19837228   3.415   7.025   4.753  0.7250 -0.2611  1.1145
  116MOL   C19937229   3.552   7.027   4.768 -0.4506 -0.1400 -0.5209
  116MOL   C20037230   3.609   7.062   4.888  0.4426  0.6747  0.0481
  116MOL   C20137231   3.520   7.085   4.999 -0.6906 -0.9183 -0.4559
  116MOL   C20237232   3.351   7.209   5.206 -0.0473 -0.1919 -0.2774
  116MOL   H20337233   3.201   7.123   5.085  0.4659  0.6761  0.0151
  116MOL   H20437234   3.379   7.002   4.654  2.3013 -0.2164  0.5118
  116MOL   H20537235   3.621   7.010   4.688 -0.3866 -2.7860  0.0410
  116MOL   H20637236   3.715   7.065   4.908  0.7417 -2.5938 -0.7330
  116MOL   H20737237   3.570   7.106   5.092  0.6059 -2.1349 -0.8393
  116MOL   H20837238   3.448   7.188   5.250 -0.9299 -1.2551  1.2182
  116MOL   H20937239   3.283   7.220   5.291  0.1348 -0.4145 -0.1008
  116MOL   C21037240   3.358   7.348   5.137 -0.2899 -0.0338  0.0646
  116MOL   C21137241   3.415   7.446   5.239 -0.3982  0.0621 -0.5672
  116MOL   C21237242   3.556   7.466   5.250  0.5553 -0.5350 -0.3369
  116MOL  Cl21337243   3.670   7.394   5.147  0.1588 -0.1917 -0.2246
  116MOL   C21437244   3.605   7.556   5.349  0.0672  0.5637  0.2771
  116MOL   C21537245   3.517   7.615   5.440  0.1926 -0.0753 -0.8860
  116MOL   C21637246   3.381   7.598   5.428 -0.2764  0.1792 -0.2920
  116MOL   C21737247   3.326   7.515   5.333  0.6913  0.9663  0.8175
  116MOL   C21837248   3.224   7.397   5.076 -0.1924 -1.0627  0.7930
  116MOL   H21937249   3.428   7.346   5.054 -1.6700  0.3686 -1.1348
  116MOL   H22037250   3.712   7.575   5.355  0.6174 -2.8654  2.5900
  116MOL   H22137251   3.555   7.684   5.514  0.3244 -0.2972 -0.7467
  116MOL   H22237252   3.319   7.639   5.506  1.3095  1.7284  0.1768
  116MOL   H22337253   3.219   7.501   5.326  0.9167 -0.9525  0.9325
  116MOL   H22437254   3.143   7.360   5.139 -2.2030 -2.2937 -2.4149
  116MOL   H22537255   3.227   7.334   4.988  1.5319  0.8201 -0.5332
  116MOL   C22637256   3.206   7.541   5.022 -0.0035  0.6910 -0.0706
  116MOL   C22737257   3.149   7.647   5.118  0.0346  0.1858 -0.2422
  116MOL   C22837258   3.216   7.769   5.147 -0.5772  0.2792 -0.3534
  116MOL  Cl22937259   3.380   7.805   5.089 -0.4612  0.3601  0.0056
  116MOL   C23037260   3.151   7.864   5.224 -0.5135 -0.4126  0.1990
  116MOL   C23137261   3.018   7.850   5.265 -0.0061  0.2373  0.3072
  116MOL   C23237262   2.952   7.729   5.240  0.1386 -0.2537  1.0255
  116MOL   C23337263   3.013   7.635   5.156 -0.1788  0.0461 -0.2775
  116MOL   C23437264   3.104   7.524   4.903  0.5328  0.4411 -0.0046
  116MOL   H23537265   3.300   7.577   4.979 -0.8855 -0.2204 -2.8094
  116MOL   H23637266   3.199   7.960   5.241 -0.8218 -0.3498  0.7123
  116MOL   H23737267   2.965   7.929   5.316  0.7235 -0.1134  1.6255
  116MOL   H23837268   2.854   7.716   5.284 -0.2784  0.8119  0.4476
  116MOL   H23937269   2.970   7.539   5.135  1.9784 -1.1941  0.7971
  116MOL   H24037270   3.049   7.618   4.889  1.2032  0.9411  0.6800
  116MOL   H24137271   3.015   7.465   4.925 -0.4775  1.1612 -2.0514
  116MOL   C24237272   3.163   7.495   4.764 -0.4958  0.2600  0.0032
  116MOL   C24337273   3.272   7.596   4.730  0.3868  0.6532 -0.4120
  116MOL   C24437274   3.409   7.556   4.710 -0.9790 -0.3887 -0.4126
  116MOL  Cl24537275   3.452   7.398   4.681 -0.0936  0.0073 -0.1794
  116MOL   C24637276   3.507   7.657   4.691  0.3480 -0.6375 -0.2241
  116MOL   C24737277   3.468   7.794   4.695  0.2840 -0.1962 -0.3862
  116MOL   C24837278   3.337   7.838   4.707  0.6102 -0.1406  0.5300
  116MOL   C24937279   3.237   7.732   4.716 -1.0003 -0.2168 -0.0755
  116MOL   C25037280   3.046   7.497   4.666 -0.6169 -0.5415  0.0297
  116MOL   H25137281   3.213   7.398   4.762  0.1391  0.5763  0.1840
  116MOL   H25237282   3.612   7.641   4.673  1.4079 -0.4149  4.9312
  116MOL   H25337283   3.551   7.862   4.688  1.3353 -1.4035  0.2667
  116MOL   H25437284   3.321   7.945   4.707 -0.7548 -0.2573 -3.8027
  116MOL   H25537285   3.137   7.771   4.728 -1.1949 -0.1409 -1.7758
  116MOL   H25637286   3.007   7.599   4.666  0.5063 -0.1028  0.9330
  116MOL   H25737287   2.958   7.442   4.701 -0.9142  1.4139  2.5320
  116MOL   C25837288   3.088   7.465   4.523  0.5015  0.6538 -0.3961
  116MOL   C25937289   3.016   7.554   4.416 -0.3501 -0.2050 -0.6022
  116MOL   C26037290   3.089   7.643   4.330  0.1987  0.1031 -0.1288
  116MOL  Cl26137291   3.260   7.663   4.337 -0.2132 -0.1115 -0.2241
  116MOL   C26237292   3.020   7.711   4.223  0.0881 -0.6514 -0.1973
  116MOL   C26337293   2.884   7.693   4.199 -0.5585 -0.4924  0.4329
  116MOL   C26437294   2.815   7.604   4.286 -0.6319  0.4915  0.2728
  116MOL   C26537295   2.883   7.530   4.389  0.3961 -0.3432  0.0753
  116MOL   C26637296   3.072   7.314   4.493  0.0481  0.1925  0.0370
  116MOL   H26737297   3.191   7.499   4.514  1.7124 -3.1501 -1.5673
  116MOL   H26837298   3.077   7.786   4.170 -0.5935 -0.0268 -0.0642
  116MOL   H26937299   2.820   7.740   4.126  0.4464 -0.1326 -0.2372
  116MOL   H27037300   2.710   7.585   4.267 -0.6821 -0.2741  1.2752
  116MOL   H27137301   2.818   7.458   4.437 -2.4986  1.0938 -1.5759
  116MOL   H27237302   2.965   7.295   4.495 -0.0964  0.8359 -1.2461
  116MOL   H27337303   3.118   7.255   4.573  0.5545 -1.1641 -1.2395
  116MOL   C27437304   3.134   7.268   4.363 -0.2663  0.1649  1.0516
  116MOL   C27537305   3.090   7.117   4.335  0.0985 -0.2173  0.5790
  116MOL   C27637306   2.991   7.082   4.241 -0.4854  0.3078  0.1539
  116MOL  Cl27737307   2.910   7.200   4.140 -0.2574 -0.1977 -0.0631
  116MOL   C27837308   2.949   6.946   4.232 -0.0017 -0.8960  0.2109
  116MOL   C27937309   3.008   6.849   4.316  0.6093  0.3353 -0.4346
  116MOL   C28037310   3.106   6.882   4.409 -0.0829  0.6347 -0.0959
  116MOL   C28137311   3.142   7.018   4.421 -0.4552  0.1526  0.1996
  116MOL   C28237312   3.287   7.281   4.369  0.4435  1.1448 -0.2442
  116MOL   H28337313   3.095   7.333   4.285 -0.8318 -2.6160 -1.0462
  116MOL   H28437314   2.876   6.912   4.160 -1.9182  1.1694  1.1049
  116MOL   H28537315   2.978   6.746   4.297  0.7442  0.0380  0.9407
  116MOL   H28637316   3.154   6.813   4.476 -1.9021  1.3717  2.0455
  116MOL   H28737317   3.216   7.037   4.498 -0.7393  0.0917  0.4865
  116MOL   H28837318   3.320   7.229   4.458 -1.8696 -1.7770 -1.0121
  116MOL   H28937319   3.320   7.385   4.373  3.0199  0.4381 -1.7903
  116MOL   C29037320   3.372   7.223   4.253 -0.0484 -0.2924  0.5616
  116MOL   C29137321   3.513   7.236   4.285 -0.5027 -0.2165  0.2115
  116MOL   C29237322   3.585   7.128   4.343 -0.2022 -0.3865 -0.1400
  116MOL  Cl29337323   3.499   6.986   4.391 -0.5348 -0.5563  0.1475
  116MOL   C29437324   3.724   7.132   4.390  0.7615  0.1348  0.3991
  116MOL   C29537325   3.779   7.256   4.388 -0.1333  0.1154  0.2396
  116MOL   C29637326   3.718   7.367   4.332 -0.5351  0.5484  0.7164
  116MOL   C29737327   3.582   7.360   4.285 -0.2235 -0.2882  0.8104
  116MOL   C29837328   3.327   7.309   4.132 -0.3248 -0.0438 -0.2270
  116MOL   H29937329   3.333   7.122   4.237 -0.9722  0.3768 -1.6981
  116MOL   H30037330   3.779   7.047   4.426  2.0663  0.8541  0.1328
  116MOL   H30137331   3.881   7.268   4.423 -0.0388 -0.5921  0.2062
  116MOL   H30237332   3.781   7.455   4.332  0.4421 -0.1425 -0.4978
  116MOL   H30337333   3.535   7.448   4.242 -0.8252 -0.4700  1.0885
  116MOL   H30437334   3.322   7.416   4.154 -1.7629 -0.2741  0.6553
  116MOL   H30537335   3.234   7.265   4.096  0.3558 -1.7094 -0.0246
  116MOL   C30637336   3.428   7.298   4.009  1.4715 -0.0212  0.1583
  116MOL   C30737337   3.364   7.365   3.883 -0.9048 -0.3218  0.0710
  116MOL   C30837338   3.398   7.498   3.828 -0.1780  0.2037 -0.5182
  116MOL  Cl30937339   3.513   7.612   3.896  0.2460  0.0980 -0.1430
  116MOL   C31037340   3.324   7.543   3.716  0.6875 -0.2078  0.6141
  116MOL   C31137341   3.229   7.467   3.648  0.0492  0.0087  0.0424
  116MOL   C31237342   3.202   7.339   3.695  0.7290 -0.5242  0.4406
  116MOL   C31337343   3.268   7.287   3.809 -0.1241  0.7274 -0.0398
  116MOL   C31437344   3.472   7.156   3.977 -0.1569  0.4340 -0.1678
  116MOL   H31537345   3.519   7.355   4.027  1.3160  0.3271 -0.1580
  116MOL   H31637346   3.358   7.633   3.666 -1.5436  0.0887 -0.3985
  116MOL   H31737347   3.189   7.502   3.554 -0.0496  0.8381  0.3933
  116MOL   H31837348   3.126   7.281   3.643  0.1006  1.5795 -1.0804
  116MOL   H31937349   3.241   7.190   3.848 -2.5389  1.2998 -0.1861
  116MOL   H32037350   3.523   7.161   3.881  1.0734  0.4491  0.4690
  116MOL   H32137351   3.395   7.080   3.989 -0.5624  0.7498 -0.7890
  116MOL   H32237352   3.538   7.111   4.051 -1.2257 -1.5884 -0.4099
  117MOL     C137353   3.649   1.442   4.344  0.1439 -0.0206 -0.6444
  117MOL     C237354   3.653   1.289   4.347 -0.1561  0.8987  0.8627
  117MOL     C337355   3.578   1.210   4.254  0.6262  0.3689  0.4439
  117MOL    Cl437356   3.471   1.296   4.140 -0.0532 -0.0703  0.0113
  117MOL     C537357   3.585   1.076   4.249 -0.5892 -0.5011 -0.8998
  117MOL     C637358   3.667   1.003   4.340  0.1033  0.2256 -1.5089
  117MOL     C737359   3.744   1.078   4.434 -0.0911 -0.4146  0.0618
  117MOL     C837360   3.730   1.219   4.438  0.2382 -0.6701 -0.3065
  117MOL     C937361   3.768   1.503   4.264 -0.9774 -0.6883  0.1940
  117MOL    H1037362   3.550   1.472   4.312 -0.2159  0.9743  1.3489
  117MOL    H1137363   3.526   1.034   4.168  1.3152 -1.1148 -2.0158
  117MOL    H1237364   3.673   0.896   4.332  2.8773  0.2193  0.1360
  117MOL    H1337365   3.814   1.033   4.503 -0.7667  1.0443  1.7318
  117MOL    H1437366   3.790   1.272   4.510 -1.6949  0.2490  0.6555
  117MOL    H1537367   3.748   1.486   4.159 -0.9871  0.7949 -0.0571
  117MOL    H1637368   3.859   1.445   4.279 -1.2875 -0.8585  1.4888
  117MOL    H1737369   3.638   1.483   4.445 -1.2940  2.2885 -1.7114
  117MOL    C1837370   3.788   1.650   4.287 -0.0903 -0.6846  0.4985
  117MOL    C1937371   3.661   1.729   4.244  0.2220 -0.2688  0.3816
  117MOL    C2037372   3.589   1.818   4.328 -0.1122  0.0289 -0.5089
  117MOL   Cl2137373   3.634   1.848   4.489  0.0847 -0.0574  0.7004
  117MOL    C2237374   3.475   1.885   4.287 -0.6107  0.1304 -0.5328
  117MOL    C2337375   3.432   1.886   4.154 -0.0004  0.0428  0.5432
  117MOL    C2437376   3.500   1.801   4.066 -0.5377 -0.4397  0.6127
  117MOL    C2537377   3.614   1.724   4.106  0.1934 -0.0578  0.2302
  117MOL    C2637378   3.912   1.689   4.202 -0.6054 -0.1458 -0.2637
  117MOL    H2737379   3.818   1.669   4.390  0.3093  0.2579  0.2020
  117MOL    H2837380   3.418   1.951   4.350  2.1936  2.3099 -0.1289
  117MOL    H2937381   3.339   1.931   4.121 -0.1767 -0.5831  0.1647
  117MOL    H3037382   3.459   1.813   3.967  1.8656  2.8909 -0.0676
  117MOL    H3137383   3.666   1.657   4.039  1.0825  0.0162  0.8381
  117MOL    H3237384   3.896   1.646   4.103  1.1591  0.1205 -0.6652
  117MOL    H3337385   4.002   1.646   4.246  0.8825  0.0930 -2.9665
  117MOL    C3437386   3.951   1.834   4.184  0.9716 -0.1422 -0.1657
  117MOL    C3537387   4.044   1.851   4.066 -0.2795  0.0936  0.2656
  117MOL    C3637388   3.991   1.890   3.940  0.4060 -0.3469 -0.4398
  117MOL   Cl3737389   3.824   1.926   3.907 -0.1092 -0.0305  0.2525
  117MOL    C3837390   4.088   1.922   3.843  0.0109 -0.4598  0.6539
  117MOL    C3937391   4.228   1.901   3.869  0.2191  0.3056 -0.3438
  117MOL    C4037392   4.276   1.842   3.989 -0.3336  0.7488  0.3324
  117MOL    C4137393   4.178   1.816   4.092 -0.0947 -0.4328  1.3550
  117MOL    C4237394   3.996   1.902   4.320  0.0533 -0.0486 -0.1504
  117MOL    H4337395   3.862   1.891   4.155 -0.9081 -1.8572  1.9953
  117MOL    H4437396   4.066   1.962   3.745 -2.8843  0.3309  1.5841
  117MOL    H4537397   4.297   1.923   3.789  3.3809 -1.4399  1.7792
  117MOL    H4637398   4.381   1.823   4.006 -0.7841 -2.5971 -0.1470
  117MOL    H4737399   4.210   1.780   4.188  0.9060  1.1232  1.6313
  117MOL    H4837400   4.091   1.859   4.350 -0.3966  0.2865  1.7811
  117MOL    H4937401   3.923   1.871   4.395  1.2222  0.6443  1.2891
  117MOL    C5037402   4.022   2.052   4.330 -0.4324  0.6283 -0.3356
  117MOL    C5137403   4.098   2.102   4.453  0.5968  0.3697 -0.8078
  117MOL    C5237404   4.224   2.166   4.447 -0.2106 -0.0823 -0.6637
  117MOL   Cl5337405   4.310   2.185   4.301  0.1698 -0.6533 -0.0184
  117MOL    C5437406   4.275   2.224   4.569  0.4286 -0.4571  0.3883
  117MOL    C5537407   4.202   2.214   4.691  0.3790  0.0247  0.4684
  117MOL    C5637408   4.088   2.137   4.695 -0.2096  0.1422  0.0484
  117MOL    C5737409   4.031   2.091   4.576 -0.0486 -0.1503 -0.1387
  117MOL    C5837410   3.894   2.128   4.305  0.6496 -0.3733 -0.2048
  117MOL    H5937411   4.087   2.059   4.243  2.7621 -0.5862  1.8257
  117MOL    H6037412   4.356   2.295   4.570  1.3313 -1.4947  1.5282
  117MOL    H6137413   4.237   2.256   4.784 -0.1453 -1.1307  1.2054
  117MOL    H6237414   4.039   2.122   4.790 -0.9221  1.9728 -0.0323
  117MOL    H6337415   3.938   2.037   4.586 -1.7103  2.3224 -1.6712
  117MOL    H6437416   3.877   2.193   4.391  1.2969  1.0167 -1.1088
  117MOL    H6537417   3.808   2.063   4.326 -0.8934  2.2083  1.8467
  117MOL    C6637418   3.885   2.203   4.164  0.0865 -0.0107 -0.3632
  117MOL    C6737419   3.955   2.342   4.160 -0.5901 -0.0395 -0.0410
  117MOL    C6837420   4.070   2.366   4.084 -0.2479 -0.1650 -0.5870
  117MOL   Cl6937421   4.136   2.256   3.959 -0.2711  0.5159 -0.4143
  117MOL    C7037422   4.142   2.489   4.094  0.0753  0.2178  0.0230
  117MOL    C7137423   4.102   2.589   4.182  0.4443 -0.6944  0.3490
  117MOL    C7237424   3.980   2.570   4.254  0.2208  0.3616  0.0962
  117MOL    C7337425   3.915   2.446   4.245  0.1650  0.4452 -0.4126
  117MOL    C7437426   3.738   2.221   4.113  0.9575 -0.3363  0.0323
  117MOL    H7537427   3.938   2.134   4.098 -1.1333 -1.0179 -0.3255
  117MOL    H7637428   4.226   2.509   4.029 -0.1752 -0.9644 -0.6680
  117MOL    H7737429   4.155   2.683   4.189 -0.2689 -0.0708 -2.1686
  117MOL    H7837430   3.949   2.647   4.323 -0.1612  1.3526 -1.1718
  117MOL    H7937431   3.825   2.428   4.301  0.6759  0.6545  0.4842
  117MOL    H8037432   3.681   2.265   4.195  3.2301  0.6047  1.1597
  117MOL    H8137433   3.682   2.129   4.096 -1.7539  1.6455 -2.0174
  117MOL    C8237434   3.707   2.306   3.991  0.2766  0.4298  0.4572
  117MOL    C8337435   3.559   2.318   3.962  0.0563  0.1982 -0.1136
  117MOL    C8437436   3.482   2.439   3.989 -0.3643  0.4382 -0.1462
  117MOL   Cl8537437   3.537   2.556   4.097  0.0230 -0.1225  0.1560
  117MOL    C8637438   3.350   2.455   3.948  0.8726 -0.0143  0.0148
  117MOL    C8737439   3.294   2.351   3.880  0.9054  0.5270  0.3132
  117MOL    C8837440   3.361   2.234   3.846  0.2170 -0.4762 -0.2906
  117MOL    C8937441   3.493   2.213   3.881 -0.5124  0.5549 -0.2090
  117MOL    C9037442   3.787   2.278   3.860  0.0274 -0.6157  0.2300
  117MOL    H9137443   3.736   2.408   4.016 -2.9175  1.0171  2.0063
  117MOL    H9237444   3.289   2.542   3.966  0.3544  0.2850 -2.8569
  117MOL    H9337445   3.190   2.360   3.853  1.3890  0.3909 -1.6727
  117MOL    H9437446   3.300   2.161   3.795 -0.7491 -0.2248  0.4972
  117MOL    H9537447   3.528   2.115   3.851 -1.8528  0.6820 -2.3084
  117MOL    H9637448   3.737   2.212   3.790 -0.1144 -0.6532  0.3672
  117MOL    H9737449   3.880   2.224   3.879  0.5869  0.2437 -0.0597
  117MOL    C9837450   3.832   2.403   3.790  0.6134  0.0363 -0.1600
  117MOL    C9937451   3.722   2.498   3.742 -0.1054 -0.0473  0.1671
  117MOL   C10037452   3.700   2.629   3.793 -0.2302  0.0852  1.0503
  117MOL  Cl10137453   3.803   2.705   3.906  0.5928  0.8603 -0.0043
  117MOL   C10237454   3.588   2.711   3.761 -0.1563 -0.5530 -0.0036
  117MOL   C10337455   3.504   2.667   3.658 -0.0085 -0.3433  0.2774
  117MOL   C10437456   3.526   2.543   3.598  0.0356  0.5584  0.8527
  117MOL   C10537457   3.632   2.459   3.641  0.5276  0.1046 -0.5483
  117MOL   C10637458   3.918   2.367   3.666  0.4406  0.7754  0.3538
  117MOL   H10737459   3.895   2.461   3.858  0.1527 -2.1255  2.1907
  117MOL   H10837460   3.568   2.808   3.804  0.5883  0.4225 -1.8264
  117MOL   H10937461   3.415   2.724   3.635 -0.7137 -1.1270  0.9926
  117MOL   H11037462   3.463   2.495   3.525  0.1349 -0.6010  1.5114
  117MOL   H11137463   3.624   2.360   3.600 -3.1985  0.7042 -1.5239
  117MOL   H11237464   3.857   2.317   3.591  2.8245 -2.8655  0.7371
  117MOL   H11337465   3.987   2.291   3.702 -0.3603 -0.1013  0.0442
  117MOL   C11437466   3.988   2.488   3.615 -0.3546  1.0011 -0.1440
  117MOL   C11537467   4.048   2.459   3.481  0.4408 -0.5984 -0.7029
  117MOL   C11637468   3.993   2.503   3.358  0.7408 -0.0721  0.5935
  117MOL  Cl11737469   3.843   2.578   3.355  0.1251 -0.1962  0.1009
  117MOL   C11837470   4.056   2.482   3.236 -0.6142 -0.1158 -0.2244
  117MOL   C11937471   4.172   2.406   3.234 -0.4458  0.0299  0.2761
  117MOL   C12037472   4.230   2.364   3.355 -0.2769 -0.7028  0.1804
  117MOL   C12137473   4.168   2.389   3.479  0.2199 -0.1195 -0.2829
  117MOL   C12237474   4.082   2.567   3.709 -0.7140 -0.1661  0.0353
  117MOL   H12337475   3.906   2.557   3.596  0.1855  1.4400 -0.9355
  117MOL   H12437476   4.010   2.511   3.142 -2.3258  1.2211  1.0078
  117MOL   H12537477   4.217   2.378   3.140 -0.0037 -1.9426  1.0589
  117MOL   H12637478   4.325   2.313   3.355 -0.2890 -0.7506  1.6178
  117MOL   H12737479   4.217   2.358   3.569 -0.6403  0.4821  0.4018
  117MOL   H12837480   4.160   2.509   3.759  1.2348  3.4561  1.3867
  117MOL   H12937481   4.035   2.608   3.799  1.8853  1.7010  0.6034
  117MOL   C13037482   4.167   2.684   3.652 -0.0534  0.0250  0.4053
  117MOL   C13137483   4.286   2.727   3.742  0.5828 -0.0570 -0.0471
  117MOL   C13237484   4.414   2.668   3.738  0.8463 -0.0811  0.1111
  117MOL  Cl13337485   4.457   2.551   3.619 -0.1748 -0.1531  0.0255
  117MOL   C13437486   4.514   2.726   3.819 -0.1543 -0.3322  1.1674
  117MOL   C13537487   4.483   2.815   3.921  0.2415  0.3443 -0.1436
  117MOL   C13637488   4.353   2.862   3.942  0.0730 -0.5724  0.3856
  117MOL   C13737489   4.254   2.809   3.858 -0.3633 -0.8263  0.0563
  117MOL   C13837490   4.086   2.803   3.596 -0.3676 -0.4026 -0.6936
  117MOL   H13937491   4.213   2.644   3.562 -0.2630  0.9012 -0.0984
  117MOL   H14037492   4.612   2.679   3.814  0.1985  0.3094  1.9716
  117MOL   H14137493   4.567   2.853   3.978 -0.0280  1.0541 -0.2081
  117MOL   H14237494   4.334   2.933   4.022  0.8824  0.6885 -0.5146
  117MOL   H14337495   4.154   2.845   3.876 -0.8494 -2.3589  0.4333
  117MOL   H14437496   4.041   2.854   3.681 -1.2708 -0.2255 -1.2617
  117MOL   H14537497   4.007   2.750   3.542 -1.1327 -1.2007  1.1406
  117MOL   C14637498   4.147   2.907   3.494  0.3857 -0.2750 -1.1060
  117MOL   C14737499   4.240   2.853   3.386 -0.1716 -0.0789 -0.6752
  117MOL   C14837500   4.190   2.827   3.255  0.9535  0.0430 -0.1664
  117MOL  Cl14937501   4.022   2.854   3.222 -0.1131 -0.3099  0.1354
  117MOL   C15037502   4.274   2.785   3.153 -0.5759 -0.0226  0.0691
  117MOL   C15137503   4.413   2.760   3.183  0.3326  0.4267  0.5018
  117MOL   C15237504   4.459   2.779   3.316 -0.3472 -0.7475 -0.6137
  117MOL   C15337505   4.373   2.827   3.416 -0.2288 -0.2616 -0.3503
  117MOL   C15437506   4.199   3.041   3.551  0.7749  0.1190  0.3294
  117MOL   H15537507   4.051   2.938   3.452  0.0826 -0.3665 -0.4812
  117MOL   H15637508   4.244   2.771   3.051 -1.2003  3.1229 -0.2362
  117MOL   H15737509   4.481   2.718   3.111  0.0987  0.2114  0.4043
  117MOL   H15837510   4.565   2.764   3.331  0.1593  1.9888 -1.3104
  117MOL   H15937511   4.410   2.844   3.516 -0.1746 -0.8574 -0.2667
  117MOL   H16037512   4.282   3.028   3.622  2.1625  0.6273 -1.1687
  117MOL   H16137513   4.121   3.089   3.610  0.2848 -0.6577  0.3098
  117MOL   C16237514   4.242   3.143   3.441  0.0674  0.3928  0.1100
  117MOL   C16337515   4.305   3.270   3.501  0.1441  0.2445 -0.2477
  117MOL   C16437516   4.435   3.319   3.469  0.1525 -0.2876  0.5184
  117MOL  Cl16537517   4.529   3.243   3.344  0.0545 -0.2050  0.1862
  117MOL   C16637518   4.487   3.430   3.537 -0.2158 -0.2620  0.5435
  117MOL   C16737519   4.412   3.501   3.632  0.3342  0.4000 -0.2423
  117MOL   C16837520   4.279   3.457   3.659  0.4376 -0.2036 -0.3186
  117MOL   C16937521   4.233   3.339   3.599  0.3106 -0.1572  0.3628
  117MOL   C17037522   4.144   3.180   3.328  0.2999  0.4072  0.5947
  117MOL   H17137523   4.320   3.083   3.395  2.9316  3.2613  1.0445
  117MOL   H17237524   4.592   3.455   3.525 -1.2783  3.6051 -1.6225
  117MOL   H17337525   4.452   3.582   3.690  0.8855 -0.1532  0.1626
  117MOL   H17437526   4.210   3.498   3.732 -1.4606 -1.5147 -1.3355
  117MOL   H17537527   4.139   3.301   3.635  0.6658 -0.5482  0.8965
  117MOL   H17637528   4.078   3.261   3.358  0.8336  1.3127 -0.6621
  117MOL   H17737529   4.075   3.098   3.311 -1.4116  2.0130 -0.3723
  117MOL   C17837530   4.190   3.242   3.186  1.0567  0.7007  0.6401
  117MOL   C17937531   4.073   3.290   3.100 -0.1894 -0.5323  0.7404
  117MOL   C18037532   4.063   3.423   3.060 -0.0665 -0.2591 -0.3749
  117MOL  Cl18137533   4.181   3.548   3.095  0.5006  0.1026 -0.1152
  117MOL   C18237534   3.949   3.466   2.983 -0.0992  0.3696  0.5820
  117MOL   C18337535   3.850   3.373   2.945 -0.4591 -0.1469  0.5827
  117MOL   C18437536   3.872   3.239   2.975  0.0790  0.6197 -0.5369
  117MOL   C18537537   3.972   3.201   3.064 -0.0974 -0.7564  0.1574
  117MOL   C18637538   4.278   3.142   3.107 -0.6291  0.0532  0.6005
  117MOL   H18737539   4.259   3.326   3.192  1.5904  0.2716  0.5988
  117MOL   H18837540   3.936   3.567   2.948  0.6294  0.1811 -0.2257
  117MOL   H18937541   3.775   3.407   2.876  0.5572  1.4954  0.2687
  117MOL   H19037542   3.794   3.172   2.941 -1.9492  2.9348 -0.6069
  117MOL   H19137543   3.972   3.095   3.087  1.3451 -0.7814  0.1212
  117MOL   H19237544   4.217   3.061   3.067  0.5197 -0.1199 -0.8417
  117MOL   H19337545   4.340   3.085   3.177  3.3314 -0.3756 -3.0355
  117MOL   C19437546   4.375   3.189   2.998 -0.3487 -0.1668 -0.7818
  117MOL   C19537547   4.313   3.209   2.855  0.0172  0.1676  0.4663
  117MOL   C19637548   4.342   3.328   2.789 -0.1829 -0.5789 -0.1665
  117MOL  Cl19737549   4.419   3.467   2.867  0.1686 -0.1349  0.1557
  117MOL   C19837550   4.292   3.342   2.655 -0.5978  0.3224 -0.2193
  117MOL   C19937551   4.231   3.239   2.584 -0.2702 -0.1074 -0.1347
  117MOL   C20037552   4.213   3.123   2.653 -0.0428 -1.2503 -0.2857
  117MOL   C20137553   4.251   3.105   2.788  0.2494  0.1674 -0.3217
  117MOL   C20237554   4.493   3.084   2.995 -0.7480 -0.7003  0.7150
  117MOL   H20337555   4.416   3.284   3.033  2.5535 -1.6403  0.0401
  117MOL   H20437556   4.303   3.440   2.611 -0.1565  0.0604 -0.6998
  117MOL   H20537557   4.195   3.240   2.482  0.7235 -1.9598 -0.5245
  117MOL   H20637558   4.173   3.034   2.605 -1.1013 -0.6631 -0.5084
  117MOL   H20737559   4.236   3.007   2.831 -3.2497  1.0627  0.5945
  117MOL   H20837560   4.439   2.995   2.963  0.3139 -1.7055  1.7046
  117MOL   H20937561   4.530   3.075   3.097 -2.6296 -0.8733  1.4083
  117MOL   C21037562   4.621   3.104   2.911  0.2333 -0.3310 -0.4547
  117MOL   C21137563   4.698   2.971   2.881  0.7846 -0.2692 -0.3401
  117MOL   C21237564   4.709   2.922   2.753  0.0353  1.1033 -0.0649
  117MOL  Cl21337565   4.647   2.990   2.608  0.3003  0.0014 -0.1821
  117MOL   C21437566   4.768   2.799   2.730 -0.2630 -0.0964  0.5818
  117MOL   C21537567   4.817   2.723   2.838  0.5900 -0.0915  0.5147
  117MOL   C21637568   4.821   2.778   2.967 -0.5119  0.0100  0.4049
  117MOL   C21737569   4.757   2.904   2.987 -0.1625  0.4784  0.0449
  117MOL   C21837570   4.722   3.215   2.955 -0.1756  0.1097 -0.2062
  117MOL   H21937571   4.582   3.132   2.813  0.7446 -0.9572 -0.8434
  117MOL   H22037572   4.770   2.767   2.626 -0.9520 -0.9963  0.8380
  117MOL   H22137573   4.860   2.625   2.821 -1.0514 -0.8740  0.7804
  117MOL   H22237574   4.877   2.726   3.042  0.2483 -0.3712 -0.4189
  117MOL   H22337575   4.759   2.943   3.087 -1.8164  1.0001 -0.1126
  117MOL   H22437576   4.752   3.194   3.058 -0.2169 -1.1849 -0.4569
  117MOL   H22537577   4.680   3.315   2.964  0.1034  0.2961 -0.9453
  117MOL   C22637578   4.855   3.241   2.879 -0.4602 -0.4707  0.4694
  117MOL   C22737579   4.962   3.134   2.923  0.6972  0.0778 -0.5284
  117MOL   C22837580   5.017   3.043   2.828 -0.0363  0.3416 -0.6238
  117MOL  Cl22937581   5.009   3.053   2.650 -0.3734 -0.3251  0.4234
  117MOL   C23037582   5.107   2.946   2.879 -0.3948 -0.4576  0.4091
  117MOL   C23137583   5.128   2.924   3.018  0.1750  0.1303 -1.1445
  117MOL   C23237584   5.065   3.016   3.110 -0.0316 -0.0356  0.0975
  117MOL   C23337585   4.990   3.124   3.064 -0.0101  0.5583  0.1068
  117MOL   C23437586   4.923   3.380   2.910  0.5114 -0.2717  0.3005
  117MOL   H23537587   4.843   3.227   2.772  1.0756  0.9444  0.1011
  117MOL   H23637588   5.164   2.891   2.806  0.2800  2.4341 -1.3508
  117MOL   H23737589   5.198   2.849   3.051  1.7850  1.9534 -0.3539
  117MOL   H23837590   5.080   2.994   3.215 -2.3382  0.4193  0.5438
  117MOL   H23937591   4.948   3.193   3.135  0.8908  2.7660 -1.4372
  117MOL   H24037592   5.029   3.376   2.886  0.2944  0.8613 -0.8692
  117MOL   H24137593   4.919   3.402   3.017  1.8819  1.6107  0.0004
  117MOL   C24237594   4.867   3.501   2.831  0.2439 -0.2056  0.3752
  117MOL   C24337595   4.862   3.485   2.675  0.2644  0.3406  0.5760
  117MOL   C24437596   4.746   3.529   2.596  0.0601  0.1520  0.2335
  117MOL  Cl24537597   4.619   3.620   2.662  0.0091  0.4553  0.0017
  117MOL   C24637598   4.754   3.507   2.454  0.5092  0.3291  0.0122
  117MOL   C24737599   4.865   3.446   2.392  0.2397  0.5708  0.3097
  117MOL   C24837600   4.969   3.394   2.471 -0.4313 -0.4300  0.1908
  117MOL   C24937601   4.974   3.421   2.609 -0.2387 -0.2832  0.0513
  117MOL   C25037602   4.946   3.627   2.882  0.3466 -0.3672 -0.4646
  117MOL   H25137603   4.764   3.513   2.864  0.4366  0.4844  0.7421
  117MOL   H25237604   4.675   3.547   2.392  0.4776  1.9201  1.0579
  117MOL   H25337605   4.863   3.432   2.285  2.3606 -0.0528  0.3348
  117MOL   H25437606   5.044   3.332   2.423 -0.6967 -1.3909  0.9796
  117MOL   H25537607   5.057   3.376   2.662  0.5858 -1.4181 -2.1216
  117MOL   H25637608   4.924   3.703   2.806  1.3871 -0.6164 -1.0202
  117MOL   H25737609   5.055   3.626   2.877  0.3102 -0.5168 -1.4270
  117MOL   C25837610   4.902   3.682   3.019  0.1980  0.1868  0.0030
  117MOL   C25937611   4.760   3.735   3.033  0.3099  0.1271  0.8568
  117MOL   C26037612   4.666   3.665   3.111  0.1101  0.3086 -0.2333
  117MOL  Cl26137613   4.695   3.512   3.185  0.2032  0.1511 -0.1181
  117MOL   C26237614   4.534   3.720   3.115 -0.2028 -0.0680  0.1690
  117MOL   C26337615   4.495   3.830   3.039  0.0351 -0.1319  0.3447
  117MOL   C26437616   4.588   3.889   2.957 -0.2825  0.4554  0.3581
  117MOL   C26537617   4.724   3.851   2.961 -0.4253  0.5345 -0.1191
  117MOL   C26637618   5.002   3.790   3.069  0.8347 -0.6804  0.1601
  117MOL   H26737619   4.908   3.599   3.088 -1.8465  0.4228  0.4961
  117MOL   H26837620   4.457   3.670   3.173  1.7558 -2.3971  0.8258
  117MOL   H26937621   4.390   3.851   3.028  0.1780 -0.3183 -1.5556
  117MOL   H27037622   4.566   3.984   2.910 -0.4954  0.4821  0.5139
  117MOL   H27137623   4.801   3.908   2.910 -0.0006 -0.5946 -0.7589
  117MOL   H27237624   4.962   3.825   3.164  0.3979 -2.0157  0.4722
  117MOL   H27337625   5.017   3.879   3.008 -1.3998 -1.1204 -1.0716
  117MOL   C27437626   5.147   3.736   3.109  0.0877  0.8288  0.0038
  117MOL   C27537627   5.157   3.593   3.160 -0.9316  0.4450 -0.3418
  117MOL   C27637628   5.252   3.500   3.104 -0.1539 -0.6123  0.6240
  117MOL  Cl27737629   5.358   3.539   2.971 -0.2189  0.1476  0.1447
  117MOL   C27837630   5.252   3.369   3.154  0.0268  0.0229  0.4596
  117MOL   C27937631   5.176   3.332   3.269 -0.3612  0.3238 -0.2732
  117MOL   C28037632   5.097   3.428   3.333 -0.1131  0.7321  0.3439
  117MOL   C28137633   5.085   3.558   3.281 -0.0323 -0.4261 -0.4055
  117MOL   C28237634   5.232   3.833   3.193  0.1788 -0.4308 -0.0153
  117MOL   H28337635   5.195   3.741   3.011 -0.6487 -1.6889 -0.5077
  117MOL   H28437636   5.314   3.296   3.103  0.4976  0.2461  0.7183
  117MOL   H28537637   5.181   3.236   3.318 -2.8714 -0.7043 -1.9127
  117MOL   H28637638   5.051   3.408   3.429 -0.2916  0.6558  0.2426
  117MOL   H28737639   5.025   3.637   3.321  0.0633  0.0424 -1.1710
  117MOL   H28837640   5.213   3.812   3.298 -1.3431  0.3383 -0.1064
  117MOL   H28937641   5.186   3.932   3.194  1.1462  0.0009  1.2020
  117MOL   C29037642   5.385   3.833   3.163  0.6075 -0.7808  0.4132
  117MOL   C29137643   5.470   3.889   3.279  0.3737  0.1553 -0.1678
  117MOL   C29237644   5.594   3.828   3.319 -0.4523 -0.8454  0.0520
  117MOL  Cl29337645   5.636   3.677   3.257 -0.2960  0.2066 -0.0485
  117MOL   C29437646   5.673   3.875   3.430  0.7227  0.1860 -1.0892
  117MOL   C29537647   5.613   3.979   3.509  0.4381 -0.8291 -0.0375
  117MOL   C29637648   5.490   4.043   3.471 -0.0305 -0.1609 -0.0430
  117MOL   C29737649   5.419   3.997   3.357  0.4580  0.3066  0.0363
  117MOL   C29837650   5.423   3.902   3.025 -0.4188  0.2673 -0.5300
  117MOL   H29937651   5.406   3.726   3.152  1.7055 -0.6428  1.0870
  117MOL   H30037652   5.764   3.824   3.457 -0.3573 -1.4364 -0.4463
  117MOL   H30137653   5.674   4.020   3.588 -0.0870 -0.6585  0.2785
  117MOL   H30237654   5.446   4.110   3.543  2.2400 -0.2208  1.4339
  117MOL   H30337655   5.324   4.043   3.334  2.3075  4.7697  0.8234
  117MOL   H30437656   5.378   3.854   2.938  1.1973  0.0512 -1.2740
  117MOL   H30537657   5.527   3.879   2.999 -0.2695  0.7431 -0.3640
  117MOL   C30637658   5.414   4.061   3.009  0.7659 -0.3703  0.1440
  117MOL   C30737659   5.276   4.115   2.966 -0.9407  0.1796 -0.4053
  117MOL   C30837660   5.209   4.213   3.038  0.0246  0.8418 -0.2465
  117MOL  Cl30937661   5.286   4.297   3.172  0.2905 -0.0238 -0.0825
  117MOL   C31037662   5.083   4.249   3.010  0.3674 -0.3207  0.8577
  117MOL   C31137663   5.021   4.201   2.894  0.1688 -0.3082  0.2342
  117MOL   C31237664   5.083   4.098   2.823  0.2029 -0.2310 -0.2744
  117MOL   C31337665   5.213   4.055   2.856 -1.1902  0.6830  0.1482
  117MOL   C31437666   5.519   4.123   2.910 -0.0458  0.0110  0.4351
  117MOL   H31537667   5.436   4.104   3.107  1.4740  0.7326 -0.4873
  117MOL   H31637668   5.043   4.336   3.060  0.2831  1.2947 -1.9268
  117MOL   H31737669   4.927   4.241   2.860  0.8224  2.9782  2.0914
  117MOL   H31837670   5.027   4.050   2.744 -1.2370 -0.0235  0.5995
  117MOL   H31937671   5.260   3.977   2.797 -1.4614  1.3040 -0.8960
  117MOL   H32037672   5.493   4.075   2.816  2.2193  0.6731 -0.5591
  117MOL   H32137673   5.621   4.094   2.936  0.0737 -1.4937 -1.5720
  117MOL   H32237674   5.517   4.232   2.899 -1.7901 -0.1598 -1.1091
  118MOL     C137675   7.555   3.908   3.514  0.7969 -0.0952  0.1550
  118MOL     C237676   7.690   3.850   3.471 -0.0819 -0.8130  0.2981
  118MOL     C337677   7.816   3.885   3.533 -0.8781  0.0520 -0.2556
  118MOL    Cl437678   7.824   3.998   3.666  0.3530  0.0551  0.0903
  118MOL     C537679   7.941   3.840   3.487  0.2354  0.1047 -0.3133
  118MOL     C637680   7.945   3.758   3.372  0.6374  0.5916  0.5420
  118MOL     C737681   7.827   3.724   3.303  0.3295 -0.1396  0.2248
  118MOL     C837682   7.699   3.765   3.357  0.4943  0.0047  0.3668
  118MOL     C937683   7.474   3.800   3.598 -0.3447  0.0466 -0.2345
  118MOL    H1037684   7.568   4.008   3.555 -2.2479  0.4861 -0.2134
  118MOL    H1137685   8.022   3.867   3.552 -0.4657  0.9131  0.2451
  118MOL    H1237686   8.043   3.731   3.334  0.4695  2.3063 -1.2427
  118MOL    H1337687   7.821   3.661   3.215  2.1772 -0.8335  0.5968
  118MOL    H1437688   7.604   3.734   3.318 -1.3763  3.9892  1.5523
  118MOL    H1537689   7.505   3.701   3.564 -0.4959 -0.3309  0.6875
  118MOL    H1637690   7.370   3.818   3.568 -0.6057 -1.7681 -0.4934
  118MOL    H1737691   7.505   3.929   3.420  1.6726  2.2932  0.1881
  118MOL    C1837692   7.492   3.801   3.755  0.3209  0.4553 -0.6442
  118MOL    C1937693   7.622   3.728   3.810 -0.4972  0.2557 -1.4491
  118MOL    C2037694   7.670   3.760   3.945  0.1373  0.1497  0.1199
  118MOL   Cl2137695   7.593   3.884   4.040  0.3257  0.1166  0.0611
  118MOL    C2237696   7.781   3.703   4.003 -0.2737 -0.4169  0.5528
  118MOL    C2337697   7.845   3.608   3.924  0.7590 -0.7917 -0.5486
  118MOL    C2437698   7.802   3.574   3.796  0.4127  0.0184  0.3572
  118MOL    C2537699   7.695   3.638   3.740 -0.0772  0.1244  0.5394
  118MOL    C2637700   7.369   3.734   3.826  0.4796 -0.1624  0.6749
  118MOL    H2737701   7.491   3.905   3.787  0.1997 -0.0275  0.9246
  118MOL    H2837702   7.819   3.726   4.102 -0.5350  2.5664  0.0327
  118MOL    H2937703   7.924   3.558   3.979  0.2023  0.3257  1.2912
  118MOL    H3037704   7.857   3.500   3.739 -0.8657 -1.1438  0.5851
  118MOL    H3137705   7.684   3.627   3.633 -1.6556 -0.6963  0.7717
  118MOL    H3237706   7.380   3.727   3.935 -0.5701 -2.8536  0.6513
  118MOL    H3337707   7.367   3.626   3.807 -0.3699 -0.3038  1.4906
  118MOL    C3437708   7.227   3.798   3.803 -0.0255  0.2569 -0.1774
  118MOL    C3537709   7.231   3.931   3.874 -0.7227  0.5295 -0.3931
  118MOL    C3637710   7.218   4.058   3.807 -0.7763  0.0478  0.2589
  118MOL   Cl3737711   7.225   4.070   3.635 -0.4037  0.1261  0.3144
  118MOL    C3837712   7.209   4.173   3.887 -0.4357 -0.3313 -0.5864
  118MOL    C3937713   7.221   4.169   4.027 -0.2608 -0.2914  0.7272
  118MOL    C4037714   7.229   4.047   4.094  0.3726 -0.1813  0.6837
  118MOL    C4137715   7.235   3.925   4.018  0.2455 -0.2345 -0.1052
  118MOL    C4237716   7.101   3.721   3.847  0.0819 -0.0645  0.3165
  118MOL    H4337717   7.221   3.817   3.696 -0.3191  0.4645 -0.1230
  118MOL    H4437718   7.210   4.269   3.837  1.4162 -0.7200 -1.3127
  118MOL    H4537719   7.216   4.259   4.087  1.1679  1.1164 -1.2020
  118MOL    H4637720   7.228   4.058   4.202 -1.5676  1.3419  0.5550
  118MOL    H4737721   7.231   3.829   4.067 -3.8724  0.3668  0.8435
  118MOL    H4837722   7.019   3.792   3.851 -0.7172 -0.8558 -1.3188
  118MOL    H4937723   7.111   3.681   3.948 -1.1636 -2.9580 -0.6590
  118MOL    C5037724   7.061   3.614   3.745  0.1430  0.2119  0.7792
  118MOL    C5137725   7.056   3.659   3.598 -0.9576  0.6308 -0.5012
  118MOL    C5237726   7.152   3.622   3.502 -0.5350 -0.1199  0.2423
  118MOL   Cl5337727   7.291   3.528   3.546 -0.4630  0.3457 -0.5886
  118MOL    C5437728   7.141   3.656   3.360  0.2914 -0.4129 -0.2848
  118MOL    C5537729   7.025   3.732   3.328  0.2549 -0.4474  0.1873
  118MOL    C5637730   6.927   3.767   3.424 -0.2421 -0.4658 -0.4219
  118MOL    C5737731   6.947   3.730   3.558 -0.1630  0.1413  0.5322
  118MOL    C5837732   6.925   3.551   3.794 -0.0551 -0.0442 -0.2052
  118MOL    H5937733   7.135   3.534   3.750 -0.9400 -0.7639  1.5030
  118MOL    H6037734   7.215   3.616   3.292  0.7171 -3.0730  1.6503
  118MOL    H6137735   7.008   3.770   3.228  0.5624 -2.5765 -0.7051
  118MOL    H6237736   6.837   3.819   3.394 -0.1384  0.2992  0.5494
  118MOL    H6337737   6.874   3.756   3.632 -0.3828  1.2104 -0.0429
  118MOL    H6437738   6.871   3.523   3.703 -1.1096  0.6535  0.1983
  118MOL    H6537739   6.854   3.622   3.835 -0.5512  0.5594 -2.0480
  118MOL    C6637740   6.925   3.425   3.888 -0.8708  0.4858 -0.2020
  118MOL    C6737741   7.009   3.307   3.839 -0.4415 -0.3562 -1.3054
  118MOL    C6837742   7.143   3.286   3.887 -0.1729 -0.0206  0.1378
  118MOL   Cl6937743   7.218   3.395   4.002  0.1384 -0.1010 -0.3494
  118MOL    C7037744   7.212   3.173   3.840 -0.5658  0.2865 -0.7707
  118MOL    C7137745   7.156   3.082   3.744  0.2177 -0.0285 -0.1068
  118MOL    C7237746   7.024   3.108   3.704  0.3040 -0.3237  0.1073
  118MOL    C7337747   6.950   3.220   3.753 -0.2434  0.0423  0.7095
  118MOL    C7437748   6.774   3.377   3.919  0.3032  0.1719  0.1249
  118MOL    H7537749   6.965   3.456   3.985 -1.0110 -2.1693  0.7613
  118MOL    H7637750   7.314   3.162   3.872 -1.0150  0.1008  0.6132
  118MOL    H7737751   7.212   2.996   3.713 -2.7696 -1.3622 -1.9763
  118MOL    H7837752   6.977   3.037   3.639  3.8077 -1.0454 -1.7893
  118MOL    H7937753   6.848   3.245   3.726 -0.7737 -1.2593  1.4793
  118MOL    H8037754   6.755   3.272   3.937  1.1490 -0.0984 -0.5415
  118MOL    H8137755   6.716   3.401   3.830  1.7390 -4.1686 -2.1159
  118MOL    C8237756   6.713   3.452   4.044  0.2831  0.4118  0.2741
  118MOL    C8337757   6.800   3.431   4.170 -1.1960  1.1009 -0.2564
  118MOL    C8437758   6.889   3.528   4.225 -0.0063 -0.3120 -0.0461
  118MOL   Cl8537759   6.905   3.681   4.159 -0.1471 -0.0173  0.1678
  118MOL    C8637760   6.975   3.495   4.331  0.4811  0.4845  1.2037
  118MOL    C8737761   6.972   3.368   4.394  0.0090 -0.4291 -0.8037
  118MOL    C8837762   6.893   3.270   4.329  0.2066  0.6014  0.1031
  118MOL    C8937763   6.802   3.301   4.227 -0.1496 -0.4384 -0.1744
  118MOL    C9037764   6.562   3.421   4.057 -1.0244  0.8793 -0.8454
  118MOL    H9137765   6.716   3.560   4.030  0.8821  0.4725  0.8240
  118MOL    H9237766   7.047   3.572   4.354  0.0604  2.3993 -3.3366
  118MOL    H9337767   7.037   3.353   4.480  0.6315  0.2974 -1.1411
  118MOL    H9437768   6.895   3.173   4.377 -1.1883 -0.7004 -2.4233
  118MOL    H9537769   6.748   3.225   4.171 -0.1177  1.2245 -2.5352
  118MOL    H9637770   6.535   3.444   4.160  0.7765  1.9323 -0.5847
  118MOL    H9737771   6.544   3.315   4.043  2.8481 -0.1392  1.1296
  118MOL    C9837772   6.454   3.500   3.973 -0.5073 -1.1881 -0.1160
  118MOL    C9937773   6.482   3.651   3.966  0.4252 -0.0386 -0.1174
  118MOL   C10037774   6.539   3.726   3.860  0.2310  0.6331 -0.6575
  118MOL  Cl10137775   6.593   3.652   3.713 -0.4065 -0.3294 -0.0716
  118MOL   C10237776   6.560   3.862   3.872  0.9138 -0.2814  0.1775
  118MOL   C10337777   6.530   3.932   3.992  0.2110 -0.1461  0.0983
  118MOL   C10437778   6.475   3.864   4.098  0.4441  0.7466  0.1982
  118MOL   C10537779   6.458   3.724   4.089 -0.1899  0.0729  0.2943
  118MOL   C10637780   6.308   3.458   4.007 -0.4768 -0.2912 -0.6702
  118MOL   H10737781   6.467   3.465   3.870  0.4561 -1.8988  0.2351
  118MOL   H10837782   6.601   3.925   3.795  0.0361  0.3542  0.2127
  118MOL   H10937783   6.556   4.036   4.003 -0.0282 -0.1653  0.8939
  118MOL   H11037784   6.446   3.917   4.188  0.0016 -0.4955  0.7991
  118MOL   H11137785   6.424   3.668   4.174 -0.1017  1.3393  1.1872
  118MOL   H11237786   6.300   3.479   4.114  0.9820  0.7173 -0.7417
  118MOL   H11337787   6.282   3.353   3.999  1.2561 -0.8542  0.7550
  118MOL   C11437788   6.206   3.534   3.934  0.1160  0.7385  0.0822
  118MOL   C11537789   6.080   3.545   4.020 -0.0048 -0.3529 -0.1371
  118MOL   C11637790   6.023   3.670   4.062 -0.4324  0.2464  0.0188
  118MOL  Cl11737791   6.097   3.818   4.023  0.4679 -0.1934 -0.1371
  118MOL   C11837792   5.908   3.676   4.147  0.0300  0.8771 -0.1392
  118MOL   C11937793   5.841   3.564   4.185  0.5670  0.1183  0.1667
  118MOL   C12037794   5.886   3.436   4.147 -0.4684 -0.4477 -0.2652
  118MOL   C12137795   6.003   3.429   4.061 -0.1742 -0.1933  0.2429
  118MOL   C12237796   6.183   3.481   3.790  0.2183  0.8670 -0.8996
  118MOL   H12337797   6.249   3.634   3.927 -2.0450  1.8085  1.3678
  118MOL   H12437798   5.886   3.773   4.191  0.9679  0.3485  1.5341
  118MOL   H12537799   5.754   3.585   4.245 -0.0415 -0.6740 -0.4105
  118MOL   H12637800   5.844   3.339   4.171  0.5858 -0.9940 -0.5870
  118MOL   H12737801   6.036   3.332   4.027  0.8727  0.6662 -1.2553
  118MOL   H12837802   6.129   3.386   3.793 -1.1162  1.6608  1.8967
  118MOL   H12937803   6.286   3.459   3.760  0.8804 -0.7798  2.2894
  118MOL   C13037804   6.119   3.587   3.707  0.1406  0.2713  0.6649
  118MOL   C13137805   6.008   3.527   3.626 -0.1231 -0.1996  0.7102
  118MOL   C13237806   5.884   3.586   3.611 -0.1807  0.0816  0.1074
  118MOL  Cl13337807   5.858   3.740   3.686 -0.0648 -0.2433 -0.2711
  118MOL   C13437808   5.787   3.526   3.529 -0.2633  0.5707  0.2274
  118MOL   C13537809   5.802   3.398   3.467  0.6056 -0.0566  0.2876
  118MOL   C13637810   5.926   3.337   3.490  0.3524  0.2063  0.0449
  118MOL   C13737811   6.035   3.406   3.555  0.3480 -0.2425  0.1047
  118MOL   C13837812   6.224   3.665   3.621 -0.7317 -0.0098  0.8301
  118MOL   H13937813   6.078   3.658   3.778  1.6171 -0.2564  2.0764
  118MOL   H14037814   5.690   3.570   3.511 -1.2580 -1.0941  1.3321
  118MOL   H14137815   5.727   3.350   3.406  1.1062 -2.3551  1.4301
  118MOL   H14237816   5.948   3.242   3.444  0.7476  1.4266 -2.3532
  118MOL   H14337817   6.129   3.355   3.570 -0.4828 -2.4039 -1.7579
  118MOL   H14437818   6.231   3.594   3.539 -0.8657 -0.2531  1.0298
  118MOL   H14537819   6.326   3.659   3.660  0.1584 -1.6662 -1.6637
  118MOL   C14637820   6.186   3.811   3.582 -0.1825 -0.1773  0.4575
  118MOL   C14737821   6.261   3.856   3.451  0.9454 -0.4038  0.2205
  118MOL   C14837822   6.193   3.895   3.337  0.0213 -0.0005 -0.2189
  118MOL  Cl14937823   6.027   3.866   3.323  0.0904 -0.0413  0.0109
  118MOL   C15037824   6.256   3.946   3.222 -0.1280  0.6055 -0.1652
  118MOL   C15137825   6.398   3.958   3.222  0.6672  0.1210  0.2308
  118MOL   C15237826   6.473   3.916   3.336  0.8113 -0.1206 -0.2521
  118MOL   C15337827   6.404   3.868   3.453  0.1274 -0.2527  0.4251
  118MOL   C15437828   6.217   3.910   3.697 -0.0728  0.3659  0.3124
  118MOL   H15537829   6.079   3.817   3.561  0.2408  1.0036 -1.5318
  118MOL   H15637830   6.201   3.967   3.132  0.4108  1.9252 -0.1908
  118MOL   H15737831   6.445   4.014   3.142  1.9823 -0.5359  0.5416
  118MOL   H15837832   6.580   3.930   3.343  0.9137 -0.2155 -1.4220
  118MOL   H15937833   6.461   3.844   3.541 -1.0869  0.7051  1.4942
  118MOL   H16037834   6.318   3.889   3.733 -0.8774 -0.8235  1.9606
  118MOL   H16137835   6.147   3.895   3.779  0.5640 -0.6296  0.7002
  118MOL   C16237836   6.218   4.062   3.667  0.1024  0.0541  0.5575
  118MOL   C16337837   6.273   4.141   3.780 -0.3529  0.3268  0.4926
  118MOL   C16437838   6.408   4.184   3.780 -0.3880 -0.2878 -0.2740
  118MOL  Cl16537839   6.515   4.160   3.650  0.0403  0.4096  0.3595
  118MOL   C16637840   6.459   4.247   3.895 -0.0222  0.1149 -0.2003
  118MOL   C16737841   6.389   4.256   4.014  0.2217 -0.4217  1.0588
  118MOL   C16837842   6.267   4.180   4.023  0.4312  0.6712 -0.4196
  118MOL   C16937843   6.207   4.132   3.904 -0.4802 -0.8797  0.0095
  118MOL   C17037844   6.081   4.117   3.622 -0.1860  0.1856  0.1063
  118MOL   H17137845   6.271   4.062   3.572  1.4944 -0.0741  1.3205
  118MOL   H17237846   6.557   4.291   3.885  0.5582 -1.3676 -1.1749
  118MOL   H17337847   6.427   4.317   4.095  1.3043  2.1490 -1.3242
  118MOL   H17437848   6.205   4.172   4.111 -1.1639 -0.2959 -1.5924
  118MOL   H17537849   6.117   4.073   3.918  0.8909 -2.9814  0.1983
  118MOL   H17637850   6.009   4.116   3.704  0.1400  2.4972  0.4616
  118MOL   H17737851   6.048   4.042   3.550  0.8139 -1.2553  1.0968
  118MOL   C17837852   6.085   4.255   3.556 -0.3757  0.0377 -0.4195
  118MOL   C17937853   5.936   4.284   3.505  0.1911 -0.4519  0.5336
  118MOL   C18037854   5.860   4.393   3.556  0.1398  0.6465 -0.1967
  118MOL  Cl18137855   5.905   4.469   3.706 -0.1432 -0.0846 -0.1778
  118MOL   C18237856   5.739   4.436   3.488 -0.2828  0.1641  0.8734
  118MOL   C18337857   5.699   4.360   3.372 -0.2422  0.1840 -0.6143
  118MOL   C18437858   5.775   4.246   3.326  0.0680  0.5079  0.7234
  118MOL   C18537859   5.892   4.216   3.386  1.0813 -0.2629 -0.5939
  118MOL   C18637860   6.190   4.271   3.438  0.3409  0.1091 -0.5241
  118MOL   H18737861   6.113   4.322   3.638  0.6662  0.0995 -0.8120
  118MOL   H18837862   5.683   4.520   3.524 -1.1109 -0.5352  1.2310
  118MOL   H18937863   5.605   4.386   3.324 -0.3611  0.3486 -0.2942
  118MOL   H19037864   5.735   4.188   3.245  1.9490  0.8780 -0.5008
  118MOL   H19137865   5.949   4.141   3.333  0.9722 -0.1706 -0.8446
  118MOL   H19237866   6.170   4.199   3.359 -0.7202  1.6401 -1.6896
  118MOL   H19337867   6.293   4.250   3.467 -0.3003 -2.6047 -0.0941
  118MOL   C19437868   6.217   4.415   3.383  0.0808 -0.6639 -0.3655
  118MOL   C19537869   6.219   4.424   3.229  0.2594 -0.3122  0.0137
  118MOL   C19637870   6.123   4.493   3.150  0.1320  1.0680 -0.5208
  118MOL  Cl19737871   5.980   4.556   3.229  0.3129  0.0309  0.0351
  118MOL   C19837872   6.135   4.500   3.010 -0.5501 -0.2827  0.2519
  118MOL   C19937873   6.247   4.435   2.943  0.8570 -0.2415  0.7537
  118MOL   C20037874   6.342   4.376   3.018 -0.1040 -0.2391 -0.3838
  118MOL   C20137875   6.331   4.366   3.161 -0.2724  0.8983 -0.2666
  118MOL   C20237876   6.338   4.493   3.450  0.5038  0.5073 -0.1709
  118MOL   H20337877   6.132   4.471   3.420  0.2885 -0.0214 -0.8508
  118MOL   H20437878   6.062   4.552   2.949  0.4379 -0.8812 -1.4847
  118MOL   H20537879   6.252   4.450   2.836 -0.4188 -0.5431  0.6412
  118MOL   H20637880   6.428   4.347   2.959 -0.8130  0.1299 -1.6135
  118MOL   H20737881   6.412   4.324   3.219 -0.7131 -1.1816 -1.1343
  118MOL   H20837882   6.428   4.449   3.406  0.1617  0.7632 -1.1435
  118MOL   H20937883   6.341   4.466   3.555 -0.0444  3.3936  0.6274
  118MOL   C21037884   6.317   4.650   3.436  0.0924  0.1301  0.2263
  118MOL   C21137885   6.445   4.720   3.403  0.2701 -0.1362 -0.0800
  118MOL   C21237886   6.465   4.774   3.275 -0.1439  0.0486 -0.1350
  118MOL  Cl21337887   6.351   4.757   3.151 -0.1926  0.2820 -0.2075
  118MOL   C21437888   6.582   4.846   3.247 -0.1393  0.5044 -0.2500
  118MOL   C21537889   6.678   4.861   3.348 -0.2986  0.2459  0.4636
  118MOL   C21637890   6.666   4.799   3.471  0.0534 -0.2403 -0.5522
  118MOL   C21737891   6.547   4.728   3.496 -0.0819  0.6340  0.2876
  118MOL   C21837892   6.243   4.697   3.561  0.8289 -0.1792  0.3399
  118MOL   H21937893   6.243   4.662   3.357  0.7701  0.6994 -0.3216
  118MOL   H22037894   6.615   4.873   3.148 -2.2778 -0.6023 -1.2931
  118MOL   H22137895   6.773   4.912   3.336 -0.3633  0.3056  0.2017
  118MOL   H22237896   6.732   4.809   3.556 -0.1883  0.2629 -0.4229
  118MOL   H22337897   6.548   4.702   3.601  4.6302  1.3535  0.5315
  118MOL   H22437898   6.303   4.701   3.652  3.0030  0.9423 -1.0951
  118MOL   H22537899   6.170   4.620   3.585  0.5768  0.0249  0.2317
  118MOL   C22637900   6.154   4.824   3.534 -0.3194 -0.4422 -0.0941
  118MOL   C22737901   6.229   4.951   3.490  0.2848 -0.3468 -0.1773
  118MOL   C22837902   6.180   5.027   3.380  0.1021  0.2546  0.2508
  118MOL  Cl22937903   6.045   4.981   3.282  0.1801 -0.3241 -0.1238
  118MOL   C23037904   6.263   5.128   3.336  0.1791  0.0280  0.3934
  118MOL   C23137905   6.391   5.156   3.396 -0.0321  0.3233  0.3347
  118MOL   C23237906   6.428   5.087   3.512 -0.6832  0.2673  0.6243
  118MOL   C23337907   6.347   4.988   3.559  0.6611 -0.3066 -0.1760
  118MOL   C23437908   6.071   4.844   3.662  0.0179 -0.2325 -0.5179
  118MOL   H23537909   6.086   4.792   3.455  0.4817 -0.3000 -0.8489
  118MOL   H23637910   6.233   5.194   3.256  1.0329  0.6920  0.6076
  118MOL   H23737911   6.450   5.239   3.360 -0.6531  1.3727  1.6701
  118MOL   H23837912   6.525   5.092   3.560 -0.1356 -1.1447 -0.2998
  118MOL   H23937913   6.377   4.928   3.644  0.8680 -0.6018 -0.4532
  118MOL   H24037914   6.136   4.881   3.742 -0.3737  0.8259 -0.6909
  118MOL   H24137915   6.048   4.746   3.705 -0.0153  0.6092  1.4153
  118MOL   C24237916   5.937   4.921   3.642  0.3339  0.3259 -0.1371
  118MOL   C24337917   5.873   4.968   3.776 -0.2767 -0.4730 -0.0953
  118MOL   C24437918   5.897   5.095   3.828  0.4255 -0.3110  0.0701
  118MOL  Cl24537919   5.981   5.210   3.734 -0.0302 -0.0325 -0.0473
  118MOL   C24637920   5.849   5.135   3.958 -0.1500 -0.2478  0.3212
  118MOL   C24737921   5.776   5.043   4.032 -0.8464  0.4347 -0.2774
  118MOL   C24837922   5.756   4.913   3.983  0.4007 -0.2378 -0.7978
  118MOL   C24937923   5.806   4.876   3.861  0.7363  0.6774 -0.4145
  118MOL   C25037924   5.840   4.839   3.562  0.5445 -0.6016 -0.9441
  118MOL   H25137925   5.965   5.008   3.583  0.4848 -1.5642 -2.9866
  118MOL   H25237926   5.863   5.236   3.994  1.2009 -0.0473 -0.7014
  118MOL   H25337927   5.731   5.065   4.128  0.7506  0.0112  0.5892
  118MOL   H25437928   5.701   4.840   4.040  0.8873 -0.0863 -0.1320
  118MOL   H25537929   5.784   4.775   3.832 -0.4751  0.8919 -0.2723
  118MOL   H25637930   5.812   4.745   3.610 -0.2693  0.0994 -0.0215
  118MOL   H25737931   5.883   4.802   3.469 -0.7063 -2.0225 -0.9778
  118MOL   C25837932   5.699   4.900   3.529  0.6511  0.0513  0.8649
  118MOL   C25937933   5.630   4.799   3.442  0.1653 -0.5908 -0.7642
  118MOL   C26037934   5.501   4.743   3.471  0.6437  0.5054 -0.2316
  118MOL  Cl26137935   5.420   4.782   3.621 -0.3244 -0.5114 -0.6117
  118MOL   C26237936   5.425   4.671   3.374  0.0421 -0.0279  0.1992
  118MOL   C26337937   5.484   4.631   3.256  1.1848  1.1569 -0.3706
  118MOL   C26437938   5.621   4.668   3.237 -0.3716  0.0885 -0.7406
  118MOL   C26537939   5.693   4.756   3.328 -0.0593  0.2265 -0.3703
  118MOL   C26637940   5.704   5.051   3.468 -0.3076 -0.1752 -0.2853
  118MOL   H26737941   5.643   4.906   3.623 -2.3182  1.0527 -0.8914
  118MOL   H26837942   5.330   4.630   3.404  0.9578 -2.3202  0.0506
  118MOL   H26937943   5.445   4.564   3.181  0.7391  0.0939  0.7986
  118MOL   H27037944   5.657   4.631   3.142  2.5305  1.9761 -0.4437
  118MOL   H27137945   5.792   4.792   3.306 -1.0650  3.0291 -0.5300
  118MOL   H27237946   5.791   5.054   3.403 -1.2837 -1.7614 -1.7265
  118MOL   H27337947   5.729   5.124   3.545  0.0954 -1.6858  1.0559
  118MOL   C27437948   5.576   5.093   3.384  0.1890  0.4618 -0.5252
  118MOL   C27537949   5.613   5.201   3.286 -0.2252  0.3717 -0.9387
  118MOL   C27637950   5.699   5.170   3.177 -0.5625  0.3224 -0.1539
  118MOL  Cl27737951   5.740   5.014   3.131 -0.2506 -0.3338  0.3938
  118MOL   C27837952   5.760   5.277   3.108 -0.3085 -0.1872 -0.1654
  118MOL   C27937953   5.736   5.408   3.149  0.2538 -0.7085 -0.5531
  118MOL   C28037954   5.648   5.440   3.252  0.3395 -1.1110  0.3083
  118MOL   C28137955   5.589   5.336   3.323  0.4457  0.5529  0.8356
  118MOL   C28237956   5.450   5.106   3.470  0.2518 -0.2543  0.5009
  118MOL   H28337957   5.549   5.008   3.322 -2.8252  0.0644  1.2251
  118MOL   H28437958   5.826   5.266   3.023 -0.8837 -1.3957 -0.4736
  118MOL   H28537959   5.778   5.494   3.098 -0.2683  0.3315  0.7183
  118MOL   H28637960   5.622   5.539   3.284  0.9964 -1.0610  0.6976
  118MOL   H28737961   5.527   5.368   3.405  0.0510  0.0914  0.7200
  118MOL   H28837962   5.459   5.197   3.529 -1.4532  0.6232 -0.5360
  118MOL   H28937963   5.447   5.026   3.544  0.1126 -0.9909 -0.2887
  118MOL   C29037964   5.323   5.118   3.388 -0.2531 -0.6456  0.1927
  118MOL   C29137965   5.215   5.207   3.450  0.3404  0.6401  0.0276
  118MOL   C29237966   5.137   5.298   3.364  1.0095 -0.0350  0.2275
  118MOL  Cl29337967   5.172   5.327   3.196  0.2946  0.2879  0.2063
  118MOL   C29437968   5.027   5.371   3.425 -0.3179 -0.6525  0.3079
  118MOL   C29537969   4.990   5.343   3.561  0.2174  0.1764  0.2497
  118MOL   C29637970   5.063   5.252   3.637  0.1766 -0.8628 -0.2291
  118MOL   C29737971   5.174   5.183   3.585  0.7563  0.3901 -0.0438
  118MOL   C29837972   5.266   4.975   3.361  0.4682  0.3845 -0.3418
  118MOL   H29937973   5.347   5.170   3.295  2.4590  0.6563  1.5611
  118MOL   H30037974   4.970   5.443   3.369 -1.2096 -1.1439  0.5784
  118MOL   H30137975   4.913   5.404   3.604  0.4344 -0.7112  1.9570
  118MOL   H30237976   5.024   5.238   3.737 -1.0632 -1.9566 -0.8430
  118MOL   H30337977   5.215   5.107   3.650  1.0925  2.5075  2.3285
  118MOL   H30437978   5.262   4.931   3.460 -3.5612  0.9463 -0.1779
  118MOL   H30537979   5.331   4.904   3.309 -0.6517 -1.1529  0.3411
  118MOL   C30637980   5.129   4.959   3.293  0.4849 -0.0005 -0.2770
  118MOL   C30737981   5.080   4.818   3.325  0.9527  0.3741 -0.0241
  118MOL   C30837982   5.050   4.781   3.463  0.0309  0.1715  0.0330
  118MOL  Cl30937983   5.054   4.901   3.588  0.3179  0.1244  0.1050
  118MOL   C31037984   5.007   4.649   3.497 -1.0623  0.4668  0.1498
  118MOL   C31137985   4.997   4.549   3.394 -1.4230  0.5560 -1.0685
  118MOL   C31237986   5.040   4.581   3.263 -0.0641 -0.0306 -0.5178
  118MOL   C31337987   5.079   4.712   3.230 -0.0962 -0.1621  0.3201
  118MOL   C31437988   5.135   4.977   3.139 -0.2315 -0.5104 -0.5599
  118MOL   H31537989   5.061   5.035   3.333  0.6068 -0.6382  1.1584
  118MOL   H31637990   4.982   4.627   3.599  0.8676  0.5010  0.6548
  118MOL   H31737991   4.975   4.447   3.424  0.9818 -0.4060 -2.4730
  118MOL   H31837992   5.057   4.509   3.185 -0.2114  0.6766 -1.2111
  118MOL   H31937993   5.112   4.729   3.128  0.8078 -0.8993  0.4893
  118MOL   H32037994   5.174   5.077   3.122  0.4439 -0.8016 -0.7335
  118MOL   H32137995   5.040   4.981   3.085 -1.0917 -0.4463  0.9306
  118MOL   H32237996   5.210   4.916   3.089  0.0952  0.3212 -1.0914
  119MOL     C137997   5.129   7.485   3.537 -0.0802 -0.6749  0.9076
  119MOL     C237998   5.062   7.364   3.586  0.5275 -0.2658 -0.2013
  119MOL     C337999   5.120   7.238   3.588 -0.5105  0.4916  0.2884
  119MOL    Cl438000   5.274   7.212   3.519 -0.1224 -0.0385  0.1561
  119MOL     C538001   5.052   7.132   3.647  0.6249 -0.1842 -0.0775
  119MOL     C638002   4.914   7.144   3.680  0.4372  0.1900 -0.0841
  119MOL     C738003   4.850   7.272   3.678  0.3977 -0.2362  0.1746
  119MOL     C838004   4.927   7.382   3.632  0.2786  0.6858 -0.2280
  119MOL     C938005   5.095   7.510   3.381 -0.3586  0.4842 -0.4717
  119MOL    H1038006   5.092   7.567   3.599  0.2444 -1.2509  1.8801
  119MOL    H1138007   5.091   7.032   3.658  1.8054 -0.0303 -2.5618
  119MOL    H1238008   4.856   7.060   3.715 -0.5207 -0.4028 -2.9446
  119MOL    H1338009   4.749   7.293   3.709  0.8421 -0.3220  1.6842
  119MOL    H1438010   4.873   7.475   3.645 -0.0046  0.7864 -1.9712
  119MOL    H1538011   4.989   7.537   3.381 -0.6811 -0.7502  0.8627
  119MOL    H1638012   5.131   7.423   3.326  1.0434 -0.6087  2.1281
  119MOL    H1738013   5.234   7.475   3.567 -0.0344  1.0406  1.3423
  119MOL    C1838014   5.159   7.639   3.326  0.0621 -0.1077 -0.0995
  119MOL    C1938015   5.301   7.619   3.270  0.0445 -0.7269  0.1206
  119MOL    C2038016   5.351   7.692   3.155 -0.2992 -1.0047 -0.2092
  119MOL   Cl2138017   5.244   7.806   3.062  0.3730 -0.0808  0.2649
  119MOL    C2238018   5.483   7.667   3.102 -0.8846 -0.0089 -0.1040
  119MOL    C2338019   5.567   7.574   3.162  0.0934 -0.5282 -0.3518
  119MOL    C2438020   5.521   7.501   3.269 -0.4964  0.1175  0.1519
  119MOL    C2538021   5.391   7.523   3.320  0.2288 -0.3281  0.5216
  119MOL    C2638022   5.146   7.770   3.404  0.3653 -0.3986 -0.4252
  119MOL    H2738023   5.102   7.648   3.234 -1.5841  1.0234  0.9940
  119MOL    H2838024   5.518   7.715   3.012  2.6491  0.0663  1.2290
  119MOL    H2938025   5.660   7.547   3.114  0.3400 -0.1380 -0.0972
  119MOL    H3038026   5.593   7.432   3.312 -1.2474 -1.4242 -1.0244
  119MOL    H3138027   5.360   7.460   3.402 -1.1763  0.9341  0.9775
  119MOL    H3238028   5.197   7.851   3.351  0.7210 -0.3024  0.0643
  119MOL    H3338029   5.211   7.762   3.491  1.5525  0.9829 -1.1657
  119MOL    C3438030   4.999   7.821   3.440  0.1563  0.7210  0.5353
  119MOL    C3538031   4.907   7.827   3.318 -0.3907  0.3712 -0.5094
  119MOL    C3638032   4.775   7.765   3.319 -0.4347  0.3928 -0.4348
  119MOL   Cl3738033   4.716   7.672   3.449 -0.3674  0.0331 -0.0104
  119MOL    C3838034   4.698   7.778   3.207  0.0308 -0.1329  0.2750
  119MOL    C3938035   4.737   7.842   3.090 -0.0171 -0.1340 -0.1082
  119MOL    C4038036   4.859   7.911   3.097 -0.9257  1.6027  1.3296
  119MOL    C4138037   4.949   7.895   3.205  0.5441 -0.3210 -0.0459
  119MOL    C4238038   5.000   7.961   3.507  0.5298 -0.2168  0.2637
  119MOL    H4338039   4.961   7.745   3.508  1.4183 -1.1867 -0.8496
  119MOL    H4438040   4.607   7.720   3.210  0.1294 -0.2035  2.3787
  119MOL    H4538041   4.670   7.840   3.006 -0.3463  1.4695  0.1043
  119MOL    H4638042   4.904   7.954   3.009  1.3594 -0.8118  1.2377
  119MOL    H4738043   5.042   7.949   3.209 -0.3501  1.1627  1.3510
  119MOL    H4838044   4.898   8.000   3.506  0.5209 -0.1710  2.0707
  119MOL    H4938045   5.062   8.030   3.449 -1.7255  0.3405 -1.5856
  119MOL    C5038046   5.047   7.963   3.655  0.6331 -0.3493  0.2649
  119MOL    C5138047   4.977   7.856   3.747 -0.2538  0.6940  0.2637
  119MOL    C5238048   5.053   7.782   3.843 -0.9851  0.5688 -0.0625
  119MOL   Cl5338049   5.220   7.816   3.868 -0.1092  0.6846  0.1917
  119MOL    C5438050   4.989   7.674   3.921 -0.1481  0.4099  0.8807
  119MOL    C5538051   4.855   7.642   3.897  0.0009 -0.5774  0.3466
  119MOL    C5638052   4.781   7.728   3.812  0.2870 -0.1098 -0.3588
  119MOL    C5738053   4.842   7.830   3.737 -0.2307 -0.2312 -0.5425
  119MOL    C5838054   5.031   8.097   3.733  0.0197  0.1440  0.1116
  119MOL    H5938055   5.153   7.942   3.651  0.7074 -0.5188  2.4872
  119MOL    H6038056   5.051   7.617   3.990  0.9221 -0.7382 -0.9960
  119MOL    H6138057   4.807   7.555   3.939 -2.1727  0.8068  0.8379
  119MOL    H6238058   4.675   7.716   3.795 -0.3785  3.5969  0.6212
  119MOL    H6338059   4.770   7.885   3.678  0.0110  0.2664 -0.3726
  119MOL    H6438060   5.066   8.089   3.836 -0.4276  0.3585  0.2780
  119MOL    H6538061   4.924   8.117   3.734  0.1859  1.0161  1.8738
  119MOL    C6638062   5.108   8.213   3.668  0.0239  0.2276  0.4510
  119MOL    C6738063   5.258   8.194   3.680 -0.6561 -0.3102  0.0331
  119MOL    C6838064   5.342   8.186   3.564  0.3693  0.4924  0.1196
  119MOL   Cl6938065   5.285   8.228   3.406 -0.2291 -0.0476  0.0249
  119MOL    C7038066   5.479   8.139   3.573  0.2197 -0.4245 -0.3892
  119MOL    C7138067   5.522   8.109   3.705  0.2722 -0.5215  0.3373
  119MOL    C7238068   5.440   8.122   3.820  0.2169 -0.5711  0.5855
  119MOL    C7338069   5.308   8.157   3.808  0.0028  0.7037 -0.2864
  119MOL    C7438070   5.066   8.345   3.733  0.6656  0.3873 -0.1591
  119MOL    H7538071   5.079   8.229   3.564  0.6918  0.3030  0.2795
  119MOL    H7638072   5.550   8.138   3.491 -1.8069  0.0358 -2.2056
  119MOL    H7738073   5.617   8.061   3.721 -0.3107 -1.7213  0.3180
  119MOL    H7838074   5.475   8.113   3.922  0.9137  1.4571  0.5399
  119MOL    H7938075   5.245   8.169   3.895 -1.5808 -0.2886 -1.2657
  119MOL    H8038076   5.143   8.420   3.717  0.3482  0.8761  0.5311
  119MOL    H8138077   5.072   8.315   3.838  0.3161 -0.4811 -0.3767
  119MOL    C8238078   4.933   8.407   3.692 -0.1868  0.3823 -0.2488
  119MOL    C8338079   4.960   0.070   3.566 -0.3123  0.6476  0.1778
  119MOL    C8438080   4.908   0.028   3.442  0.5424  0.3026  0.1278
  119MOL   Cl8538081   4.831   8.294   3.414  0.0033 -0.1026 -0.0871
  119MOL    C8638082   4.922   0.107   3.331  0.7553 -0.0226  0.6682
  119MOL    C8738083   4.996   0.225   3.326 -0.0911 -0.3372  0.1634
  119MOL    C8838084   5.044   0.279   3.452  0.7058  0.0603  0.2605
  119MOL    C8938085   5.025   0.198   3.570 -0.4807 -0.7090  0.4455
  119MOL    C9038086   4.866   0.071   3.804 -0.3601  0.4576  0.6656
  119MOL    H9138087   4.865   8.326   3.666 -1.1308  1.7449 -2.0883
  119MOL    H9238088   4.868   0.072   3.244  0.6932 -0.9393  1.0745
  119MOL    H9338089   4.997   0.280   3.234  1.4098 -0.0608  0.3271
  119MOL    H9438090   5.089   0.377   3.452 -0.1291  0.4955 -2.6479
  119MOL    H9538091   5.067   0.231   3.664  0.7772  2.7783 -1.2185
  119MOL    H9638092   4.815   0.153   3.752 -0.2033  0.1501  0.0239
  119MOL    H9738093   4.943   0.121   3.864 -0.7558  1.1512  0.6075
  119MOL    C9838094   4.784   8.408   3.896 -0.3531 -0.0555 -0.3046
  119MOL    C9938095   4.651   8.374   3.839  0.1157 -0.0351 -0.7374
  119MOL   C10038096   4.597   8.238   3.843 -0.5324 -0.3487  0.0526
  119MOL  Cl10138097   4.678   8.103   3.918 -0.2268 -0.2488  0.2535
  119MOL   C10238098   4.474   8.215   3.779 -0.0899 -0.2642  0.1929
  119MOL   C10338099   4.392   8.321   3.736 -0.2000 -0.2535 -1.0696
  119MOL   C10438100   4.439   0.028   3.739  0.3166 -0.0713 -0.3720
  119MOL   C10538101   4.567   0.056   3.781  0.3696  0.2428  0.1868
  119MOL   C10638102   4.759   0.046   4.037  0.2669 -0.2365 -0.4717
  119MOL   H10738103   4.832   8.312   3.914  0.1403 -0.1730 -2.1590
  119MOL   H10838104   4.426   8.118   3.777 -0.3600 -0.3348  5.2515
  119MOL   H10938105   4.293   8.313   3.692  0.5370 -2.8593 -2.3847
  119MOL   H11038106   4.373   0.108   3.709  0.7066  0.3343 -0.1661
  119MOL   H11138107   4.591   0.162   3.782  1.2125  0.1393 -3.3436
  119MOL   H11238108   4.683   8.402   4.081  1.1479 -0.4218  0.7870
  119MOL   H11338109   4.698   0.137   4.029 -0.9548 -0.9550  0.5198
  119MOL   C11438110   4.879   0.062   4.122  0.2646  0.5589 -0.0764
  119MOL   C11538111   4.973   8.354   4.131  0.2028  0.0373 -0.6873
  119MOL   C11638112   5.114   8.365   4.149 -0.0107 -0.0240  0.0965
  119MOL  Cl11738113   5.192   0.098   4.133 -0.0536  0.6273  0.0623
  119MOL   C11838114   5.191   8.251   4.178  1.1345 -0.4609  0.3184
  119MOL   C11938115   5.136   8.120   4.186 -0.0583 -0.7909  1.1958
  119MOL   C12038116   4.997   8.108   4.170 -0.0921  0.2336 -0.0082
  119MOL   C12138117   4.916   8.225   4.140 -0.3270  0.2209 -0.5953
  119MOL   C12238118   4.858   0.102   4.268  0.0973  0.1505 -0.8644
  119MOL   H12338119   4.931   0.140   4.065  2.4100  0.0869  1.1899
  119MOL   H12438120   5.297   8.266   4.193  0.7644  2.2705  0.4074
  119MOL   H12538121   5.199   8.035   4.209  1.4383 -0.9918 -3.1233
  119MOL   H12638122   4.957   8.007   4.167  1.3203 -0.3552  0.7598
  119MOL   H12738123   4.809   8.211   4.138 -0.3655  0.6606 -2.8017
  119MOL   H12838124   4.950   0.141   4.312 -0.6460 -0.2909  1.1148
  119MOL   H12938125   4.830   0.021   4.334  2.0750  0.1026 -0.0289
  119MOL   C13038126   4.767   0.226   4.292  0.7194  0.1960 -0.4866
  119MOL   C13138127   4.809   0.344   4.200  0.0929 -0.1055  0.3329
  119MOL   C13238128   4.717   0.415   4.119  0.2434  0.1099  0.4605
  119MOL  Cl13338129   4.555   0.347   4.109 -0.0201  0.1929 -0.1468
  119MOL   C13438130   4.750   0.524   4.047  0.4375 -0.0529  0.1588
  119MOL   C13538131   4.884   0.575   4.062 -0.8304  0.8134  0.1503
  119MOL   C13638132   4.981   0.510   4.142  0.2535 -0.6434 -0.0237
  119MOL   C13738133   4.942   0.395   4.215 -0.1468 -0.1695  0.1097
  119MOL   C13838134   4.759   0.276   4.440  0.3147  0.6526  0.0775
  119MOL   H13938135   4.667   0.190   4.268  0.7957 -0.5522  0.2902
  119MOL   H14038136   4.672   0.566   3.986 -1.4842 -0.6193  2.1725
  119MOL   H14138137   4.913   0.661   4.002 -1.3471  0.9277  0.0571
  119MOL   H14238138   5.084   0.541   4.149  0.4044 -0.8547 -1.2266
  119MOL   H14338139   5.014   0.340   4.273  0.4405 -2.5923 -2.8408
  119MOL   H14438140   4.681   0.352   4.443  1.1305  1.4674  1.1594
  119MOL   H14538141   4.847   0.326   4.481 -0.1709  0.6738  1.0963
  119MOL   C14638142   4.713   0.171   4.544  0.2636 -0.2979 -0.0683
  119MOL   C14738143   4.587   0.093   4.499 -0.8451 -0.1787 -0.0832
  119MOL   C14838144   4.592   8.374   4.492  0.0898 -0.0153  0.1580
  119MOL  Cl14938145   4.735   8.280   4.535 -0.0315 -0.0582 -0.1452
  119MOL   C15038146   4.487   8.306   4.443 -0.4019  0.1086  0.3022
  119MOL   C15138147   4.362   8.369   4.416 -0.5474  0.4625 -0.0283
  119MOL   C15238148   4.347   0.091   4.432 -0.0489  0.0779  0.1276
  119MOL   C15338149   4.468   0.163   4.475  0.2028  0.0070 -0.3789
  119MOL   C15438150   4.693   0.242   4.680 -0.0891  0.0636  0.7836
  119MOL   H15538151   4.798   0.103   4.543 -0.1630 -0.8210 -0.9478
  119MOL   H15638152   4.481   8.198   4.441  0.9289  0.0472 -0.4067
  119MOL   H15738153   4.271   8.316   4.391 -0.9650  1.8839 -1.5881
  119MOL   H15838154   4.249   0.133   4.419 -0.8066 -1.5125  0.5642
  119MOL   H15938155   4.462   0.271   4.484  2.0128  0.0281  0.6976
  119MOL   H16038156   4.617   0.193   4.741 -1.0984 -0.2615 -0.7042
  119MOL   H16138157   4.668   0.345   4.655  2.8273  0.4558 -0.7636
  119MOL   C16238158   4.828   0.259   4.762 -0.7487 -1.0668  0.0150
  119MOL   C16338159   4.900   0.131   4.790  0.5289  0.3287  0.2602
  119MOL   C16438160   5.018   0.087   4.723 -0.6694  0.6605 -0.2166
  119MOL  Cl16538161   5.107   0.200   4.621 -0.2320 -0.2543 -0.4339
  119MOL   C16638162   5.079   8.384   4.753 -0.9206 -0.5781  0.2275
  119MOL   C16738163   5.031   8.305   4.849  0.6579  0.0906  0.1519
  119MOL   C16838164   4.913   8.336   4.915  0.2228  0.1072  0.4431
  119MOL   C16938165   4.846   0.033   4.882  0.4690 -0.4892  0.9450
  119MOL   C17038166   4.798   0.336   4.892 -0.1767 -0.1893 -0.0950
  119MOL   H17138167   4.898   0.318   4.702 -0.9836  0.5009  1.2481
  119MOL   H17238168   5.172   8.368   4.700  0.7432  0.6050  2.6962
  119MOL   H17338169   5.068   8.208   4.879  0.5667  0.1305  0.3912
  119MOL   H17438170   4.875   8.258   4.980  0.7826 -1.7510 -1.4017
  119MOL   H17538171   4.755   0.049   4.939  0.6562  0.3529  1.0185
  119MOL   H17638172   4.869   0.316   4.973 -0.2741 -1.5349 -0.3335
  119MOL   H17738173   4.709   0.313   4.951  0.6467  0.4741  1.4450
  119MOL   C17838174   4.788   0.486   4.875  0.5926 -0.5985  0.4755
  119MOL   C17938175   4.897   0.545   4.779 -0.2394  0.3867 -0.0652
  119MOL   C18038176   4.863   0.612   4.660 -0.3709 -0.4362  0.5369
  119MOL  Cl18138177   4.693   0.642   4.619  0.2659  0.1559 -0.0620
  119MOL   C18238178   4.960   0.651   4.565 -0.0225 -0.8567 -0.3765
  119MOL   C18338179   5.101   0.634   4.594  0.1929 -0.0581 -0.0441
  119MOL   C18438180   5.135   0.571   4.719 -0.6064  1.5380 -0.5285
  119MOL   C18538181   5.033   0.530   4.809  0.1101  0.6005  0.5696
  119MOL   C18638182   4.780   0.558   5.013  0.6657 -0.0482  0.6406
  119MOL   H18738183   4.693   0.520   4.834  0.3669 -0.0917  1.4310
  119MOL   H18838184   4.940   0.703   4.472  0.4196 -0.9822 -0.5466
  119MOL   H18938185   5.181   0.661   4.526  0.0955  1.4849  0.4499
  119MOL   H19038186   5.242   0.557   4.728 -0.8326  1.0602  1.7768
  119MOL   H19138187   5.067   0.467   4.891  0.5107  0.1455  0.0554
  119MOL   H19238188   4.864   0.517   5.069  0.5151  0.0009  0.9041
  119MOL   H19338189   4.689   0.537   5.070 -0.1338 -0.1269 -0.6495
  119MOL   C19438190   4.811   0.705   5.036  0.9060 -0.2096 -0.4788
  119MOL   C19538191   4.851   0.739   5.186 -0.1049  0.2544  0.6296
  119MOL   C19638192   4.984   0.765   5.226 -0.3146 -0.0546  0.0668
  119MOL  Cl19738193   5.124   0.762   5.123  0.0271  0.5009  0.1997
  119MOL   C19838194   5.008   0.805   5.355 -0.2042  0.3852 -0.2726
  119MOL   C19938195   4.917   0.802   5.457 -0.3223  0.1485 -0.5560
  119MOL   C20038196   4.790   0.758   5.421  0.2558 -0.1177  0.0185
  119MOL   C20138197   4.755   0.728   5.288 -0.1801  0.1921  0.2367
  119MOL   C20238198   4.691   0.785   4.981  0.3181  0.0544 -0.5132
  119MOL   H20338199   4.901   0.733   4.981 -0.0639  3.6973 -0.2308
  119MOL   H20438200   5.110   0.831   5.381 -0.1240 -1.9391  1.9361
  119MOL   H20538201   4.948   0.827   5.557  0.6977  0.7613 -1.0160
  119MOL   H20638202   4.718   0.747   5.501  0.2799 -0.1379  0.0368
  119MOL   H20738203   4.654   0.692   5.271  0.4230 -0.2076 -2.9366
  119MOL   H20838204   4.608   0.756   5.046  1.2050 -0.5132  0.3880
  119MOL   H20938205   4.672   0.768   4.875  0.7951  0.9485 -0.7443
  119MOL   C21038206   4.699   0.943   5.007 -0.0818 -0.5086  0.2240
  119MOL   C21138207   4.568   1.011   4.961 -0.0558  1.2380  0.1383
  119MOL   C21238208   4.457   1.033   5.050  0.9890 -0.2517  0.3405
  119MOL  Cl21338209   4.461   1.003   5.219  0.0757 -0.2668  0.3159
  119MOL   C21438210   4.335   1.085   4.989  0.3576  0.2575 -1.1811
  119MOL   C21538211   4.331   1.115   4.851  0.9103  1.0845 -0.2328
  119MOL   C21638212   4.434   1.087   4.765 -0.4855  0.0465  0.0898
  119MOL   C21738213   4.551   1.036   4.817 -0.1304  0.1205 -0.3737
  119MOL   C21838214   4.826   1.010   4.943  0.3354 -0.8699 -0.0053
  119MOL   H21938215   4.699   0.970   5.112  1.0141  1.5656 -0.2871
  119MOL   H22038216   4.252   1.099   5.057 -1.7420 -1.4464 -3.3309
  119MOL   H22138217   4.241   1.155   4.806  1.2734  0.0992 -1.8874
  119MOL   H22238218   4.405   1.092   4.661 -1.5726 -2.1924  0.2371
  119MOL   H22338219   4.637   1.016   4.755  0.2346  1.5617 -0.3401
  119MOL   H22438220   4.826   1.010   4.834  1.8826  1.5463 -0.0380
  119MOL   H22538221   4.916   0.951   4.962 -0.8390 -2.2079  1.6049
  119MOL   C22638222   4.854   1.158   4.996  0.2312 -0.1298  0.1870
  119MOL   C22738223   4.917   1.256   4.889  0.8823  0.1430 -0.8085
  119MOL   C22838224   4.840   1.351   4.823 -0.1152 -0.6421 -0.7320
  119MOL  Cl22938225   4.667   1.347   4.831 -0.1303 -0.2618  0.2398
  119MOL   C23038226   4.900   1.443   4.735  0.2576  0.4616 -0.2773
  119MOL   C23138227   5.040   1.439   4.714  0.2631  0.0242  0.2083
  119MOL   C23238228   5.115   1.347   4.786  0.1967 -0.2672  0.0124
  119MOL   C23338229   5.056   1.268   4.882  0.3414 -0.7124  0.6977
  119MOL   C23438230   4.937   1.155   5.134  0.3119 -0.5204  0.4789
  119MOL   H23538231   4.754   1.196   5.018  0.4584  1.3940 -1.3247
  119MOL   H23638232   4.835   1.499   4.670 -1.8611 -2.0924 -0.4619
  119MOL   H23738233   5.089   1.507   4.646  0.7960 -2.0423 -1.5517
  119MOL   H23838234   5.221   1.352   4.765  0.5592 -0.3077  1.7722
  119MOL   H23938235   5.119   1.206   4.943 -0.5834 -0.1439  2.2564
  119MOL   H24038236   5.043   1.136   5.116  0.5557  0.9942  0.3035
  119MOL   H24138237   4.904   1.071   5.195  0.5165 -1.5366 -0.7779
  119MOL   C24238238   4.926   1.281   5.222  0.5966  0.0382  0.1482
  119MOL   C24338239   5.027   1.278   5.342  0.0369  0.5374  0.0537
  119MOL   C24438240   5.144   1.354   5.327 -0.0479  0.6881  0.0796
  119MOL  Cl24538241   5.177   1.454   5.187 -0.1147 -0.4749  0.2934
  119MOL   C24638242   5.253   1.351   5.420 -0.6657 -0.0713 -0.1738
  119MOL   C24738243   5.237   1.271   5.536  0.9622 -1.1772 -1.3492
  119MOL   C24838244   5.113   1.206   5.555  0.7062 -0.6947 -0.3846
  119MOL   C24938245   5.016   1.197   5.456 -0.6436  0.2447  0.0328
  119MOL   C25038246   4.782   1.283   5.284 -0.2997 -0.6696  0.6639
  119MOL   H25138247   4.936   1.373   5.166 -2.2677 -0.8414 -1.9475
  119MOL   H25238248   5.346   1.404   5.407 -0.1215 -1.0331 -0.2260
  119MOL   H25338249   5.310   1.268   5.615 -0.9081 -3.2425  0.3931
  119MOL   H25438250   5.087   1.151   5.644  2.9618  0.1150  0.8298
  119MOL   H25538251   4.931   1.133   5.473 -1.2633  0.9082 -0.5610
  119MOL   H25638252   4.795   1.293   5.392 -1.8333  1.7198  0.6663
  119MOL   H25738253   4.735   1.186   5.273 -0.6066 -0.8433  3.3094
  119MOL   C25838254   4.684   1.396   5.239 -0.5894 -0.3297 -0.1224
  119MOL   C25938255   4.747   1.535   5.258  0.0537 -0.0266  0.6084
  119MOL   C26038256   4.786   1.597   5.381  0.8584  0.9544  0.4149
  119MOL  Cl26138257   4.750   1.518   5.534  0.3361 -0.0405  0.1272
  119MOL   C26238258   4.863   1.717   5.390 -0.7681 -0.1149 -0.2366
  119MOL   C26338259   4.888   1.779   5.275 -0.0011  0.6612  0.4828
  119MOL   C26438260   4.845   1.728   5.145  0.1672  0.1268 -0.9597
  119MOL   C26538261   4.779   1.602   5.138 -0.2029 -0.2879  0.1718
  119MOL   C26638262   4.551   1.381   5.312 -0.2673  0.2552 -0.0544
  119MOL   H26738263   4.678   1.387   5.130  1.1880  2.4453 -0.4874
  119MOL   H26838264   4.899   1.749   5.487  0.4539  1.4432 -1.1760
  119MOL   H26938265   4.946   1.870   5.278 -0.1741  0.7805  0.2049
  119MOL   H27038266   4.873   1.777   5.052  0.4974 -2.1878 -2.1076
  119MOL   H27138267   4.744   1.571   5.041 -0.0851  1.0730 -0.3262
  119MOL   H27238268   4.554   1.402   5.419  1.2304  1.3164 -0.2885
  119MOL   H27338269   4.517   1.277   5.310 -2.7327  1.0490 -3.2003
  119MOL   C27438270   4.438   1.471   5.274 -0.2478  0.3279 -0.0402
  119MOL   C27538271   4.327   1.469   5.381 -0.3928 -0.1432  0.3012
  119MOL   C27638272   4.297   1.583   5.454  0.6436 -1.3097  0.0063
  119MOL  Cl27738273   4.360   1.738   5.426  0.0355 -0.0642  0.0461
  119MOL   C27838274   4.207   1.565   5.561 -0.1461  0.6155 -0.0448
  119MOL   C27938275   4.146   1.443   5.592 -0.6928  0.5299 -0.6166
  119MOL   C28038276   4.165   1.334   5.506 -0.6475  0.1646 -1.2317
  119MOL   C28138277   4.267   1.347   5.412  0.1465  0.2157 -0.2820
  119MOL   C28238278   4.395   1.446   5.133 -0.2319  0.1963 -0.1209
  119MOL   H28338279   4.474   1.574   5.269  0.6182 -0.0178 -1.0411
  119MOL   H28438280   4.189   1.654   5.619 -0.4217 -0.4129  1.4647
  119MOL   H28538281   4.082   1.420   5.677  1.1973 -1.4049  0.3448
  119MOL   H28638282   4.110   1.244   5.529 -0.5673  0.3113 -0.4566
  119MOL   H28738283   4.300   1.261   5.354  2.4017  2.1029 -1.8939
  119MOL   H28838284   4.338   1.353   5.130  1.7734 -1.0797  0.4960
  119MOL   H28938285   4.475   1.441   5.059 -0.1486 -3.2457  0.1185
  119MOL   C29038286   4.300   1.559   5.067 -0.3073  0.6841  0.5014
  119MOL   C29138287   4.223   1.509   4.938 -0.4541  0.4785  0.1562
  119MOL   C29238288   4.085   1.485   4.943 -0.1883  0.4818 -0.1330
  119MOL  Cl29338289   3.995   1.505   5.096  0.4417  0.1878  0.5066
  119MOL   C29438290   4.017   1.438   4.829 -0.0651 -0.3101  0.3747
  119MOL   C29538291   4.086   1.403   4.714  0.3447 -0.2545  0.0923
  119MOL   C29638292   4.227   1.420   4.707  0.6667  0.7806  0.0037
  119MOL   C29738293   4.294   1.479   4.818 -0.4869 -1.1878 -0.0723
  119MOL   C29838294   4.375   1.689   5.044  0.5232  0.5352 -0.0521
  119MOL   H29938295   4.234   1.582   5.150 -0.1750  3.6678 -0.1561
  119MOL   H30038296   3.914   1.419   4.804  1.2781 -2.7884 -3.7743
  119MOL   H30138297   4.036   1.367   4.625  0.8771  2.0194 -1.1892
  119MOL   H30238298   4.267   1.390   4.611 -0.0689  1.4272 -0.5101
  119MOL   H30338299   4.401   1.492   4.820 -0.9108  2.8894 -0.2727
  119MOL   H30438300   4.431   1.665   4.954 -0.9376 -1.4495 -0.4952
  119MOL   H30538301   4.454   1.708   5.117  0.4352  0.6853  0.0033
  119MOL   C30638302   4.297   1.822   5.036 -0.4278 -0.0979 -0.5608
  119MOL   C30738303   4.177   1.832   4.942 -0.2891  0.4039 -0.3179
  119MOL   C30838304   4.182   1.810   4.801 -0.6359  0.8791 -0.6472
  119MOL  Cl30938305   4.327   1.792   4.718  0.2300  0.2698  0.1803
  119MOL   C31038306   4.061   1.810   4.729  0.4077 -0.6752  0.1643
  119MOL   C31138307   3.937   1.843   4.790  0.0416  0.2408  0.4202
  119MOL   C31238308   3.935   1.850   4.933  0.0542 -0.6522  0.4871
  119MOL   C31338309   4.054   1.844   5.003  0.4010 -0.5592  0.3767
  119MOL   C31438310   4.384   1.943   5.018  0.1632  0.1127  0.3137
  119MOL   H31538311   4.256   1.836   5.136  2.1759 -0.0696  0.5571
  119MOL   H31638312   4.062   1.800   4.622  2.5551 -0.1288  0.1107
  119MOL   H31738313   3.852   1.861   4.726  1.1843  1.8343 -0.6733
  119MOL   H31838314   3.854   1.893   4.990  1.0158  1.2462  0.4506
  119MOL   H31938315   4.048   1.848   5.111  2.7111 -1.3300  0.5517
  119MOL   H32038316   4.399   1.952   4.910 -1.6572  3.1225  0.2458
  119MOL   H32138317   4.466   1.950   5.089 -0.3570  1.6769  0.7732
  119MOL   H32238318   4.318   2.027   5.040 -0.2827 -0.2761  0.4731
  120MOL     C138319   6.151   1.450   3.978 -0.2196 -0.2213 -0.4520
  120MOL     C238320   6.124   1.317   3.919  0.7637 -0.2407 -0.0366
  120MOL     C338321   6.080   1.208   4.000 -0.2510  0.3044  0.3267
  120MOL    Cl438322   6.109   1.213   4.170 -0.0920  0.1234  0.0780
  120MOL     C538323   6.047   1.091   3.935  0.3011  0.0250  0.0703
  120MOL     C638324   6.051   1.077   3.791  0.4248  0.2845  0.2459
  120MOL     C738325   6.080   1.188   3.709  0.2953  0.6126 -0.7317
  120MOL     C838326   6.120   1.302   3.777  0.2251  0.3322  0.1739
  120MOL     C938327   6.048   1.554   3.937  0.2689 -0.0054  0.2905
  120MOL    H1038328   6.169   1.448   4.086  0.4780 -0.1906 -0.5644
  120MOL    H1138329   5.998   1.007   3.981  0.1205  0.5906  0.9244
  120MOL    H1238330   6.011   0.987   3.745  1.0226  0.2607 -0.2359
  120MOL    H1338331   6.076   1.182   3.602 -1.9803  0.5838 -0.6707
  120MOL    H1438332   6.146   1.397   3.733  0.1188  0.7796  1.0739
  120MOL    H1538333   5.951   1.515   3.969 -0.2605  1.1204  0.1085
  120MOL    H1638334   6.039   1.559   3.829 -0.6837  1.1040  0.4052
  120MOL    H1738335   6.248   1.475   3.936  0.1004  2.1624  1.5575
  120MOL    C1838336   6.074   1.700   3.993 -0.0486  0.3085 -0.4529
  120MOL    C1938337   5.943   1.773   4.035 -0.4198  0.2298 -0.0837
  120MOL    C2038338   5.907   1.769   4.173  0.2068 -0.6580  0.1426
  120MOL   Cl2138339   5.987   1.673   4.292 -0.2198  0.0294 -1.0778
  120MOL    C2238340   5.786   1.836   4.206 -0.5978 -0.3606  0.0514
  120MOL    C2338341   5.704   1.900   4.112  0.1744 -0.5952  0.2992
  120MOL    C2438342   5.743   1.907   3.978  0.4630  0.7786  0.0092
  120MOL    C2538343   5.866   1.845   3.942  0.4396 -0.0898  0.1610
  120MOL    C2638344   6.143   1.772   3.873  0.4191  0.4172  0.4168
  120MOL    H2738345   6.146   1.690   4.075 -1.0252 -2.3492  0.1529
  120MOL    H2838346   5.749   1.833   4.307 -1.0904  1.7575 -0.0458
  120MOL    H2938347   5.610   1.945   4.141 -0.5369 -2.0714  0.3222
  120MOL    H3038348   5.681   1.957   3.905 -1.3442  0.2547  1.1478
  120MOL    H3138349   5.886   1.864   3.837 -1.0848  0.3665 -0.0631
  120MOL    H3238350   6.081   1.785   3.784  1.9658 -0.4503 -0.8154
  120MOL    H3338351   6.228   1.711   3.843  1.3635  1.0627  1.7235
  120MOL    C3438352   6.192   1.919   3.887  1.0098 -0.0568  1.2590
  120MOL    C3538353   6.202   1.992   3.756 -0.0836  0.3421 -0.7323
  120MOL    C3638354   6.313   1.959   3.667  0.2326  0.5062  0.6777
  120MOL   Cl3738355   6.435   1.847   3.708  0.4273  0.1730  0.0857
  120MOL    C3838356   6.325   2.028   3.551  0.4743  0.0359  0.3161
  120MOL    C3938357   6.228   2.122   3.514  0.0776  0.4659  0.5703
  120MOL    C4038358   6.121   2.155   3.598  0.3413 -0.7504 -0.2997
  120MOL    C4138359   6.103   2.086   3.721  0.5197 -0.2130 -0.5502
  120MOL    C4238360   6.307   1.932   3.988 -0.5017  0.3243  0.2212
  120MOL    H4338361   6.101   1.970   3.919  0.7045  1.8248 -2.2524
  120MOL    H4438362   6.420   2.005   3.504 -0.4412 -0.6770 -1.2382
  120MOL    H4538363   6.235   2.165   3.415  0.3992  0.2417  0.4943
  120MOL    H4638364   6.054   2.235   3.571  0.7842  0.3862  1.8229
  120MOL    H4738365   6.022   2.105   3.789 -0.5720 -2.1193 -1.3003
  120MOL    H4838366   6.392   1.977   3.937 -1.2000 -0.5848 -1.7875
  120MOL    H4938367   6.352   1.834   4.002  2.6679  1.9128  1.7667
  120MOL    C5038368   6.274   2.006   4.123  0.1260  0.2464  0.0466
  120MOL    C5138369   6.220   2.144   4.094 -0.4627 -0.0568  0.1805
  120MOL    C5238370   6.098   2.185   4.149  0.2797 -0.0077  0.3891
  120MOL   Cl5338371   6.001   2.081   4.246 -0.0947  0.3973  0.2238
  120MOL    C5438372   6.052   2.316   4.133 -0.2367  0.1625 -0.7103
  120MOL    C5538373   6.124   2.408   4.056  0.3743 -0.2756  0.1733
  120MOL    C5638374   6.248   2.374   3.999  0.4826 -0.6469 -0.0321
  120MOL    C5738375   6.294   2.240   4.020  0.2545  0.4804 -0.2781
  120MOL    C5838376   6.395   2.018   4.215  0.4061  0.2036  0.4746
  120MOL    H5938377   6.203   1.947   4.181 -0.3609  1.1643  0.3898
  120MOL    H6038378   5.961   2.346   4.183 -0.6916  2.0795 -2.6288
  120MOL    H6138379   6.089   2.507   4.031 -1.8975 -1.2650 -0.7352
  120MOL    H6238380   6.305   2.449   3.947 -3.0601  0.8427 -1.9415
  120MOL    H6338381   6.389   2.210   3.979  0.8998  3.2139 -0.8237
  120MOL    H6438382   6.367   2.075   4.303 -0.2264  0.8786 -0.1472
  120MOL    H6538383   6.463   2.091   4.173  0.8109 -0.3916  0.0822
  120MOL    C6638384   6.474   1.888   4.255 -0.3040  0.2098 -0.0847
  120MOL    C6738385   6.396   1.796   4.358 -0.6108 -0.1556  0.1520
  120MOL    C6838386   6.378   1.658   4.335  0.4948 -1.0950  0.1304
  120MOL   Cl6938387   6.420   1.577   4.190 -0.2597 -0.0807  0.0722
  120MOL    C7038388   6.308   1.575   4.431 -0.6212  0.0727 -0.0119
  120MOL    C7138389   6.263   1.627   4.548  0.2731 -1.1206 -0.5830
  120MOL    C7238390   6.290   1.760   4.578 -0.5989  0.2195 -0.4449
  120MOL    C7338391   6.363   1.838   4.486  0.8197 -1.0148  0.7511
  120MOL    C7438392   6.601   1.932   4.326  0.4006  0.5627  0.3112
  120MOL    H7538393   6.508   1.831   4.168 -0.3315  2.9470 -1.9653
  120MOL    H7638394   6.284   1.471   4.413 -1.1815 -0.1972  2.1748
  120MOL    H7738395   6.209   1.564   4.617 -4.7574  0.8295 -2.5602
  120MOL    H7838396   6.251   1.796   4.672 -1.9757  5.2993 -2.7558
  120MOL    H7938397   6.380   1.940   4.519 -0.8754 -0.7630  0.8630
  120MOL    H8038398   6.635   1.843   4.379 -0.3820  0.5982  0.8829
  120MOL    H8138399   6.577   2.004   4.403 -1.4991 -1.2543  1.4788
  120MOL    C8238400   6.734   1.986   4.249 -0.0406  0.3263  0.0120
  120MOL    C8338401   6.802   1.880   4.163 -0.6643 -0.3469 -0.1862
  120MOL    C8438402   6.776   1.866   4.022 -0.1546  0.1251  0.4968
  120MOL   Cl8538403   6.662   1.974   3.939  0.1788 -0.1392  0.7022
  120MOL    C8638404   6.845   1.762   3.959 -0.1606  0.3130 -0.1732
  120MOL    C8738405   6.921   1.663   4.039 -0.2702  0.0181 -0.1125
  120MOL    C8838406   6.947   1.687   4.173 -0.1880 -0.2212  0.6454
  120MOL    C8938407   6.882   1.792   4.234  0.2479 -0.1548  0.0572
  120MOL    C9038408   6.849   2.048   4.339 -0.6489  0.3442 -0.0158
  120MOL    H9138409   6.698   2.064   4.181  0.4361  0.7043  0.1862
  120MOL    H9238410   6.826   1.739   3.855 -2.3049  1.2966 -0.0162
  120MOL    H9338411   6.959   1.574   3.992 -0.1575 -0.5781  1.1033
  120MOL    H9438412   7.002   1.618   4.236 -0.4075  0.2442  1.3530
  120MOL    H9538413   6.894   1.784   4.341 -0.9673 -1.0108  0.1413
  120MOL    H9638414   6.938   2.062   4.277  1.5006 -0.0229  2.8635
  120MOL    H9738415   6.879   1.989   4.426 -0.6630  0.3801  0.0141
  120MOL    C9838416   6.817   2.192   4.391 -0.0672  0.0952  0.3742
  120MOL    C9938417   6.785   2.282   4.271  0.0409 -0.0036  0.3211
  120MOL   C10038418   6.662   2.338   4.252  0.4512  0.0887 -0.2483
  120MOL  Cl10138419   6.528   2.332   4.363 -0.2176 -0.0310  0.1408
  120MOL   C10238420   6.629   2.399   4.133  0.0647  0.9358  0.7059
  120MOL   C10338421   6.717   2.409   4.023 -0.0935 -0.3443 -0.3696
  120MOL   C10438422   6.842   2.359   4.046 -0.4356  0.2022  0.1009
  120MOL   C10538423   6.875   2.300   4.165  0.0998  0.6647  0.2827
  120MOL   C10638424   6.915   2.253   4.492  0.0478 -0.8626 -0.3633
  120MOL   H10738425   6.722   2.183   4.444 -1.8428 -1.1041 -2.8873
  120MOL   H10838426   6.528   2.437   4.125 -1.1050 -2.1072 -0.0282
  120MOL   H10938427   6.692   2.444   3.924 -2.1617 -0.7721 -0.0171
  120MOL   H11038428   6.901   2.348   3.956  0.5224  0.8375  0.6461
  120MOL   H11138429   6.965   2.241   4.164  0.0324  0.5459 -1.3568
  120MOL   H11238430   6.891   2.358   4.509 -0.3290 -1.0967  0.5781
  120MOL   H11338431   7.013   2.258   4.444  1.2000 -0.1294  1.9958
  120MOL   C11438432   6.944   2.155   4.621  0.5488  0.3696  0.3251
  120MOL   C11538433   6.830   2.155   4.727  0.2780  0.5314 -0.5641
  120MOL   C11638434   6.740   2.042   4.743  0.2493 -0.3012  0.9422
  120MOL  Cl11738435   6.758   1.895   4.657 -0.0778 -0.0648  0.2516
  120MOL   C11838436   6.633   2.056   4.826 -0.8605 -0.3998  0.6639
  120MOL   C11938437   6.614   2.168   4.912 -0.0493  0.1237  0.0797
  120MOL   C12038438   6.705   2.276   4.901  0.0139  0.1779 -0.1974
  120MOL   C12138439   6.808   2.268   4.809 -0.5207 -0.0492 -0.4853
  120MOL   C12238440   7.075   2.194   4.686  0.0216  0.1699  0.0834
  120MOL   H12338441   6.962   2.052   4.590 -3.6925  0.2357 -1.9681
  120MOL   H12438442   6.567   1.971   4.832 -2.7791  1.1750  2.1874
  120MOL   H12538443   6.526   2.178   4.974  0.9857  1.7476  1.3181
  120MOL   H12638444   6.678   2.363   4.959  0.5522  0.4582 -0.3666
  120MOL   H12738445   6.876   2.352   4.805 -0.1929 -0.1536  2.0603
  120MOL   H12838446   7.078   2.160   4.789 -1.4207 -2.3230 -0.6621
  120MOL   H12938447   7.098   2.300   4.703  0.3359 -0.1240  1.5295
  120MOL   C13038448   7.203   2.142   4.612 -0.2006 -0.2914  0.5641
  120MOL   C13138449   7.225   1.994   4.618 -0.5251  0.3783  0.3638
  120MOL   C13238450   7.251   1.920   4.498 -0.4407 -0.2762 -0.0066
  120MOL  Cl13338451   7.249   1.988   4.340 -0.0767  0.4666  0.3584
  120MOL   C13438452   7.262   1.778   4.503 -0.5041  0.2271  0.6532
  120MOL   C13538453   7.253   1.704   4.620  0.3655 -0.1120  0.0214
  120MOL   C13638454   7.229   1.774   4.741 -0.0198  0.0695  0.4323
  120MOL   C13738455   7.224   1.920   4.741 -0.2766 -0.5392  0.1034
  120MOL   C13838456   7.334   2.220   4.661  0.0418 -0.5284 -0.6231
  120MOL   H13938457   7.195   2.177   4.509  2.0060 -0.5693  0.2695
  120MOL   H14038458   7.277   1.729   4.408  2.2974 -0.0578  1.2044
  120MOL   H14138459   7.246   1.597   4.607 -0.6566  0.1619 -1.8812
  120MOL   H14238460   7.206   1.718   4.831 -0.1027 -0.6823 -0.0526
  120MOL   H14338461   7.207   1.970   4.835 -2.5312  0.4008 -0.7781
  120MOL   H14438462   7.421   2.156   4.649  0.8347  0.9387 -2.8990
  120MOL   H14538463   7.321   2.228   4.769  0.3634  2.4522 -0.7758
  120MOL   C14638464   7.350   2.360   4.590 -0.4114  0.1247 -0.2586
  120MOL   C14738465   7.403   2.348   4.444  0.0958 -0.5347 -0.6858
  120MOL   C14838466   7.334   2.412   4.333  0.4999 -0.3337  0.5364
  120MOL  Cl14938467   7.188   2.495   4.349 -0.3422  0.1235 -0.6310
  120MOL   C15038468   7.392   2.413   4.206 -0.4072 -0.1447 -0.7850
  120MOL   C15138469   7.510   2.344   4.185 -0.2500  0.0187 -0.1019
  120MOL   C15238470   7.582   2.287   4.290 -0.2613  0.7399 -0.1854
  120MOL   C15338471   7.532   2.291   4.422  0.6922  0.0099  0.2749
  120MOL   C15438472   7.443   2.453   4.676  0.7875 -0.0099 -0.0977
  120MOL   H15538473   7.252   2.405   4.576 -0.6807 -0.5865 -0.7396
  120MOL   H15638474   7.343   2.456   4.120 -0.0690  2.0561  0.0866
  120MOL   H15738475   7.549   2.340   4.084  1.4625 -1.1827  0.5964
  120MOL   H15838476   7.667   2.228   4.259 -0.2375  1.2874 -1.1974
  120MOL   H15938477   7.596   2.262   4.505  1.7154 -0.2624 -0.6043
  120MOL   H16038478   7.504   2.516   4.611  2.5204 -0.8726  0.6335
  120MOL   H16138479   7.514   2.384   4.722  0.1907 -1.3181 -1.1002
  120MOL   C16238480   7.370   2.537   4.789  0.5238 -0.5747  0.7104
  120MOL   C16338481   7.332   2.678   4.725  0.3150 -0.6007  0.0437
  120MOL   C16438482   7.199   2.707   4.680 -0.9974 -0.2438 -0.7305
  120MOL  Cl16538483   7.076   2.580   4.686 -0.4058  0.2747  0.1034
  120MOL   C16638484   7.175   2.828   4.617  0.2910 -0.8157  0.0999
  120MOL   C16738485   7.278   2.924   4.613 -0.6656  0.1064  0.7816
  120MOL   C16838486   7.409   2.900   4.650  0.6834  0.1736  0.0901
  120MOL   C16938487   7.430   2.778   4.710 -0.7236  0.1293  0.2784
  120MOL   C17038488   7.452   2.540   4.921  1.1239  0.7321 -0.6439
  120MOL   H17138489   7.278   2.481   4.807  0.1266 -0.5912 -1.2980
  120MOL   H17238490   7.085   2.853   4.563  1.1063 -0.7568 -1.2493
  120MOL   H17338491   7.254   3.016   4.563  0.4428  0.9464  1.7942
  120MOL   H17438492   7.484   2.976   4.635 -0.4421  0.8138 -2.5736
  120MOL   H17538493   7.534   2.750   4.726 -0.5460  1.0465  0.7463
  120MOL   H17638494   7.501   2.637   4.926  1.4220  0.5659 -0.2881
  120MOL   H17738495   7.536   2.471   4.912 -1.0708 -2.2003  0.6661
  120MOL   C17838496   7.370   2.497   5.036  0.1251  0.3306 -0.3715
  120MOL   C17938497   7.247   2.589   5.071 -0.1257  0.0798 -0.0900
  120MOL   C18038498   7.117   2.551   5.056 -0.0451 -0.2151 -0.0057
  120MOL  Cl18138499   7.075   2.381   5.026 -0.0607  0.0007  0.1605
  120MOL   C18238500   7.008   2.644   5.070 -1.2822 -0.2346 -0.2217
  120MOL   C18338501   7.035   2.778   5.087  0.5582  0.0581  0.0403
  120MOL   C18438502   7.164   2.819   5.109 -0.2181  0.0673  0.5576
  120MOL   C18538503   7.268   2.727   5.096  0.2276  0.0952 -0.1944
  120MOL   C18638504   7.467   2.483   5.158  0.4143  0.1933 -0.2248
  120MOL   H18738505   7.328   2.398   5.019  0.4698  0.0544  0.3602
  120MOL   H18838506   6.907   2.608   5.056 -0.9379 -0.7952 -1.2640
  120MOL   H18938507   6.953   2.848   5.094  0.2743 -0.1847 -0.7580
  120MOL   H19038508   7.186   2.924   5.120 -0.8801  0.1781  0.8169
  120MOL   H19138509   7.371   2.761   5.102 -0.1059  1.1654 -0.4326
  120MOL   H19238510   7.408   2.503   5.247  1.5885  0.2132  0.5627
  120MOL   H19338511   7.526   2.573   5.177  0.8490  0.5766 -3.0953
  120MOL   C19438512   7.541   2.342   5.174  0.2367 -0.2669 -0.2256
  120MOL   C19538513   7.446   2.219   5.196 -0.7978  0.1620  0.4318
  120MOL   C19638514   7.425   2.112   5.100 -0.2837 -0.9376 -0.3227
  120MOL  Cl19738515   7.510   2.109   4.950  0.6944 -0.3247  0.0153
  120MOL   C19838516   7.345   2.002   5.138  0.2225  0.4335 -0.1918
  120MOL   C19938517   7.279   1.996   5.261  0.3152  0.1010  0.2094
  120MOL   C20038518   7.300   2.097   5.355  0.0299 -0.0735 -0.0084
  120MOL   C20138519   7.385   2.204   5.324  0.0012 -0.0125  0.1762
  120MOL   C20238520   7.659   2.342   5.277  0.5323  0.3942 -0.5048
  120MOL   H20338521   7.587   2.332   5.076 -1.4314 -3.9553 -0.7083
  120MOL   H20438522   7.337   1.929   5.058  4.2209 -0.4065  0.0918
  120MOL   H20538523   7.213   1.915   5.286 -1.1338  0.6684 -1.6687
  120MOL   H20638524   7.252   2.088   5.452  1.3025  0.7640  0.7091
  120MOL   H20738525   7.399   2.283   5.396  1.0661  1.9233 -2.0829
  120MOL   H20838526   7.659   2.237   5.304  0.9624  0.0863 -1.6655
  120MOL   H20938527   7.629   2.407   5.359  1.3330  0.0823  0.0423
  120MOL   C21038528   7.797   2.394   5.237 -0.6264  0.2783 -0.5837
  120MOL   C21138529   7.832   2.323   5.105 -0.1774 -0.1979 -0.0601
  120MOL   C21238530   7.850   2.393   4.982 -0.1946 -0.0910 -0.0879
  120MOL  Cl21338531   7.836   2.563   4.973  0.4158 -0.0559 -0.1706
  120MOL   C21438532   7.882   2.316   4.869  0.2388 -0.2650  0.8365
  120MOL   C21538533   7.896   2.177   4.873 -0.3045  0.2824  0.0034
  120MOL   C21638534   7.883   2.112   4.994 -0.0786  0.1888  0.2149
  120MOL   C21738535   7.851   2.183   5.106 -0.3763 -0.0974 -0.4905
  120MOL   C21838536   7.900   2.393   5.356  1.0604  0.0984  0.0297
  120MOL   H21938537   7.792   2.499   5.208  1.4996  0.3616 -0.7419
  120MOL   H22038538   7.899   2.370   4.777  1.1485 -0.3643  0.9414
  120MOL   H22138539   7.931   2.123   4.787  0.9394  2.5950 -1.0106
  120MOL   H22238540   7.893   2.005   5.006  0.5914  0.3635  1.3726
  120MOL   H22338541   7.847   2.133   5.202  4.5288  0.2339 -0.0315
  120MOL   H22438542   7.999   2.404   5.313  0.8171 -0.7971 -0.7696
  120MOL   H22538543   7.915   2.294   5.399  0.1021  0.1535  0.5055
  120MOL   C22638544   7.874   2.495   5.472 -0.4328  0.4177 -0.3152
  120MOL   C22738545   7.940   2.630   5.431  0.0886 -0.0915  0.0105
  120MOL   C22838546   7.885   2.725   5.339 -0.0719 -0.4527 -0.3927
  120MOL  Cl22938547   7.716   2.726   5.298  0.0153 -0.0908  0.0394
  120MOL   C23038548   7.961   2.823   5.282  0.7112 -0.4949  0.6620
  120MOL   C23138549   8.095   2.832   5.323 -0.5039 -0.6325 -0.3205
  120MOL   C23238550   8.153   2.750   5.422 -0.1121 -0.2292 -0.2903
  120MOL   C23338551   8.068   2.652   5.482 -0.4757  0.7358  0.0786
  120MOL   C23438552   7.917   2.436   5.608  0.4622  0.4671  0.0636
  120MOL   H23538553   7.768   2.519   5.474  0.0268  2.5848 -0.9109
  120MOL   H23638554   7.943   2.889   5.198  0.3858 -1.8589 -0.3664
  120MOL   H23738555   8.160   2.898   5.269 -0.7269  0.4183  0.6771
  120MOL   H23838556   8.255   2.762   5.456  0.5210 -3.6989 -0.7594
  120MOL   H23938557   8.117   2.584   5.550  1.1476  0.4512 -1.3534
  120MOL   H24038558   7.944   2.509   5.683  0.1045 -0.5629  1.2151
  120MOL   H24138559   8.011   2.383   5.587  0.2294  0.0976 -0.0582
  120MOL   C24238560   7.813   2.341   5.683 -0.6451  0.3306  0.0123
  120MOL   C24338561   7.850   2.322   5.825  0.5776 -0.1637 -0.5309
  120MOL   C24438562   7.786   2.397   5.928  0.1385  0.0559 -0.0930
  120MOL  Cl24538563   7.662   2.509   5.897 -0.3344  0.1961 -0.0431
  120MOL   C24638564   7.829   2.384   6.060  0.1314 -0.7974 -0.0515
  120MOL   C24738565   7.924   2.291   6.092  0.3462  0.1358 -0.0908
  120MOL   C24838566   7.980   2.206   5.990  0.5696 -0.5587  0.4309
  120MOL   C24938567   7.945   2.223   5.855  0.5456  0.3004 -0.0161
  120MOL   C25038568   7.785   2.210   5.598 -0.0509 -0.6041 -0.5956
  120MOL   H25138569   7.720   2.397   5.684 -1.2566 -0.6777  0.2405
  120MOL   H25238570   7.785   2.446   6.137 -1.2209 -0.1442 -1.3134
  120MOL   H25338571   7.962   2.297   6.193  1.7562  1.4730 -0.6962
  120MOL   H25438572   8.062   2.143   6.020  2.9997  1.2743 -2.1500
  120MOL   H25538573   7.999   2.164   5.783  0.6596  2.0510 -1.3985
  120MOL   H25638574   7.885   2.167   5.591  0.6875  1.1357 -0.8525
  120MOL   H25738575   7.743   2.224   5.498  1.9747 -0.2270 -1.4190
  120MOL   C25838576   7.711   2.092   5.676 -0.0078 -0.0265  0.3399
  120MOL   C25938577   7.716   1.962   5.590  0.2464  0.4753  0.7131
  120MOL   C26038578   7.769   1.845   5.649 -0.2651  0.0797  0.5610
  120MOL  Cl26138579   7.820   1.837   5.815  0.1763 -0.1943 -0.0431
  120MOL   C26238580   7.773   1.725   5.563  0.2483  0.5976 -0.0194
  120MOL   C26338581   7.733   1.732   5.428  0.1665 -0.7232  0.3481
  120MOL   C26438582   7.680   1.851   5.374 -0.3432  0.1843 -0.2555
  120MOL   C26538583   7.671   1.964   5.455 -0.5185  0.2622 -0.1415
  120MOL   C26638584   7.562   2.132   5.699  0.0601 -1.0903 -0.6388
  120MOL   H26738585   7.758   2.085   5.774 -1.6278 -1.1915  1.0653
  120MOL   H26838586   7.808   1.631   5.603  1.2480  1.5395  1.3343
  120MOL   H26938587   7.744   1.645   5.364 -1.5382 -1.1086  0.5750
  120MOL   H27038588   7.658   1.860   5.269  1.1297 -1.5476 -0.7295
  120MOL   H27138589   7.627   2.059   5.429  0.3820  0.5722 -0.5456
  120MOL   H27238590   7.502   2.116   5.610 -1.5756  2.6695 -0.3050
  120MOL   H27338591   7.550   2.239   5.718 -2.0882 -1.5289  0.5851
  120MOL   C27438592   7.483   2.058   5.812  0.8019  0.4903  0.7958
  120MOL   C27538593   7.335   2.083   5.807 -0.0187  0.9212 -0.3647
  120MOL   C27638594   7.243   1.986   5.768 -0.2290 -0.0815 -0.5262
  120MOL  Cl27738595   7.300   1.823   5.731 -0.0971  0.1415 -0.3447
  120MOL   C27838596   7.104   2.007   5.763 -0.1562  0.0076  0.3660
  120MOL   C27938597   7.061   2.140   5.775 -0.0549 -0.9136 -0.1727
  120MOL   C28038598   7.154   2.245   5.803 -0.3212  0.5480  0.4132
  120MOL   C28138599   7.286   2.214   5.829  0.1499  0.2808  0.4723
  120MOL   C28238600   7.536   2.097   5.948 -0.4984  0.1454 -0.1732
  120MOL   H28338601   7.498   1.951   5.807 -3.0600 -0.0474 -0.8360
  120MOL   H28438602   7.032   1.934   5.728  0.9916 -0.5290 -0.9204
  120MOL   H28538603   6.955   2.145   5.755 -0.5436 -4.5228  1.1605
  120MOL   H28638604   7.109   2.343   5.814  0.0931  0.4270  3.7361
  120MOL   H28738605   7.349   2.298   5.856 -1.2774  1.4864  0.0831
  120MOL   H28838606   7.536   2.203   5.972 -1.2172  0.6052 -2.1313
  120MOL   H28938607   7.643   2.077   5.953 -0.4891 -0.0326 -1.0709
  120MOL   C29038608   7.475   2.026   6.068 -0.1584  0.5812 -0.7246
  120MOL   C29138609   7.489   2.122   6.189 -0.2680 -1.2559 -1.3010
  120MOL   C29238610   7.375   2.171   6.258 -0.3598 -0.3335 -0.0063
  120MOL  Cl29338611   7.215   2.124   6.207 -0.2928 -0.1898  0.1034
  120MOL   C29438612   7.390   2.268   6.357  0.5873  0.4920  0.2228
  120MOL   C29538613   7.525   2.305   6.391  0.7310  0.1455  0.1442
  120MOL   C29638614   7.635   2.259   6.324 -0.4284 -0.7179  0.0675
  120MOL   C29738615   7.618   2.166   6.221  0.4963 -1.0477 -0.3186
  120MOL   C29838616   7.548   1.888   6.098  0.4318 -0.7409 -0.0860
  120MOL   H29938617   7.370   2.004   6.049 -1.0542  0.9781  3.2467
  120MOL   H30038618   7.312   2.321   6.409  0.4634 -1.0261  1.6378
  120MOL   H30138619   7.544   2.366   6.478 -2.4319  1.9824 -0.3913
  120MOL   H30238620   7.731   2.297   6.355 -1.4447 -0.4272  2.9479
  120MOL   H30338621   7.705   2.125   6.172  0.8911 -1.5728  0.7979
  120MOL   H30438622   7.656   1.904   6.097  0.1488  1.2448 -0.4695
  120MOL   H30538623   7.528   1.818   6.017 -0.4953  0.0113 -0.4992
  120MOL   C30638624   7.504   1.817   6.228 -0.3402  0.1536  0.0989
  120MOL   C30738625   7.598   1.701   6.266 -0.5655  0.3849  0.0570
  120MOL   C30838626   7.712   1.715   6.348  0.5834 -1.0066 -0.9645
  120MOL  Cl30938627   7.753   1.875   6.406  0.1984 -0.3695 -0.0108
  120MOL   C31038628   7.801   1.607   6.365 -0.3445  0.0835 -0.2748
  120MOL   C31138629   7.768   1.478   6.316  0.2526  0.4867  0.5298
  120MOL   C31238630   7.655   1.468   6.235 -0.2144 -0.0284  0.6031
  120MOL   C31338631   7.570   1.578   6.208 -0.0663  0.5581  0.6047
  120MOL   C31438632   7.350   1.782   6.230 -0.1181 -0.2138 -0.4124
  120MOL   H31538633   7.514   1.890   6.308 -0.8807  1.6844 -1.2078
  120MOL   H31638634   7.884   1.634   6.429 -1.1549 -1.2721  1.3894
  120MOL   H31738635   7.834   1.397   6.343 -0.0447 -0.3697 -1.2774
  120MOL   H31838636   7.645   1.372   6.186 -0.1163  0.3766 -0.2110
  120MOL   H31938637   7.478   1.568   6.153 -0.0772  1.8612  0.3791
  120MOL   H32038638   7.320   1.701   6.163 -1.1271 -2.6604  2.8351
  120MOL   H32138639   7.300   1.874   6.200  0.4592  0.1321 -0.3169
  120MOL   H32238640   7.332   1.756   6.335 -1.2998  2.4446  0.0684
  121MOL     C138641   7.567   4.740   8.150 -0.1288  0.0739 -0.3388
  121MOL     C238642   7.653   4.633   8.080  0.1496 -0.3581  0.5531
  121MOL     C338643   7.725   4.541   8.157 -0.2656  0.1715 -0.3117
  121MOL    Cl438644   7.722   4.543   8.333 -0.1478 -0.6408  0.1005
  121MOL     C538645   7.797   4.437   8.097 -0.4860  0.0636 -0.0173
  121MOL     C638646   7.804   4.423   7.956  0.4747  0.1425 -0.1040
  121MOL     C738647   7.719   4.515   7.882  0.4350  0.0698 -0.9311
  121MOL     C838648   7.649   4.623   7.942  0.6552  0.1253 -0.2714
  121MOL     C938649   7.430   4.676   8.196  0.0850  0.3812 -0.5465
  121MOL    H1038650   7.615   4.793   8.232 -1.9996  0.6618  0.4025
  121MOL    H1138651   7.842   4.365   8.162  2.1326 -0.2411 -2.0710
  121MOL    H1238652   7.839   4.334   7.905  0.6918  1.4895 -2.3796
  121MOL    H1338653   7.706   4.488   7.778  3.2231  1.1335 -1.5929
  121MOL    H1438654   7.590   4.686   7.877  1.3411 -1.6182 -2.6790
  121MOL    H1538655   7.452   4.589   8.258  1.3561  1.4808  0.5745
  121MOL    H1638656   7.383   4.641   8.105  1.3974 -0.0548 -1.0623
  121MOL    H1738657   7.530   4.816   8.080  0.9528 -1.0046 -2.1063
  121MOL    C1838658   7.330   4.780   8.257  0.5422  0.6865  0.5700
  121MOL    C1938659   7.395   4.886   8.346 -0.6365  1.1044 -0.7824
  121MOL    C2038660   7.414   5.018   8.305  0.0875  0.2305  0.2460
  121MOL   Cl2138661   7.341   5.096   8.161  0.1880  0.2689 -0.0974
  121MOL    C2238662   7.475   5.106   8.396  1.0715 -0.0309 -0.0705
  121MOL    C2338663   7.504   5.064   0.111  0.0245  0.4345 -0.2373
  121MOL    C2438664   7.490   4.927   0.144 -0.2002 -0.5738  0.7322
  121MOL    C2538665   7.448   4.836   0.048 -1.2005 -0.6524  0.3007
  121MOL    C2638666   7.199   4.722   8.312  0.5887  0.1612 -0.2110
  121MOL    H2738667   7.312   4.832   8.163  0.6328 -1.1054 -0.4624
  121MOL    H2838668   7.460   5.210   8.369  0.0156 -0.4749 -1.2688
  121MOL    H2938669   7.547   5.126   0.188  1.0048  1.7570 -1.8146
  121MOL    H3038670   7.507   4.882   0.241 -0.1360 -2.0938  0.0352
  121MOL    H3138671   7.440   4.736   0.088 -1.1972  0.0658  2.1217
  121MOL    H3238672   7.147   4.805   8.358 -0.6517 -1.4032  1.2855
  121MOL    H3338673   7.230   4.652   8.390  0.7131  1.3298  0.8091
  121MOL    C3438674   7.099   4.663   8.211  0.4956  0.1180 -0.4048
  121MOL    C3538675   7.061   4.765   8.098  0.0680 -0.1878 -0.1705
  121MOL    C3638676   7.041   4.729   7.964 -0.6075  0.2900 -0.2898
  121MOL   Cl3738677   7.053   4.556   7.929 -0.1541 -0.0037 -0.1800
  121MOL    C3838678   7.011   4.822   7.858 -0.1191  0.1239  0.0097
  121MOL    C3938679   7.025   4.957   7.885  0.2903 -0.5755  0.0034
  121MOL    C4038680   7.052   4.995   8.017  0.2129 -0.4139  0.3295
  121MOL    C4138681   7.058   4.901   8.122 -0.4891  0.2047  0.3263
  121MOL    C4238682   6.967   4.603   8.261  0.1517 -0.4777 -0.0935
  121MOL    H4338683   7.161   4.585   8.168 -0.4093  0.5191 -2.5012
  121MOL    H4438684   7.006   4.793   7.754 -1.2875 -1.7382  0.5420
  121MOL    H4538685   7.010   5.032   7.810 -1.4064  0.2652  1.1461
  121MOL    H4638686   7.056   5.100   8.043 -1.0450 -0.0561 -0.8643
  121MOL    H4738687   7.066   4.954   8.215 -1.1378  0.8020  0.0534
  121MOL    H4838688   6.897   4.584   8.180  2.9436 -2.1138 -2.1788
  121MOL    H4938689   6.926   4.690   8.314  0.2814 -2.2227  2.9958
  121MOL    C5038690   6.984   4.480   8.345 -0.6457  0.3412 -0.7595
  121MOL    C5138691   6.966   4.356   8.253 -0.9861  0.4503  0.1549
  121MOL    C5238692   7.074   4.278   8.206  0.5131 -0.2118  0.0109
  121MOL   Cl5338693   7.234   4.298   8.260  0.4387 -0.1855 -0.1030
  121MOL    C5438694   7.047   4.168   8.128  0.0228  0.1990 -0.4625
  121MOL    C5538695   6.922   4.128   8.092  0.5573  0.4000  0.0986
  121MOL    C5638696   6.816   4.206   8.127 -0.3657  0.6618 -0.8193
  121MOL    C5738697   6.833   4.321   8.208 -0.2279  0.5452  0.7333
  121MOL    C5838698   6.893   4.482   0.053 -0.2544  0.8222  0.1593
  121MOL    H5938699   7.088   4.479   8.377 -0.5945 -0.1600 -0.9318
  121MOL    H6038700   7.138   4.117   8.099  0.6433  1.4170 -0.6809
  121MOL    H6138701   6.908   4.044   8.025  1.8913  1.0204 -1.0002
  121MOL    H6238702   6.714   4.187   8.097 -1.5001  3.3484  1.1136
  121MOL    H6338703   6.748   4.374   8.249 -1.1051 -0.7976  0.6765
  121MOL    H6438704   6.796   4.526   0.027 -0.7428 -0.5975 -0.4946
  121MOL    H6538705   6.940   4.556   0.117  0.5494  1.0284 -0.6459
  121MOL    C6638706   6.860   4.358   0.134  0.5534 -0.4640 -0.2611
  121MOL    C6738707   6.755   4.384   0.244 -0.4303 -0.2821 -1.0271
  121MOL    C6838708   6.618   4.402   0.214 -0.0299  0.4896  0.6733
  121MOL   Cl6938709   6.554   4.397   0.055 -0.0861 -0.0262 -0.2438
  121MOL    C7038710   6.531   4.420   0.322 -0.0378 -0.7256 -0.4868
  121MOL    C7138711   6.573   4.414   0.454  0.1138 -0.4097 -0.1925
  121MOL    C7238712   6.708   4.393   0.486  0.6928  0.1993 -0.1576
  121MOL    C7338713   6.795   4.387   0.381 -0.6129  0.3456 -0.2555
  121MOL    C7438714   6.984   4.272   0.162 -0.4855  0.0622 -0.3034
  121MOL    H7538715   6.811   4.299   0.057  0.4887 -0.8799  0.0981
  121MOL    H7638716   6.426   4.413   0.300  0.2123  0.0658 -2.0333
  121MOL    H7738717   6.506   4.437   0.535  0.5561  0.6055 -0.1010
  121MOL    H7838718   6.740   4.390   0.590 -2.6298  1.1027  0.9323
  121MOL    H7938719   6.895   4.374   0.418 -0.7489 -0.7421 -0.2462
  121MOL    H8038720   7.012   4.285   0.266 -0.6592  1.4378 -0.4222
  121MOL    H8138721   7.076   4.309   0.117  0.5296  0.1231  1.7804
  121MOL    C8238722   6.975   4.128   0.122  1.0514  0.3225 -0.0160
  121MOL    C8338723   6.851   4.058   0.191 -0.1793 -0.7369 -0.2038
  121MOL    C8438724   6.726   4.018   0.129 -0.0645 -0.3934  0.7179
  121MOL   Cl8538725   6.705   4.069   8.388  0.0701  0.1179  0.2680
  121MOL    C8638726   6.622   3.949   0.190  0.0780  0.3270 -0.0371
  121MOL    C8738727   6.639   3.902   0.320 -0.4446 -0.2756 -0.1717
  121MOL    C8838728   6.758   3.940   0.391  0.1698  0.1806 -0.4659
  121MOL    C8938729   6.858   4.018   0.328  0.8349 -0.5622  0.0504
  121MOL    C9038730   7.107   4.047   0.120 -0.4728  0.7010  0.6604
  121MOL    H9138731   6.947   4.135   0.017 -0.1768  1.4072  0.3707
  121MOL    H9238732   6.531   3.934   0.133 -0.2338  1.6583  0.0909
  121MOL    H9338733   6.566   3.838   0.366  0.2924 -2.7791 -2.3498
  121MOL    H9438734   6.780   3.920   0.495  0.2795 -0.7085 -0.6592
  121MOL    H9538735   6.941   4.060   0.384  0.7676  2.4383 -2.0077
  121MOL    H9638736   7.148   4.056   0.220  0.8917  0.7768  0.0931
  121MOL    H9738737   7.170   4.100   0.049 -1.5715  0.9052 -0.1743
  121MOL    C9838738   7.092   3.895   0.093  0.5090 -0.8536 -0.0943
  121MOL    C9938739   7.224   3.815   0.117  0.3038  0.1245  0.6058
  121MOL   C10038740   7.241   3.727   0.229  0.8129  0.5653  0.9028
  121MOL  Cl10138741   7.113   3.704   0.344 -0.0567 -0.3855  0.3743
  121MOL   C10238742   7.361   3.665   0.261 -1.1492  0.3158  1.0009
  121MOL   C10338743   7.468   3.682   0.176 -0.4011  0.0126 -0.4872
  121MOL   C10438744   7.454   3.760   0.061 -0.6611  0.0707  0.1417
  121MOL   C10538745   7.338   3.830   0.037  0.0864 -0.1232  0.1590
  121MOL   C10638746   7.037   3.881   8.371 -0.3706  0.4921  0.0558
  121MOL   H10738747   7.020   3.851   0.163  1.0579 -1.1638  0.2753
  121MOL   H10838748   7.371   3.604   0.349  2.1412 -0.8317 -0.0993
  121MOL   H10938749   7.560   3.632   0.205 -0.3052  0.0508 -0.7267
  121MOL   H11038750   7.532   3.761   8.407 -3.4801 -1.6996 -2.9668
  121MOL   H11138751   7.331   3.891   8.369  1.2312 -0.2118 -0.0042
  121MOL   H11238752   7.108   3.928   8.304 -1.0171 -0.8391 -1.5952
  121MOL   H11338753   6.947   3.939   8.348 -0.5637  0.1493 -0.0624
  121MOL   C11438754   7.013   3.730   8.327  0.6820  0.0415 -0.2144
  121MOL   C11538755   6.983   3.716   8.183 -0.1261  0.6738 -0.2652
  121MOL   C11638756   7.083   3.675   8.089  0.3987  0.1346 -0.2674
  121MOL  Cl11738757   7.246   3.629   8.141 -0.3277 -0.1642 -0.1663
  121MOL   C11838758   7.055   3.678   7.949 -0.2104  0.0154 -0.4693
  121MOL   C11938759   6.927   3.721   7.902 -0.2062 -0.0097  0.4213
  121MOL   C12038760   6.824   3.757   7.994 -0.2372 -0.8883 -0.8325
  121MOL   C12138761   6.852   3.754   8.132 -1.1713 -0.3226 -0.7388
  121MOL   C12238762   6.918   3.642   8.407  0.3820  0.2408 -0.0166
  121MOL   H12338763   7.109   3.685   8.354  1.6478  2.8263  1.3183
  121MOL   H12438764   7.118   3.641   7.869 -1.7992 -1.0287 -1.2701
  121MOL   H12538765   6.909   3.719   7.795 -0.6349 -2.1753  0.5100
  121MOL   H12638766   6.728   3.788   7.957 -0.1993 -0.6047 -0.7012
  121MOL   H12738767   6.768   3.769   8.197 -1.4858  0.5374 -1.3359
  121MOL   H12838768   6.818   3.685   8.405  0.2728 -0.0507 -2.0620
  121MOL   H12938769   6.948   3.665   0.089  2.3218  0.7411 -0.6774
  121MOL   C13038770   6.929   3.487   8.380 -0.5634  0.6072 -0.1639
  121MOL   C13138771   6.795   3.410   8.402 -0.3413  0.5092  0.2141
  121MOL   C13238772   6.725   3.341   8.295 -0.1828 -0.5554  0.4794
  121MOL  Cl13338773   6.782   3.332   8.130 -0.2662 -0.2434 -0.0502
  121MOL   C13438774   6.600   3.285   8.318  0.3960 -0.5170 -0.1793
  121MOL   C13538775   6.537   3.295   0.021  1.1576 -0.0689  0.0731
  121MOL   C13638776   6.607   3.356   0.132 -0.1237  0.4192  0.1382
  121MOL   C13738777   6.733   3.416   0.111 -0.2781 -0.3844  0.2830
  121MOL   C13838778   7.048   3.426   0.036  0.1238 -0.0492  0.1685
  121MOL   H13938779   6.946   3.470   8.273 -1.5937 -0.9046 -0.1013
  121MOL   H14038780   6.548   3.255   8.229 -0.4291  0.4525 -0.0305
  121MOL   H14138781   6.439   3.257   0.043  1.6359 -0.4812  1.5815
  121MOL   H14238782   6.570   3.364   0.233 -0.7702  0.4927 -0.1040
  121MOL   H14338783   6.789   3.462   0.190  0.2111  0.0603 -0.3114
  121MOL   H14438784   7.014   3.417   0.139  1.9922 -1.2335  0.7183
  121MOL   H14538785   7.131   3.495   0.045  0.3298 -0.3016  0.2247
  121MOL   C14638786   7.100   3.287   8.407  0.0613  0.1189 -0.5650
  121MOL   C14738787   7.173   3.210   0.096 -0.5914  0.6607  0.5113
  121MOL   C14838788   7.122   3.091   0.151 -0.2306  0.7493 -0.2610
  121MOL  Cl14938789   6.965   3.025   0.106 -0.0745 -0.4240 -0.0555
  121MOL   C15038790   7.185   3.035   0.264 -0.3314 -0.6068  0.0030
  121MOL   C15138791   7.306   3.091   0.317 -0.2854  0.6546  0.0214
  121MOL   C15238792   7.358   3.208   0.259  0.4108  0.2430  0.5027
  121MOL   C15338793   7.291   3.260   0.151 -0.4856 -0.3183 -0.8414
  121MOL   C15438794   7.195   3.298   8.291 -0.1606 -0.7631 -0.0812
  121MOL   H15538795   7.010   3.233   8.379  0.9156 -0.6500 -1.9377
  121MOL   H15638796   7.141   2.947   0.310 -1.1567 -0.2088 -0.0106
  121MOL   H15738797   7.362   3.038   0.393  0.3490  0.6114 -0.4669
  121MOL   H15838798   7.442   3.262   0.299  0.1109  1.9049 -1.0970
  121MOL   H15938799   7.340   3.347   0.109 -1.1665  0.2924 -0.3727
  121MOL   H16038800   7.294   3.337   8.313 -0.5717 -0.2681  0.9150
  121MOL   H16138801   7.143   3.368   8.225 -0.8081 -0.4080  0.8015
  121MOL   C16238802   7.204   3.179   8.199 -0.3614  0.4896 -0.1920
  121MOL   C16338803   7.310   3.191   8.090  0.4066  0.0848 -0.1935
  121MOL   C16438804   7.416   3.099   8.075  0.0969 -0.3498  0.0193
  121MOL  Cl16538805   7.428   2.960   8.179  0.2305  0.5056  0.3301
  121MOL   C16638806   7.514   3.121   7.980  0.2112 -0.4589  0.5587
  121MOL   C16738807   7.518   3.234   7.899 -0.3361 -0.1064 -0.2126
  121MOL   C16838808   7.406   3.326   7.908 -0.7967  0.0063 -0.0767
  121MOL   C16938809   7.308   3.301   7.999  0.0249 -0.0632  0.7796
  121MOL   C17038810   7.070   3.137   8.138  0.1341 -0.7290  0.7341
  121MOL   H17138811   7.237   3.095   8.261  1.2827  0.2461 -1.3388
  121MOL   H17238812   7.589   3.051   7.947 -0.1826  0.1150 -1.6600
  121MOL   H17338813   7.587   3.252   7.817  0.5511  0.0888  0.5619
  121MOL   H17438814   7.414   3.420   7.854 -0.1892 -0.3413 -0.6023
  121MOL   H17538815   7.226   3.371   8.002  1.4398  1.9049 -2.9738
  121MOL   H17638816   7.035   3.230   8.092 -0.4736 -0.7720  1.1097
  121MOL   H17738817   6.997   3.105   8.212 -0.1446 -2.1106 -0.1290
  121MOL   C17838818   7.075   3.020   8.032  0.0735 -0.3552  0.1824
  121MOL   C17938819   7.043   3.058   7.891  0.2526 -0.7541  0.5470
  121MOL   C18038820   7.124   3.037   7.777 -0.1326 -0.0607  0.3409
  121MOL  Cl18138821   7.280   2.963   7.799 -0.1920  0.1821  0.2009
  121MOL   C18238822   7.086   3.070   7.648  0.6666 -0.7050 -0.0104
  121MOL   C18338823   6.973   3.148   7.631 -0.1675  0.5902  0.1324
  121MOL   C18438824   6.885   3.164   7.739 -0.0438 -0.3232 -0.3676
  121MOL   C18538825   6.916   3.115   7.865 -1.4912  0.1198 -0.2121
  121MOL   C18638826   7.004   2.887   8.064  0.1411 -0.1656  0.1452
  121MOL   H18738827   7.176   2.979   8.031  0.4872  0.5749 -4.0316
  121MOL   H18838828   7.144   3.047   7.560 -0.4438  0.8569 -1.1950
  121MOL   H18938829   6.949   3.173   7.528 -1.5594 -0.1425  0.2775
  121MOL   H19038830   6.792   3.213   7.714  1.7113  2.5887 -1.4453
  121MOL   H19138831   6.847   3.125   7.947 -1.9758  2.0723 -0.8355
  121MOL   H19238832   6.896   2.896   8.072  0.2635  1.0350  0.5045
  121MOL   H19338833   7.026   2.860   8.167 -0.2552 -0.7864  0.0667
  121MOL   C19438834   7.034   2.762   7.976 -0.2649 -0.2470 -0.4718
  121MOL   C19538835   6.923   2.661   7.983  0.0006  0.3575  0.3112
  121MOL   C19638836   6.852   2.616   7.870  0.0748 -0.8036  0.8935
  121MOL  Cl19738837   6.887   2.686   7.717 -0.3677  0.1376 -0.2877
  121MOL   C19838838   6.765   2.508   7.878  0.8915 -0.1920 -0.1936
  121MOL   C19938839   6.741   2.447   8.009  0.2228  0.1489  0.3193
  121MOL   C20038840   6.805   2.495   8.120 -1.2033 -0.5423 -0.0535
  121MOL   C20138841   6.901   2.599   8.107 -0.5784 -0.0885  0.5387
  121MOL   C20238842   7.170   2.702   8.023 -0.1945 -0.0906 -0.0072
  121MOL   H20338843   7.043   2.794   7.872  1.7486 -0.2540 -0.3135
  121MOL   H20438844   6.719   2.466   7.790  0.2929 -1.3494  0.6494
  121MOL   H20538845   6.669   2.371   8.032  1.2057 -0.1786  2.4400
  121MOL   H20638846   6.777   2.454   8.217 -0.2182  0.5873  0.7234
  121MOL   H20738847   6.945   2.630   8.201  0.9842 -0.7564  0.0495
  121MOL   H20838848   7.154   2.677   8.127 -1.0632  2.9251  0.6282
  121MOL   H20938849   7.251   2.775   8.029 -1.0251  1.1230 -2.5949
  121MOL   C21038850   7.217   2.572   7.947 -0.3411 -0.3503  0.1979
  121MOL   C21138851   7.290   2.472   8.042  0.3045 -0.4450  0.3416
  121MOL   C21238852   7.237   2.347   8.083  0.9797 -0.1221 -0.4889
  121MOL  Cl21338853   7.082   2.289   8.021 -0.1301  0.4409 -0.3503
  121MOL   C21438854   7.304   2.267   8.183 -0.1206  0.1405  0.2454
  121MOL   C21538855   7.426   2.305   8.239 -1.4833  0.1892  0.0746
  121MOL   C21638856   7.482   2.424   8.188 -0.5313 -0.5106 -0.2721
  121MOL   C21738857   7.413   2.508   8.096 -0.0033 -0.0835  0.7120
  121MOL   C21838858   7.280   2.614   7.817 -0.6798  0.0912 -0.4550
  121MOL   H21938859   7.134   2.511   7.911  1.7221 -3.0209 -0.2150
  121MOL   H22038860   7.262   2.171   8.210  0.4616 -0.1209  0.2278
  121MOL   H22138861   7.479   2.253   8.318 -2.0310 -1.2250 -0.4760
  121MOL   H22238862   7.584   2.447   8.214 -0.7954 -0.8448  1.1329
  121MOL   H22338863   7.465   2.599   8.069 -0.2686 -0.7706 -2.2229
  121MOL   H22438864   7.362   2.681   7.842  0.5270 -1.4220 -0.2760
  121MOL   H22538865   7.205   2.664   7.756 -3.3005  0.6278  3.0225
  121MOL   C22638866   7.351   2.495   7.739  0.1551 -0.3667  0.4539
  121MOL   C22738867   7.400   2.557   7.608 -0.1864 -0.3088  0.4053
  121MOL   C22838868   7.531   2.619   7.611 -0.3616  0.2159 -0.7091
  121MOL  Cl22938869   7.632   2.616   7.750  0.1999  0.2123 -0.4679
  121MOL   C23038870   7.579   2.676   7.489  0.4269 -0.0251 -0.5928
  121MOL   C23138871   7.500   2.665   7.371 -0.3821  0.1768 -1.0091
  121MOL   C23238872   7.365   2.619   7.379 -0.0023 -0.4066 -0.3757
  121MOL   C23338873   7.318   2.561   7.498  0.0641 -1.2201 -0.3331
  121MOL   C23438874   7.268   2.369   7.699  0.3039  0.5053  0.0876
  121MOL   H23538875   7.434   2.470   7.806  1.4028 -2.6099 -1.8261
  121MOL   H23638876   7.680   2.712   7.487  0.5750 -0.4083  0.1195
  121MOL   H23738877   7.544   2.710   7.283 -2.7213  0.5069 -2.0444
  121MOL   H23838878   7.302   2.617   7.291 -1.5439  2.3030  0.5992
  121MOL   H23938879   7.217   2.523   7.496 -0.3591 -0.1468  0.1759
  121MOL   H24038880   7.174   2.392   7.650 -0.2956 -1.1644  0.3981
  121MOL   H24138881   7.220   2.329   7.788  1.3293 -1.8564 -0.3860
  121MOL   C24238882   7.342   2.252   7.623 -0.2942  0.0939 -0.0707
  121MOL   C24338883   7.246   2.183   7.527  0.2416 -0.0462 -0.2955
  121MOL   C24438884   7.277   2.164   7.388 -0.5098  0.4537  0.4958
  121MOL  Cl24538885   7.428   2.223   7.321 -0.6921  0.3892  0.2086
  121MOL   C24638886   7.189   2.095   7.304  0.0738 -0.6222  0.6484
  121MOL   C24738887   7.067   2.053   7.359  0.6261 -0.7167 -0.2258
  121MOL   C24838888   7.039   2.058   7.495 -0.1383 -0.2111 -0.5886
  121MOL   C24938889   7.126   2.131   7.576 -0.3287  0.5459  0.0355
  121MOL   C25038890   7.395   2.150   7.726 -0.5255 -0.9548  0.1928
  121MOL   H25138891   7.423   2.299   7.567 -0.2034 -0.0023 -0.0185
  121MOL   H25238892   7.217   2.073   7.203  1.6289  1.0371  0.7036
  121MOL   H25338893   6.994   1.997   7.304 -0.3971 -0.6689  1.0747
  121MOL   H25438894   6.959   2.005   7.545  1.4292 -2.1053 -0.0418
  121MOL   H25538895   7.106   2.134   7.682 -2.1122 -2.1042 -0.2019
  121MOL   H25638896   7.386   2.046   7.699  2.9140 -1.7217  1.6175
  121MOL   H25738897   7.344   2.169   7.821  4.7477 -1.7680  3.3977
  121MOL   C25838898   7.555   2.169   7.746 -0.5695  0.2705  0.6117
  121MOL   C25938899   7.630   2.098   7.627 -0.3806 -0.8713  0.0675
  121MOL   C26038900   7.702   2.165   7.524 -0.1277 -0.3579  0.2825
  121MOL  Cl26138901   7.706   2.338   7.509 -0.1545  0.4598  0.2473
  121MOL   C26238902   7.759   2.092   7.412  0.3659  0.1104  0.0263
  121MOL   C26338903   7.749   1.955   7.419 -0.1505  0.8306 -0.7627
  121MOL   C26438904   7.691   1.884   7.527 -0.0217 -0.2749 -0.9110
  121MOL   C26538905   7.627   1.957   7.632  0.2324 -0.3514  0.4626
  121MOL   C26638906   7.607   2.121   7.884  0.1285 -0.0542  0.1147
  121MOL   H26738907   7.574   2.276   7.738 -1.5831  0.5254  1.5310
  121MOL   H26838908   7.808   2.149   7.335  0.8005 -0.1175  0.1343
  121MOL   H26938909   7.799   1.900   7.340 -0.2115 -0.4927  0.1056
  121MOL   H27038910   7.702   1.777   7.539  0.0785  0.0878  2.5073
  121MOL   H27138911   7.576   1.913   7.716 -0.0559  0.1464  0.5468
  121MOL   H27238912   7.586   2.015   7.902  3.0512 -0.6141  0.4593
  121MOL   H27338913   7.555   2.171   7.966 -1.9219 -0.1008 -1.1249
  121MOL   C27438914   7.760   2.128   7.910  0.2016 -0.1526 -0.1887
  121MOL   C27538915   7.789   2.078   8.048  0.0810 -0.1840 -0.1777
  121MOL   C27638916   7.839   1.949   8.072  0.3197  0.6027 -0.3838
  121MOL  Cl27738917   7.898   1.844   7.959 -0.1904 -0.1059  0.4285
  121MOL   C27838918   7.856   1.907   8.205  0.7478 -0.5849 -0.2966
  121MOL   C27938919   7.814   1.988   8.311 -0.3633  0.0481  0.2382
  121MOL   C28038920   7.761   2.113   8.289 -0.4213  0.4686  0.5691
  121MOL   C28138921   7.749   2.156   8.155  0.0431 -0.4772 -0.4108
  121MOL   C28238922   7.836   2.265   7.881  0.2451  0.1134 -0.3745
  121MOL   H28338923   7.816   2.060   7.845  0.0114  1.5509 -2.2106
  121MOL   H28438924   7.892   1.807   8.223  0.3362 -0.5985  0.4620
  121MOL   H28538925   7.822   1.949   8.411 -0.8955 -0.3891  0.1150
  121MOL   H28638926   7.735   2.172   8.376  0.9307 -0.8913  1.9131
  121MOL   H28738927   7.714   2.255   8.130  0.7042 -0.8775 -3.0762
  121MOL   H28838928   7.814   2.333   7.963 -0.1716  0.1127 -0.4864
  121MOL   H28938929   7.798   2.311   7.791 -0.1372  2.6072  1.0233
  121MOL   C29038930   7.989   2.246   7.852  0.0816  0.4772 -0.0276
  121MOL   C29138931   8.076   2.374   7.885  0.2856 -0.7905 -0.1749
  121MOL   C29238932   8.208   2.368   7.934  0.3417 -0.2911  0.4076
  121MOL  Cl29338933   8.279   2.224   7.998  0.1116  0.2197 -0.5212
  121MOL   C29438934   8.286   2.483   7.955  0.3677  0.7371  0.3466
  121MOL   C29538935   8.229   2.611   7.935  0.2839 -0.3001 -0.2729
  121MOL   C29638936   8.093   2.623   7.894  0.3719  0.5131 -0.1206
  121MOL   C29738937   8.020   2.511   7.866 -0.3814  0.7078  0.2169
  121MOL   C29838938   8.013   2.200   7.707  0.0183 -0.4035  0.0514
  121MOL   H29938939   8.032   2.171   7.918  1.1989  0.2624 -0.9978
  121MOL   H30038940   8.391   2.472   7.975  0.3888 -0.6843 -0.4656
  121MOL   H30138941   8.293   2.697   7.949  0.0590  0.0642 -1.4767
  121MOL   H30238942   8.055   2.723   7.875  1.3732  1.3086  1.8382
  121MOL   H30338943   7.919   2.522   7.830 -1.1777  0.7188  2.3655
  121MOL   H30438944   7.976   2.284   7.649  1.2527  0.3570  0.3453
  121MOL   H30538945   7.948   2.116   7.685  1.2219 -1.2420 -0.4042
  121MOL   C30638946   8.161   2.173   7.661  0.5686 -0.0722 -0.7153
  121MOL   C30738947   8.179   2.171   7.506 -0.5874  0.0906 -0.4359
  121MOL   C30838948   8.190   2.299   7.443  0.0921 -0.8558 -0.2323
  121MOL  Cl30938949   8.183   2.451   7.527 -0.0333  0.1313 -0.0549
  121MOL   C31038950   8.201   2.304   7.304  0.2200 -0.9907  0.4465
  121MOL   C31138951   8.205   2.186   7.232 -0.8936 -0.3283 -0.8201
  121MOL   C31238952   8.182   2.059   7.278 -0.2383  0.4201 -0.3996
  121MOL   C31338953   8.171   2.052   7.423 -0.1012  0.1372 -0.1666
  121MOL   C31438954   8.215   2.037   7.717 -0.5436 -0.7303 -0.2341
  121MOL   H31538955   8.213   2.261   7.698  1.1853  0.3770 -2.5846
  121MOL   H31638956   8.214   2.403   7.264  0.7934 -0.7432  1.2370
  121MOL   H31738957   8.223   2.189   7.125  0.5868 -3.2166 -0.7158
  121MOL   H31838958   8.181   1.965   7.225  0.4580  0.2642 -0.1329
  121MOL   H31938959   8.156   1.956   7.470  1.7729 -0.5177 -0.8665
  121MOL   H32038960   8.322   2.021   7.707 -0.0407  1.5523  0.9148
  121MOL   H32138961   8.161   1.952   7.676  1.5735 -2.1681 -0.1396
  121MOL   H32238962   8.214   2.025   7.825  1.1555  0.0306 -0.1198
  122MOL     C138963   4.739   3.202   3.899  0.5520 -0.3840 -0.2525
  122MOL     C238964   4.611   3.240   3.973  1.0401 -0.1893 -0.6983
  122MOL     C338965   4.611   3.316   4.093  0.1170 -0.1889 -0.5300
  122MOL    Cl438966   4.752   3.386   4.156 -0.3001 -0.4684 -0.1781
  122MOL     C538967   4.486   3.349   4.155  0.0566 -0.2993 -0.2456
  122MOL     C638968   4.369   3.294   4.105 -0.1711  0.1511 -0.6152
  122MOL     C738969   4.364   3.216   3.989  0.2239 -0.8339  0.2772
  122MOL     C838970   4.488   3.189   3.925  0.4365 -0.1123  0.0384
  122MOL     C938971   4.756   3.054   3.910 -0.3657 -0.0025 -0.2482
  122MOL    H1038972   4.735   3.242   3.797 -1.2149  1.4315  0.4974
  122MOL    H1138973   4.480   3.411   4.244 -0.4933  2.3818 -2.0943
  122MOL    H1238974   4.278   3.315   4.159  1.2157  0.2200  1.7503
  122MOL    H1338975   4.273   3.170   3.956  1.1262 -1.9370 -0.7185
  122MOL    H1438976   4.490   3.129   3.836 -0.1963  1.0474 -0.7632
  122MOL    H1538977   4.677   3.008   3.850  0.9851 -1.1531 -1.1803
  122MOL    H1638978   4.740   3.012   4.009 -0.2610 -0.6208 -0.4914
  122MOL    H1738979   4.822   3.254   3.947  0.2259  0.8700 -1.0041
  122MOL    C1838980   4.877   3.002   3.845 -0.2559  0.8200  0.4284
  122MOL    C1938981   4.848   2.976   3.692 -0.3208 -0.2411 -0.9698
  122MOL    C2038982   4.878   3.078   3.597  0.1089  0.3137  0.5802
  122MOL   Cl2138983   4.965   3.216   3.633  0.3960  0.1539  0.0147
  122MOL    C2238984   4.830   3.065   3.462 -0.5112  0.2266  0.3521
  122MOL    C2338985   4.774   2.949   3.417 -0.3571  0.6302  0.4166
  122MOL    C2438986   4.760   2.844   3.505 -0.3157  0.3033  0.2150
  122MOL    C2538987   4.794   2.849   3.644 -0.3298 -0.2763 -0.1791
  122MOL    C2638988   4.928   2.870   3.916 -0.5835  0.3089 -0.0577
  122MOL    H2738989   4.955   3.077   3.857 -0.0442  0.4417  1.4051
  122MOL    H2838990   4.848   3.141   3.387 -0.5023  0.4192  0.5506
  122MOL    H2938991   4.736   2.952   3.316 -0.7109 -0.9431  0.4963
  122MOL    H3038992   4.715   2.750   3.475  0.6673  0.8515 -3.1509
  122MOL    H3138993   4.774   2.763   3.707  2.3217 -0.4520  0.4898
  122MOL    H3238994   4.993   2.816   3.848 -1.0094 -0.8279  0.4334
  122MOL    H3338995   4.842   2.807   3.938 -0.4773  0.3340  0.4544
  122MOL    C3438996   5.011   2.894   4.043  0.3185 -0.3604 -0.0123
  122MOL    C3538997   5.147   2.943   4.009  0.3035  0.1121 -0.4741
  122MOL    C3638998   5.201   3.067   4.054 -0.0336  0.0400  0.2480
  122MOL   Cl3738999   5.113   3.171   4.153 -0.3982 -0.0394 -0.0299
  122MOL    C3839000   5.331   3.098   4.023  1.0148 -0.9167 -0.4836
  122MOL    C3939001   5.410   3.019   3.941 -0.1573 -0.1046 -0.1978
  122MOL    C4039002   5.360   2.895   3.901 -0.0520  0.0915 -0.0677
  122MOL    C4139003   5.229   2.854   3.937  0.4144 -0.2627  0.1257
  122MOL    C4239004   5.014   2.771   4.149  0.0287  0.5580 -0.7137
  122MOL    H4339005   4.962   2.980   4.089  0.5402 -0.2739  0.0639
  122MOL    H4439006   5.369   3.193   4.058 -2.2220 -0.5192  2.2318
  122MOL    H4539007   5.511   3.035   3.907  0.7307  0.9995  2.8249
  122MOL    H4639008   5.423   2.824   3.850 -0.2723 -0.8397  0.9348
  122MOL    H4739009   5.204   2.754   3.904 -2.0528 -0.4194  2.3182
  122MOL    H4839010   5.105   2.779   4.208 -1.3207  0.9941  1.3377
  122MOL    H4939011   5.019   2.675   4.097  1.1471 -0.6924  1.6328
  122MOL    C5039012   4.898   2.763   4.252  0.2993 -0.2119 -0.1358
  122MOL    C5139013   4.861   2.901   4.312  0.4755  0.8502 -0.2378
  122MOL    C5239014   4.732   2.957   4.308 -0.3315  0.1933 -0.1400
  122MOL   Cl5339015   4.595   2.879   4.228  0.3861 -0.4743 -0.0324
  122MOL    C5439016   4.712   3.082   4.372  0.5361 -0.1837 -0.4885
  122MOL    C5539017   4.815   3.144   4.439  0.0506  0.1428 -0.2552
  122MOL    C5639018   4.944   3.094   4.436  0.5783 -0.2910 -0.6781
  122MOL    C5739019   4.967   2.970   4.374  0.5800  0.2404 -0.4430
  122MOL    C5839020   4.911   2.661   4.370 -0.0588 -0.1585  0.5209
  122MOL    H5939021   4.808   2.739   4.196  0.4416  3.3334 -2.0202
  122MOL    H6039022   4.611   3.120   4.382 -0.1387 -2.4336  1.8172
  122MOL    H6139023   4.805   3.243   4.482 -0.5213  0.7507 -1.7172
  122MOL    H6239024   5.032   3.133   4.485  1.1366 -1.6498 -0.5657
  122MOL    H6339025   5.066   2.930   4.379  0.3589 -0.3180 -0.5232
  122MOL    H6439026   4.858   2.694   4.459  0.6567  1.0286  0.5159
  122MOL    H6539027   5.019   2.665   4.388  0.3193 -0.9247 -1.4857
  122MOL    C6639028   4.877   2.507   4.340  0.5933  0.0143 -0.2564
  122MOL    C6739029   4.728   2.497   4.327  0.2681  0.0588  0.4040
  122MOL    C6839030   4.663   2.457   4.201  0.1041 -0.0317 -0.0057
  122MOL   Cl6939031   4.747   2.404   4.056  0.0677  0.0052 -0.0893
  122MOL    C7039032   4.520   2.452   4.197  0.9543 -0.3590 -0.3455
  122MOL    C7139033   4.445   2.490   4.310 -0.3497  0.5080 -0.1972
  122MOL    C7239034   4.503   2.530   4.430 -0.3946  0.2908  0.0062
  122MOL    C7339035   4.646   2.534   4.435  0.2702  0.6288  0.4946
  122MOL    C7439036   4.931   2.419   4.458  0.2733 -0.2596 -0.2923
  122MOL    H7539037   4.927   2.482   4.246 -2.6573 -1.7460 -1.6170
  122MOL    H7639038   4.467   2.442   4.103  1.2298 -3.5498 -0.2227
  122MOL    H7739039   4.337   2.493   4.307 -0.4754 -0.7552  1.7292
  122MOL    H7839040   4.446   2.538   4.521  1.3716  0.3255  1.1355
  122MOL    H7939041   4.697   2.548   4.528  1.4656  1.0552 -0.2168
  122MOL    H8039042   4.874   2.429   4.551  2.8244  1.6813  1.1255
  122MOL    H8139043   5.033   2.449   4.482  0.0282  0.0716  0.3724
  122MOL    C8239044   4.958   2.265   4.436  0.2351 -0.3501 -0.6195
  122MOL    C8339045   4.825   2.188   4.417  0.7469  0.1105 -0.4389
  122MOL    C8439046   4.804   2.116   4.297  0.1289 -0.3469  0.0806
  122MOL   Cl8539047   4.928   2.114   4.178 -0.0177 -0.4323 -0.2877
  122MOL    C8639048   4.686   2.037   4.286 -0.5368 -0.1686  0.6662
  122MOL    C8739049   4.584   2.038   4.383  0.0351 -0.4477  0.1123
  122MOL    C8839050   4.602   2.112   4.502 -0.1982  0.2321 -0.2284
  122MOL    C8939051   4.724   2.189   4.519  0.3576  0.6185  0.1886
  122MOL    C9039052   5.038   2.209   4.557 -0.5660  0.1527  0.1579
  122MOL    H9139053   5.018   2.266   4.345  0.4223  0.0125 -0.4916
  122MOL    H9239054   4.676   1.978   4.196  1.3165 -0.5312  0.6830
  122MOL    H9339055   4.502   1.967   4.384  0.0491 -0.4717  2.1093
  122MOL    H9439056   4.530   2.105   4.583  0.7630 -0.3957  0.5900
  122MOL    H9539057   4.731   2.239   4.614  0.2169 -0.3242  0.7038
  122MOL    H9639058   5.036   2.100   4.543  1.6207  0.4702 -3.2245
  122MOL    H9739059   4.984   2.224   4.650  1.3297 -1.2840  1.5190
  122MOL    C9839060   5.187   2.245   4.574  0.5783 -0.5648 -0.0808
  122MOL    C9939061   5.263   2.204   4.451 -0.0109  0.3237 -0.0428
  122MOL   C10039062   5.314   2.301   4.358  0.0995  0.2977  0.2190
  122MOL  Cl10139063   5.277   2.472   4.371  0.1884 -0.0064  0.0383
  122MOL   C10239064   5.381   2.262   4.244 -0.8181 -0.4251  0.3356
  122MOL   C10339065   5.410   2.124   4.219  0.4288  0.2903  0.0165
  122MOL   C10439066   5.356   2.032   4.305  0.0934 -0.5195  0.2065
  122MOL   C10539067   5.290   2.066   4.418  0.2851 -0.1651  0.4593
  122MOL   C10639068   5.261   2.192   4.701  0.3388  0.0772  0.1661
  122MOL   H10739069   5.194   2.352   4.592 -0.9746 -0.3768 -0.5191
  122MOL   H10839070   5.409   2.343   4.179  1.2367 -0.0927  1.5958
  122MOL   H10939071   5.460   2.091   4.129 -0.1691  1.7921 -0.9016
  122MOL   H11039072   5.377   1.930   4.275  1.3627 -0.8429  2.1300
  122MOL   H11139073   5.256   1.990   4.487 -0.6507  1.8516  2.2884
  122MOL   H11239074   5.366   2.221   4.701  0.4125 -0.1321  1.9945
  122MOL   H11339075   5.261   2.083   4.697  1.5383  0.0966 -0.5960
  122MOL   C11439076   5.209   2.259   4.839  0.0279 -0.1081  0.5273
  122MOL   C11539077   5.282   2.388   4.867 -0.0453  0.4184 -0.0893
  122MOL   C11639078   5.218   2.511   4.837  0.1250  0.0185 -0.1868
  122MOL  Cl11739079   5.060   2.526   4.765  0.0109  0.5997  0.0832
  122MOL   C11839080   5.278   2.633   4.867 -0.4055  0.6534 -0.1235
  122MOL   C11939081   5.411   2.636   4.914 -0.4550 -0.0943 -0.3812
  122MOL   C12039082   5.481   2.513   4.934  0.0912 -0.3398 -0.1866
  122MOL   C12139083   5.415   2.388   4.913  0.2594  0.1424 -0.7120
  122MOL   C12239084   5.223   2.163   4.957  0.8289  0.0871  0.8248
  122MOL   H12339085   5.102   2.274   4.823  0.6851  2.6385 -1.6080
  122MOL   H12439086   5.226   2.725   4.845 -1.6750 -0.1424 -0.4908
  122MOL   H12539087   5.469   2.724   4.936 -1.6708 -0.0402  2.9396
  122MOL   H12639088   5.582   2.530   4.968  0.1054  0.5080 -0.6246
  122MOL   H12739089   5.468   2.300   4.944 -0.7769 -0.2499 -0.0118
  122MOL   H12839090   5.170   2.209   5.041 -2.6882  0.3747 -1.4305
  122MOL   H12939091   5.327   2.147   4.984  0.6820  0.8014  1.8549
  122MOL   C13039092   5.157   2.025   4.942 -0.4369  0.3040  0.3732
  122MOL   C13139093   5.005   2.015   4.910  0.6909  0.1844  0.2527
  122MOL   C13239094   4.954   1.935   4.804  0.9076 -0.2995 -0.6283
  122MOL  Cl13339095   5.043   1.815   4.716 -0.5309  0.0271  0.0240
  122MOL   C13439096   4.820   1.948   4.760 -0.5725 -1.0795 -0.3353
  122MOL   C13539097   4.729   2.030   4.834 -0.1154 -0.5022 -0.6234
  122MOL   C13639098   4.774   2.098   4.950 -0.2806 -0.2015  0.0156
  122MOL   C13739099   4.913   2.105   4.974 -0.4727  0.2783  0.1885
  122MOL   C13839100   5.180   1.940   5.068  0.2372 -0.3182  0.4422
  122MOL   H13939101   5.206   1.975   4.858  1.6247 -0.2023  1.8291
  122MOL   H14039102   4.776   1.882   4.688 -0.5659 -1.1250 -0.2975
  122MOL   H14139103   4.623   2.022   4.816 -0.2479 -2.1794  0.7896
  122MOL   H14239104   4.703   2.158   5.004  0.0743 -0.9617  1.3511
  122MOL   H14339105   4.957   2.171   5.048  1.5987 -0.4127 -0.3901
  122MOL   H14439106   5.119   1.851   5.054  0.9843 -0.2455 -3.7527
  122MOL   H14539107   5.149   1.988   5.161 -1.0654 -0.0914 -0.1029
  122MOL   C14639108   5.328   1.897   5.090 -0.3307 -0.6526  0.9701
  122MOL   C14739109   5.384   1.833   4.966 -0.2500 -0.4499  0.3992
  122MOL   C14839110   5.505   1.872   4.902 -0.1055 -0.1469 -0.2113
  122MOL  Cl14939111   5.595   2.009   4.953 -0.2149  0.5485  0.0558
  122MOL   C15039112   5.551   1.799   4.789 -0.2528  0.3882 -0.6112
  122MOL   C15139113   5.476   1.693   4.733 -1.1942 -0.6561  0.1205
  122MOL   C15239114   5.361   1.656   4.801  0.3440 -0.3543  1.3898
  122MOL   C15339115   5.315   1.720   4.915  0.1825 -0.2379 -0.6188
  122MOL   C15439116   5.344   1.806   5.212 -0.5538  0.4406 -0.1206
  122MOL   H15539117   5.383   1.988   5.110 -0.9398  0.0492 -0.4855
  122MOL   H15639118   5.638   1.836   4.737  0.8944 -0.2043  0.8522
  122MOL   H15739119   5.507   1.645   4.641 -2.1583 -2.7232  0.8509
  122MOL   H15839120   5.299   1.578   4.760  0.4019  0.1795  0.2686
  122MOL   H15939121   5.220   1.691   4.957 -1.6283  2.9138 -2.2447
  122MOL   H16039122   5.323   1.702   5.187 -1.1503  0.5673 -0.1523
  122MOL   H16139123   5.268   1.826   5.287  0.2007  0.1454  0.7347
  122MOL   C16239124   5.471   1.811   5.296 -0.6612 -0.3861  0.4559
  122MOL   C16339125   5.598   1.768   5.229 -0.2561 -0.4487  0.2195
  122MOL   C16439126   5.709   1.851   5.230 -0.7282  0.5793 -0.6403
  122MOL  Cl16539127   5.720   2.010   5.291  0.3028  0.3273 -0.1887
  122MOL   C16639128   5.833   1.807   5.170  0.2744 -0.4913 -0.0864
  122MOL   C16739129   5.838   1.671   5.130  0.4310  0.1762 -0.0617
  122MOL   C16839130   5.726   1.590   5.139  0.4769 -0.2391  0.1902
  122MOL   C16939131   5.599   1.639   5.178 -0.3542 -0.3086 -0.0131
  122MOL   C17039132   5.452   1.726   5.429 -0.4031 -0.1845 -0.1737
  122MOL   H17139133   5.478   1.912   5.337 -1.1880  0.0627 -0.5606
  122MOL   H17239134   5.920   1.870   5.159 -0.5420  0.7222  0.2830
  122MOL   H17339135   5.927   1.620   5.096  0.5058 -0.9809  1.7999
  122MOL   H17439136   5.733   1.487   5.109  1.4933 -0.1636  0.1552
  122MOL   H17539137   5.514   1.573   5.178 -1.8280  1.5474  0.0691
  122MOL   H17639138   5.549   1.722   5.478 -0.3585 -2.0188 -0.3978
  122MOL   H17739139   5.440   1.622   5.399  0.7624 -0.1047 -0.9715
  122MOL   C17839140   5.354   1.782   5.537 -0.1300  0.4257 -0.4003
  122MOL   C17939141   5.385   1.922   5.585 -0.5318 -0.3227 -0.4340
  122MOL   C18039142   5.299   2.035   5.557  0.3357  0.5458 -0.1336
  122MOL  Cl18139143   5.151   2.019   5.470 -0.0007  0.5133  0.0763
  122MOL   C18239144   5.343   2.162   5.593 -0.4882 -0.4198 -0.1630
  122MOL   C18339145   5.467   2.187   5.659  0.3850 -0.4071  0.8616
  122MOL   C18439146   5.548   2.078   5.686  0.5361 -0.5762 -0.3844
  122MOL   C18539147   5.503   1.949   5.659  0.4827  0.2050 -0.0938
  122MOL   C18639148   5.347   1.684   5.652 -0.3438 -0.3394 -0.8172
  122MOL   H18739149   5.259   1.773   5.484 -0.5743  0.1696  0.4379
  122MOL   H18839150   5.277   2.243   5.563  0.3015 -0.2766 -1.5604
  122MOL   H18939151   5.507   2.285   5.680  0.6673 -0.3673  0.1545
  122MOL   H19039152   5.645   2.102   5.727 -0.0369  1.8506 -0.3914
  122MOL   H19139153   5.567   1.865   5.681  1.0313  0.4039 -0.9197
  122MOL   H19239154   5.448   1.667   5.687  0.7616  2.9617 -2.1688
  122MOL   H19339155   5.307   1.588   5.618  0.2606 -1.3876  1.3566
  122MOL   C19439156   5.248   1.706   5.772  0.6347  0.5429 -0.1460
  122MOL   C19539157   5.210   1.568   5.828  0.3158 -0.3272 -0.2165
  122MOL   C19639158   5.283   1.499   5.925 -0.2425  0.1168 -0.8464
  122MOL  Cl19739159   5.424   1.573   5.994 -0.1860 -0.0823  0.2953
  122MOL   C19839160   5.245   1.370   5.966 -0.0614 -0.0677 -0.6973
  122MOL   C19939161   5.137   1.308   5.900  0.0012  0.2448 -0.3272
  122MOL   C20039162   5.062   1.377   5.809 -0.4728 -0.1924  0.3835
  122MOL   C20139163   5.095   1.505   5.765 -0.1003 -0.2962  0.0861
  122MOL   C20239164   5.122   1.791   5.738  0.1720 -0.3807 -0.2454
  122MOL   H20339165   5.304   1.767   5.844 -1.2044  1.2805  0.6916
  122MOL   H20439166   5.310   1.311   6.030 -0.2011  0.4979 -0.0252
  122MOL   H20539167   5.097   1.212   5.930  0.7814  0.7387  2.4239
  122MOL   H20639168   4.979   1.320   5.768 -0.9923  0.5890  0.3356
  122MOL   H20739169   5.041   1.547   5.681  2.0623  1.0640 -0.6738
  122MOL   H20839170   5.081   1.744   5.649 -0.7640  0.3427 -0.2064
  122MOL   H20939171   5.155   1.894   5.726 -0.6925  0.0953  1.3458
  122MOL   C21039172   5.016   1.798   5.849 -0.7540  0.0745 -0.2189
  122MOL   C21139173   4.881   1.840   5.790  0.8062  0.1056  0.7092
  122MOL   C21239174   4.771   1.748   5.796  0.1728 -0.4912  0.0261
  122MOL  Cl21339175   4.782   1.592   5.871  0.0695  0.3165  0.2020
  122MOL   C21439176   4.653   1.779   5.733 -0.0364  0.1347 -0.1487
  122MOL   C21539177   4.637   1.891   5.647  0.1579 -0.2013  0.8948
  122MOL   C21639178   4.746   1.981   5.634  0.2343 -0.0316 -0.0704
  122MOL   C21739179   4.864   1.952   5.706  1.0071 -0.5056  0.2634
  122MOL   C21839180   5.060   1.897   5.971  0.3065  0.6806  0.4945
  122MOL   H21939181   5.010   1.699   5.894  2.7705 -1.0584 -1.9860
  122MOL   H22039182   4.570   1.719   5.767 -0.0475  0.4312  0.3562
  122MOL   H22139183   4.537   1.912   5.614  0.9294  4.6789  1.2670
  122MOL   H22239184   4.735   2.078   5.587 -0.1405 -0.5625 -1.0834
  122MOL   H22339185   4.950   2.009   5.675 -0.6654  1.5261 -0.7491
  122MOL   H22439186   5.045   1.997   5.931 -1.0106 -0.1052 -1.0576
  122MOL   H22539187   5.167   1.882   5.980  0.7827  2.5449 -1.4689
  122MOL   C22639188   5.010   1.860   6.112 -0.3849 -0.0274 -0.1169
  122MOL   C22739189   5.005   1.981   6.208  0.1689  0.9245 -0.1330
  122MOL   C22839190   4.879   2.014   6.267 -0.2697 -0.5500 -0.0493
  122MOL  Cl22939191   4.736   1.918   6.240 -0.6525  0.4856 -0.0427
  122MOL   C23039192   4.873   2.123   6.356 -0.1284  0.5933 -0.6668
  122MOL   C23139193   4.988   2.194   6.393 -0.1317 -0.3392  0.5757
  122MOL   C23239194   5.114   2.148   6.345  0.3783 -0.3831 -0.0095
  122MOL   C23339195   5.118   2.050   6.247 -0.2550 -0.2492  0.0938
  122MOL   C23439196   5.099   1.753   6.180  0.4174  0.2766  0.3827
  122MOL   H23539197   4.908   1.832   6.086  0.4569 -0.6465 -2.8626
  122MOL   H23639198   4.788   2.146   6.419 -0.8818 -0.3312 -1.3230
  122MOL   H23739199   4.991   2.268   6.472  2.5648  0.7852 -0.5216
  122MOL   H23839200   5.203   2.194   6.384  0.3724 -0.2094 -0.2006
  122MOL   H23939201   5.216   2.013   6.218  0.1125  0.5685  0.2722
  122MOL   H24039202   5.204   1.780   6.185 -0.3266  3.1659  1.5076
  122MOL   H24139203   5.104   1.673   6.107 -1.5785 -1.4779  2.1263
  122MOL   C24239204   5.041   1.698   6.314 -0.0975  0.8996 -0.3407
  122MOL   C24339205   5.162   1.652   6.403  0.4963  0.3662 -0.0800
  122MOL   C24439206   5.210   1.731   6.510 -0.8458  0.2449  0.6048
  122MOL  Cl24539207   5.132   1.882   6.552  0.1869 -0.0917 -0.1890
  122MOL   C24639208   5.323   1.687   6.578  0.3218  0.5820 -0.4456
  122MOL   C24739209   5.397   1.574   6.549 -0.2220 -0.0845 -0.1169
  122MOL   C24839210   5.350   1.493   6.442 -0.3838 -0.0610 -0.0990
  122MOL   C24939211   5.235   1.530   6.370  0.4774 -0.2941 -0.0944
  122MOL   C25039212   4.935   1.594   6.288 -0.0346 -0.4620 -0.3380
  122MOL   H25139213   4.991   1.776   6.372 -0.5656 -1.2269  2.1732
  122MOL   H25239214   5.367   1.750   6.655  1.3878  0.2553 -0.7801
  122MOL   H25339215   5.489   1.560   6.604 -0.8499 -1.0386  0.6927
  122MOL   H25439216   5.412   1.409   6.416  0.4775 -0.5784  3.3394
  122MOL   H25539217   5.204   1.467   6.287  0.0518  1.6506 -1.4454
  122MOL   H25639218   4.987   1.524   6.223  1.2445  0.6921 -0.5984
  122MOL   H25739219   4.856   1.626   6.220  2.0524 -1.7485 -3.5100
  122MOL   C25839220   4.882   1.523   6.418 -0.1363  0.3468  0.4966
  122MOL   C25939221   4.836   1.380   6.385  0.2940  0.7144 -0.4025
  122MOL   C26039222   4.885   1.265   6.452 -0.1107  0.5803 -0.4443
  122MOL  Cl26139223   5.001   1.278   6.571  0.3603 -0.1873 -0.0549
  122MOL   C26239224   4.832   1.139   6.424 -0.0867 -0.3719 -0.4328
  122MOL   C26339225   4.724   1.119   6.336  0.0280 -0.8237  0.0195
  122MOL   C26439226   4.669   1.228   6.269 -0.9530 -0.1678  0.4588
  122MOL   C26539227   4.720   1.360   6.297  0.4404 -0.0938  0.2129
  122MOL   C26639228   4.765   1.591   6.498 -0.2701 -0.4701 -0.4453
  122MOL   H26739229   4.967   1.518   6.487  0.2514 -0.9374 -0.0765
  122MOL   H26839230   4.873   1.060   6.486 -1.2373 -0.8998 -0.3214
  122MOL   H26939231   4.682   1.022   6.310  0.9201 -0.4484 -2.9768
  122MOL   H27039232   4.586   1.206   6.204 -1.4780  0.6004  0.8663
  122MOL   H27139233   4.678   1.450   6.255  1.2239  0.0244 -0.3316
  122MOL   H27239234   4.674   1.585   6.438  0.3827  0.3681 -1.5316
  122MOL   H27339235   4.797   1.694   6.512 -0.7999 -0.2507 -0.8509
  122MOL   C27439236   4.742   1.533   6.636  0.2979  0.1340  0.7688
  122MOL   C27539237   4.605   1.572   6.696  0.1278  0.4635  0.6591
  122MOL   C27639238   4.510   1.470   6.731  0.7157 -0.3774 -0.1291
  122MOL  Cl27739239   4.534   1.299   6.717 -0.0487 -0.0840 -0.1065
  122MOL   C27839240   4.386   1.507   6.787 -0.3511  0.7558 -0.0642
  122MOL   C27939241   4.358   1.644   6.802 -0.0146  0.0390 -0.0507
  122MOL   C28039242   4.457   1.742   6.787 -0.9619  0.0411 -0.4144
  122MOL   C28139243   4.586   1.707   6.740  0.3223 -0.2502  0.1011
  122MOL   C28239244   4.860   1.590   6.734 -0.0049  0.2432  0.4241
  122MOL   H28339245   4.736   1.425   6.636  0.2089  0.1140 -1.6321
  122MOL   H28439246   4.310   1.431   6.792  0.5380 -0.1048  0.5837
  122MOL   H28539247   4.256   1.670   6.825 -0.1823  0.0176 -0.7700
  122MOL   H28639248   4.435   1.844   6.815  1.6628  0.6689 -0.4834
  122MOL   H28739249   4.660   1.782   6.718  0.2822  0.4360  2.2369
  122MOL   H28839250   4.856   1.699   6.727  0.5586  0.2314 -0.0610
  122MOL   H28939251   4.956   1.554   6.699 -0.5459  0.0673 -0.9069
  122MOL   C29039252   4.858   1.541   6.881 -0.3280 -0.0429 -0.4085
  122MOL   C29139253   4.962   1.614   6.969 -0.2132  0.0560  0.2392
  122MOL   C29239254   4.921   1.706   7.070  0.0443 -0.5762 -0.7850
  122MOL  Cl29339255   4.754   1.743   7.096  0.2376  0.0518  0.6104
  122MOL   C29439256   5.022   1.757   7.159 -0.6163 -0.2419  0.1966
  122MOL   C29539257   5.158   1.738   7.127  0.2456 -0.2511 -1.1420
  122MOL   C29639258   5.197   1.670   7.015 -0.0477  0.3565  0.2658
  122MOL   C29739259   5.102   1.603   6.944 -0.3714  0.2659  0.0990
  122MOL   C29839260   4.872   1.386   6.896  0.6259 -0.1251 -0.4453
  122MOL   H29939261   4.763   1.565   6.929 -0.9294 -1.0339 -1.0744
  122MOL   H30039262   4.995   1.802   7.253 -2.0274 -1.7955  0.5402
  122MOL   H30139263   5.224   1.770   7.206  1.0359 -0.3284 -1.7731
  122MOL   H30239264   5.300   1.646   6.995 -0.0914  0.6880 -0.3729
  122MOL   H30339265   5.130   1.532   6.867  1.4882  0.8253  0.2504
  122MOL   H30439266   4.967   1.341   6.867 -0.4016 -2.1820 -0.7124
  122MOL   H30539267   4.812   1.325   6.828  1.6857 -0.6392 -0.9344
  122MOL   C30639268   4.836   1.334   7.042  0.3612 -0.3103  0.9402
  122MOL   C30739269   4.932   1.224   7.080  0.0315  0.1804 -0.3782
  122MOL   C30839270   5.021   1.233   7.189 -0.0569 -0.3230  0.0391
  122MOL  Cl30939271   5.030   1.378   7.287  0.2709 -0.4072 -0.2132
  122MOL   C31039272   5.111   1.124   7.220 -0.0160 -0.2573  0.0916
  122MOL   C31139273   5.101   1.008   7.148 -0.6875 -0.1416 -0.4986
  122MOL   C31239274   4.999   0.988   7.053 -0.6505  0.0287  0.0541
  122MOL   C31339275   4.916   1.098   7.015  0.1319 -1.1366 -0.3316
  122MOL   C31439276   4.684   1.302   7.055 -0.2269 -0.2512  0.4729
  122MOL   H31539277   4.856   1.408   7.120  0.2686  0.8851 -0.1582
  122MOL   H31639278   5.183   1.149   7.297  1.5771 -0.9615 -1.1441
  122MOL   H31739279   5.171   0.929   7.171 -1.2912 -0.3444  0.7002
  122MOL   H31839280   4.986   0.893   7.004 -1.4355  0.7583 -1.1557
  122MOL   H31939281   4.847   1.084   6.932 -1.6300 -2.3276  1.2955
  122MOL   H32039282   4.663   1.280   7.160  1.3657 -0.4727  0.7482
  122MOL   H32139283   4.652   1.216   6.995  0.8436 -1.2014  1.2506
  122MOL   H32239284   4.631   1.394   7.030  1.5487  0.1259 -2.1200
  123MOL     C139285   5.794   3.516   5.358 -0.6260  0.5473  0.4946
  123MOL     C239286   5.899   3.542   5.251 -0.5846  0.2890  0.2480
  123MOL     C339287   5.910   3.659   5.177 -0.1197  0.0425  0.6471
  123MOL    Cl439288   5.808   3.790   5.212 -0.6499 -0.0739  0.2478
  123MOL     C539289   6.010   3.680   5.077  0.2058  0.2955  0.4892
  123MOL     C639290   6.108   3.579   5.057  0.4724 -0.5455 -0.7534
  123MOL     C739291   6.109   3.466   5.139  0.6287 -0.3888  0.3752
  123MOL     C839292   5.999   3.447   5.229 -1.0201  0.6635  0.7331
  123MOL     C939293   5.842   3.577   5.495  0.5834 -0.4954  0.1942
  123MOL    H1039294   5.698   3.558   5.327 -0.8595  0.0206  0.4782
  123MOL    H1139295   6.021   3.774   5.026  1.5187  0.1459  0.4742
  123MOL    H1239296   6.197   3.594   4.996  0.5833 -0.6744 -0.6244
  123MOL    H1339297   6.194   3.401   5.126  2.7062  2.0169  1.6264
  123MOL    H1439298   6.004   3.357   5.287 -2.2122  0.0341 -0.1099
  123MOL    H1539299   5.842   3.685   5.489 -1.2243 -0.5812 -2.0323
  123MOL    H1639300   5.944   3.547   5.519  0.2826 -0.5764  1.4043
  123MOL    H1739301   5.770   3.409   5.362  0.4803  0.2294 -0.9251
  123MOL    C1839302   5.750   3.537   5.609  0.2994  0.1392 -0.0321
  123MOL    C1939303   5.602   3.568   5.579  0.9575 -0.1725  0.5178
  123MOL    C2039304   5.502   3.468   5.589 -0.0143 -1.0224  1.1147
  123MOL   Cl2139305   5.547   3.307   5.602  0.0258 -0.3047  0.1812
  123MOL    C2239306   5.365   3.497   5.585 -0.3858 -0.3111 -0.2814
  123MOL    C2339307   5.326   3.633   5.571  0.1276 -0.1111 -0.5471
  123MOL    C2439308   5.423   3.729   5.557 -0.5499 -0.5546 -0.3887
  123MOL    C2539309   5.560   3.701   5.566  0.8836  0.0201 -0.4722
  123MOL    C2639310   5.802   3.611   5.738  0.3300  0.2948  0.5864
  123MOL    H2739311   5.761   3.432   5.636  0.0650  0.9343  3.3863
  123MOL    H2839312   5.296   3.417   5.607  0.1428 -1.2285 -1.8561
  123MOL    H2939313   5.221   3.659   5.567 -0.0888 -0.9876 -0.5751
  123MOL    H3039314   5.389   3.831   5.563 -1.4437 -0.8512 -0.3495
  123MOL    H3139315   5.640   3.774   5.554  1.6465 -0.6995  0.1908
  123MOL    H3239316   5.821   3.714   5.707 -0.3192  0.1649 -0.2754
  123MOL    H3339317   5.894   3.567   5.777  0.4623  1.5239  1.6940
  123MOL    C3439318   5.712   3.644   5.856  0.7016  0.2458  0.7488
  123MOL    C3539319   5.777   3.730   5.959 -0.0962 -0.4713 -1.1787
  123MOL    C3639320   5.769   3.870   5.958 -0.0364  0.6912 -0.4305
  123MOL   Cl3739321   5.671   3.957   5.856 -0.1059 -0.2534  0.1774
  123MOL    C3839322   5.824   3.944   6.063  0.2819 -0.0041 -0.1830
  123MOL    C3939323   5.903   3.881   6.160 -0.5269 -0.1451  0.6247
  123MOL    C4039324   5.918   3.746   6.160  0.9063  0.1819 -0.5724
  123MOL    C4139325   5.861   3.668   6.057  0.3497  0.0565 -0.7607
  123MOL    C4239326   5.644   3.515   5.913  0.2534  0.0514 -0.1082
  123MOL    H4339327   5.627   3.700   5.817  1.6412  0.1883 -1.4602
  123MOL    H4439328   5.810   4.051   6.063  4.8137  0.7219 -1.6261
  123MOL    H4539329   5.960   3.940   6.231  0.4044  2.2568 -2.0412
  123MOL    H4639330   5.976   3.697   6.235  1.5647  1.5677 -0.1589
  123MOL    H4739331   5.884   3.563   6.066  1.5106  0.5073  1.8794
  123MOL    H4839332   5.722   3.450   5.952 -1.0006 -1.8597 -0.7097
  123MOL    H4939333   5.593   3.453   5.839  1.8792 -1.6037  0.1159
  123MOL    C5039334   5.535   3.552   6.017  0.1647 -0.1287  0.1928
  123MOL    C5139335   5.518   3.437   6.116  0.2212 -0.0008 -0.6509
  123MOL    C5239336   5.454   3.313   6.083 -1.4060 -0.4168 -0.5995
  123MOL   Cl5339337   5.382   3.282   5.929 -0.0833 -0.2065 -0.2019
  123MOL    C5439338   5.438   3.210   6.181 -0.1599 -0.0737 -0.0889
  123MOL    C5539339   5.479   3.232   6.316 -0.1098  0.1757 -1.2657
  123MOL    C5639340   5.543   3.354   6.353  0.3167 -0.2366  0.4150
  123MOL    C5739341   5.565   3.452   6.251  0.6210 -0.3580  0.3858
  123MOL    C5839342   5.405   3.608   5.949 -0.9397 -0.4444  0.1199
  123MOL    H5939343   5.569   3.638   6.075  0.1709  1.6277 -2.3294
  123MOL    H6039344   5.392   3.115   6.156 -0.5609  0.5211 -1.6637
  123MOL    H6139345   5.449   3.165   6.396  0.0195  0.8561 -0.6373
  123MOL    H6239346   5.587   3.376   6.449  0.7164 -0.0391  0.1880
  123MOL    H6339347   5.604   3.547   6.285  1.3599 -0.3816 -0.3682
  123MOL    H6439348   5.383   3.540   5.867  1.0914  0.0752 -0.8910
  123MOL    H6539349   5.424   3.708   5.911  1.2365 -0.7148  0.4690
  123MOL    C6639350   5.276   3.619   6.033  0.1612 -0.3058 -0.1822
  123MOL    C6739351   5.164   3.664   5.945  0.4937  0.1348  0.2601
  123MOL    C6839352   5.066   3.578   5.885 -0.4245 -0.3293  0.0372
  123MOL   Cl6939353   5.058   3.412   5.919  0.2104  0.2215  0.2400
  123MOL    C7039354   4.973   3.634   5.796  0.7821  0.0219  0.5318
  123MOL    C7139355   4.978   3.769   5.752 -0.1243 -0.0612  0.3699
  123MOL    C7239356   5.069   3.850   5.814  0.4258 -0.0288  0.5829
  123MOL    C7339357   5.159   3.803   5.909 -0.5638 -0.1357  0.1144
  123MOL    C7439358   5.287   3.711   6.156 -0.2164  0.1114  0.8432
  123MOL    H7539359   5.244   3.521   6.069 -0.6068 -0.2036 -0.5892
  123MOL    H7639360   4.900   3.567   5.753  1.5421 -0.5368  0.1161
  123MOL    H7739361   4.908   3.809   5.679 -1.5237 -0.5625  1.4124
  123MOL    H7839362   5.056   3.952   5.781  2.2613 -0.0602 -0.3200
  123MOL    H7939363   5.228   3.877   5.948 -1.3143  1.5006 -1.5856
  123MOL    H8039364   5.323   3.812   6.132  0.5951 -0.0193  1.4777
  123MOL    H8139365   5.371   3.674   6.215 -0.7573 -0.0579  1.5184
  123MOL    C8239366   5.167   3.720   6.257 -0.4679  0.0760  0.7375
  123MOL    C8339367   5.156   3.851   6.340 -0.4170  0.2801  0.6560
  123MOL    C8439368   5.029   3.907   6.351  0.0428 -0.5828  0.2696
  123MOL   Cl8539369   4.892   3.854   6.267 -0.0945  0.0433 -0.0777
  123MOL    C8639370   5.003   4.011   6.441 -0.4889  0.4832 -0.0952
  123MOL    C8739371   5.094   4.050   6.532 -0.2603 -0.5455 -0.3826
  123MOL    C8839372   5.219   3.988   6.528 -0.8374 -0.1904 -1.2778
  123MOL    C8939373   5.254   3.896   6.429 -0.8614  0.0388  0.1889
  123MOL    C9039374   5.163   3.596   6.352 -0.3295  0.2666  0.7673
  123MOL    H9139375   5.078   3.716   6.195  0.9606  0.6076 -1.4010
  123MOL    H9239376   4.904   4.056   6.437 -0.3154  1.1672  2.5569
  123MOL    H9339377   5.076   4.131   6.601 -0.8661 -0.7888 -0.2486
  123MOL    H9439378   5.293   4.023   6.598  0.8176 -0.9996 -2.5744
  123MOL    H9539379   5.352   3.849   6.430 -0.4422  0.9086  2.1424
  123MOL    H9639380   5.139   3.624   6.454 -0.3312 -1.1030  1.1438
  123MOL    H9739381   5.262   3.560   6.381 -1.9991 -2.9979  2.5796
  123MOL    C9839382   5.062   3.486   6.314  0.9211  0.0230 -0.1742
  123MOL    C9939383   4.930   3.501   6.384  0.0450  0.0342  0.2956
  123MOL   C10039384   4.807   3.529   6.321  0.3648  0.7280  0.0952
  123MOL  Cl10139385   4.815   3.544   6.151  0.0006 -0.3183  0.1187
  123MOL   C10239386   4.689   3.551   6.393  0.3979 -0.4779  0.0502
  123MOL   C10339387   4.684   3.522   6.522  0.9203 -0.1502 -0.1051
  123MOL   C10439388   4.802   3.488   6.591 -0.3679  0.0283  0.2166
  123MOL   C10539389   4.925   3.497   6.524 -0.5827 -0.4646  0.3931
  123MOL   C10639390   5.134   3.347   6.327 -0.1999  0.3190 -0.0291
  123MOL   H10739391   5.055   3.484   6.205  2.0186 -0.1165 -0.2474
  123MOL   H10839392   4.601   3.596   6.351  0.1617 -2.6347 -1.8838
  123MOL   H10939393   4.594   3.544   6.578  2.7475  1.1355  2.4209
  123MOL   H11039394   4.806   3.462   6.696 -1.9132  1.9605  0.7936
  123MOL   H11139395   5.010   3.496   6.591  1.0172  2.2812 -1.4841
  123MOL   H11239396   5.213   3.356   6.402  0.8918  2.4472 -1.3870
  123MOL   H11339397   5.188   3.327   6.235 -1.8157  0.6891 -1.0710
  123MOL   C11439398   5.040   3.217   6.366 -0.3460 -0.3960 -0.2330
  123MOL   C11539399   5.129   3.105   6.416 -0.5988  0.0990 -0.4780
  123MOL   C11639400   5.154   3.098   6.553  0.2254  0.3789 -0.5203
  123MOL  Cl11739401   5.101   3.216   6.674 -0.1949  0.0822  0.3320
  123MOL   C11839402   5.241   2.998   6.596  0.0201  0.6012  0.5679
  123MOL   C11939403   5.301   2.904   6.512 -0.5411 -0.7250 -0.3920
  123MOL   C12039404   5.288   2.927   6.378  0.3818 -0.1938 -0.0376
  123MOL   C12139405   5.198   3.021   6.333  0.2187  0.3989 -0.6301
  123MOL   C12239406   4.936   3.185   6.253 -0.0536 -0.8260  0.1568
  123MOL   H12339407   4.969   3.250   6.442 -2.2307  2.1881 -2.9795
  123MOL   H12439408   5.275   3.005   6.698  0.6089  1.4729  0.3133
  123MOL   H12539409   5.366   2.827   6.550  0.0331  1.0638  2.4401
  123MOL   H12639410   5.332   2.851   6.315  2.1884  1.2165 -0.5133
  123MOL   H12739411   5.176   3.027   6.227  0.0541 -0.9820 -0.6736
  123MOL   H12839412   4.964   3.111   6.178  3.4792  0.8684 -0.2838
  123MOL   H12939413   4.923   3.278   6.196 -1.7333 -1.5054 -0.6035
  123MOL   C13039414   4.809   3.135   6.311 -0.3594  0.5632  0.5679
  123MOL   C13139415   4.838   3.014   6.407  0.1908 -0.3968  0.6543
  123MOL   C13239416   4.806   3.013   6.547  0.3124 -0.3623  0.4803
  123MOL  Cl13339417   4.730   3.143   6.624  0.3027 -0.4049  0.3613
  123MOL   C13439418   4.834   2.905   6.623  0.4882  0.4509  0.3044
  123MOL   C13539419   4.874   2.785   6.566 -0.1527 -0.6052 -0.4926
  123MOL   C13639420   4.905   2.778   6.432 -0.5391  0.3420 -0.0636
  123MOL   C13739421   4.888   2.893   6.357 -0.0925 -0.7541  0.1012
  123MOL   C13839422   4.708   3.100   6.197 -0.1179  0.0563  0.2490
  123MOL   H13939423   4.763   3.213   6.371  0.2773 -0.5571  2.5337
  123MOL   H14039424   4.814   2.902   6.730  2.2221  1.7792  0.6819
  123MOL   H14139425   4.874   2.707   6.641  0.8366  0.8799  1.1013
  123MOL   H14239426   4.941   2.687   6.386  1.1660  0.9844 -0.0257
  123MOL   H14339427   4.902   2.880   6.250 -0.2791  0.6823 -0.1022
  123MOL   H14439428   4.756   3.036   6.123 -1.2318 -1.1142  0.5190
  123MOL   H14539429   4.693   3.188   6.135  0.7443  0.8831  1.2062
  123MOL   C14639430   4.575   3.030   6.238 -0.2133  0.3632  0.1888
  123MOL   C14739431   4.505   2.989   6.111  0.4695 -0.2461 -0.0561
  123MOL   C14839432   4.467   2.859   6.098  0.3292 -0.2014 -0.3779
  123MOL  Cl14939433   4.479   2.736   6.222  0.1992  0.1264 -0.1415
  123MOL   C15039434   4.398   2.818   5.979 -0.0209  0.2375 -0.1288
  123MOL   C15139435   4.364   2.912   5.880 -0.5397 -0.2030 -0.1041
  123MOL   C15239436   4.402   3.048   5.895 -0.6677 -0.5860  0.2178
  123MOL   C15339437   4.470   3.085   6.012 -0.1148 -0.1225  0.3628
  123MOL   C15439438   4.493   3.135   6.317 -0.6934 -0.1206  0.6449
  123MOL   H15539439   4.597   2.941   6.297  0.5797 -0.7413 -1.7334
  123MOL   H15639440   4.372   2.714   5.970  0.9467  0.0762 -1.2455
  123MOL   H15739441   4.304   2.884   5.794 -0.7747 -0.8381  0.2605
  123MOL   H15839442   4.382   3.131   5.829  1.5272  0.8035  1.2389
  123MOL   H15939443   4.496   3.188   6.032  2.1011 -0.1697 -2.0176
  123MOL   H16039444   4.494   3.231   6.264  0.7654  0.2436  1.2964
  123MOL   H16139445   4.544   3.160   6.411  1.5546 -0.7068 -0.3681
  123MOL   C16239446   4.346   3.116   6.350  0.3574  0.1540  0.3232
  123MOL   C16339447   4.298   3.248   6.416  0.4571  0.3816  0.0505
  123MOL   C16439448   4.190   3.322   6.363 -0.2695 -0.1303  0.2948
  123MOL  Cl16539449   4.110   3.276   6.218 -0.1405  0.2441 -0.2505
  123MOL   C16639450   4.145   3.444   6.422  0.9793 -0.0200  0.1876
  123MOL   C16739451   4.215   3.503   6.531 -0.5884 -0.1434  0.3386
  123MOL   C16839452   4.326   3.433   6.579  0.5298 -0.1539 -0.7392
  123MOL   C16939453   4.358   3.303   6.531  0.1749  0.0964  0.0451
  123MOL   C17039454   4.332   2.993   6.451  0.0678 -0.7150  0.4722
  123MOL   H17139455   4.288   3.085   6.263 -1.2469  1.0032  1.0753
  123MOL   H17239456   4.057   3.489   6.381  1.7133 -0.8544 -2.3811
  123MOL   H17339457   4.188   3.590   6.589  1.1060 -0.4314  1.5955
  123MOL   H17439458   4.378   3.464   6.668 -1.1522 -1.9116  0.8887
  123MOL   H17539459   4.447   3.256   6.570 -1.5373 -1.7063  1.8931
  123MOL   H17639460   4.400   2.998   6.535  0.0236  2.0152  0.3904
  123MOL   H17739461   4.365   2.911   6.387  1.4082  0.1278  0.0468
  123MOL   C17839462   4.186   2.959   6.500  0.8726 -0.2590 -0.3498
  123MOL   C17939463   4.132   3.064   6.604  0.6267 -0.0207  0.0784
  123MOL   C18039464   4.009   3.132   6.579  0.5071  0.4089  0.1495
  123MOL  Cl18139465   3.928   3.104   6.439 -0.5219  0.2501  0.3295
  123MOL   C18239466   3.956   3.222   6.675 -0.1943  0.6999  0.1997
  123MOL   C18339467   4.028   3.245   6.793 -1.2306 -0.3005 -0.7055
  123MOL   C18439468   4.145   3.173   6.824 -1.0920  0.3955  0.6960
  123MOL   C18539469   4.200   3.082   6.727 -0.3996 -0.0283 -0.1616
  123MOL   C18639470   4.175   2.812   6.542  0.3634 -0.0612 -0.2989
  123MOL   H18739471   4.133   2.964   6.406 -0.2251  0.7487  0.3050
  123MOL   H18839472   3.860   3.268   6.657  0.1677  0.7753 -1.6508
  123MOL   H18939473   3.994   3.325   6.858 -0.1101 -0.0088 -0.4716
  123MOL   H19039474   4.199   3.203   6.912 -1.3939  0.6463  0.7944
  123MOL   H19139475   4.298   3.043   6.746 -0.3831 -1.0532 -2.1347
  123MOL   H19239476   4.240   2.788   6.626 -1.8126 -2.6579  0.7009
  123MOL   H19339477   4.216   2.754   6.459  1.2092 -0.0982  0.1474
  123MOL   C19439478   4.027   2.766   6.568  0.1525 -0.3975 -0.6331
  123MOL   C19539479   3.955   2.817   6.693  0.0049  0.5385  0.3870
  123MOL   C19639480   3.820   2.853   6.687  0.2109  0.2342 -0.0947
  123MOL  Cl19739481   3.730   2.867   6.542  0.0524  0.2091 -0.3811
  123MOL   C19839482   3.762   2.903   6.799 -0.6812  0.2256  0.3408
  123MOL   C19939483   3.827   2.907   6.922 -0.1120  0.3310  0.3180
  123MOL   C20039484   3.961   2.867   6.930  0.5450  0.2148  0.0166
  123MOL   C20139485   4.028   2.820   6.813  0.0079  0.3901 -0.6678
  123MOL   C20239486   4.014   2.612   6.569  0.2570 -0.4533 -1.0882
  123MOL   H20339487   3.968   2.812   6.489  1.5211 -0.2520 -1.5756
  123MOL   H20439488   3.657   2.927   6.792 -0.9317 -1.2900 -1.3522
  123MOL   H20539489   3.787   2.952   7.012  1.3934  2.2639  0.0669
  123MOL   H20639490   4.010   2.857   7.025  0.8464 -1.1237 -0.2744
  123MOL   H20739491   4.130   2.786   6.828 -0.0606 -0.3748 -1.8472
  123MOL   H20839492   3.909   2.587   6.583 -0.4092  2.1317 -1.1454
  123MOL   H20939493   4.066   2.559   6.649 -0.0930  1.2945  0.3109
  123MOL   C21039494   4.030   2.547   6.421  0.1963  0.5659  0.0971
  123MOL   C21139495   3.943   2.592   6.308 -0.1785  0.8968 -0.1559
  123MOL   C21239496   3.985   2.662   6.193 -0.2210 -0.5945 -0.3022
  123MOL  Cl21339497   4.148   2.713   6.176 -0.1939  0.2196 -0.1588
  123MOL   C21439498   3.891   2.704   6.093 -0.3418  0.1927 -0.0694
  123MOL   C21539499   3.756   2.682   6.102 -0.0642 -0.8310  0.4466
  123MOL   C21639500   3.708   2.608   6.216  0.4182  0.0001 -0.1601
  123MOL   C21739501   3.805   2.565   6.315  0.4241  0.9089  0.5462
  123MOL   C21839502   4.036   2.398   6.427  0.0096  0.1972 -0.5463
  123MOL   H21939503   4.128   2.575   6.381  0.1235 -1.9423 -1.9160
  123MOL   H22039504   3.919   2.754   6.001 -1.5908 -0.2523 -0.7144
  123MOL   H22139505   3.679   2.695   6.028  1.3510 -2.0899 -1.2911
  123MOL   H22239506   3.603   2.581   6.225  0.4873 -1.3278 -2.7827
  123MOL   H22339507   3.759   2.516   6.399 -2.2916 -0.2696 -1.5502
  123MOL   H22439508   4.054   2.365   6.325 -0.3749  2.5319 -1.3964
  123MOL   H22539509   3.937   2.364   6.457 -1.0496  1.5971 -2.3640
  123MOL   C22639510   4.153   2.335   6.515 -0.1124  0.9638  0.2751
  123MOL   C22739511   4.286   2.335   6.438  0.5482 -0.9216 -0.0762
  123MOL   C22839512   4.400   2.409   6.486 -0.5672  0.1234  0.2872
  123MOL  Cl22939513   4.392   2.515   6.629  0.3545  0.1328  0.2371
  123MOL   C23039514   4.522   2.390   6.426  0.5041  0.9297  0.0421
  123MOL   C23139515   4.533   2.310   6.308  0.3870 -0.1338 -0.5622
  123MOL   C23239516   4.418   2.250   6.255  0.3397  0.3825  0.5490
  123MOL   C23339517   4.295   2.252   6.323 -0.0255  0.1854  0.5938
  123MOL   C23439518   4.116   2.196   6.560 -0.6471  0.4282 -0.0011
  123MOL   H23539519   4.165   2.389   6.609 -2.9475 -0.8666  1.7781
  123MOL   H23639520   4.609   2.439   6.465  1.7884 -0.2448 -1.2847
  123MOL   H23739521   4.632   2.297   6.268  0.8154 -2.6860  1.2004
  123MOL   H23839522   4.427   2.196   6.162  1.7204  0.0750  0.8619
  123MOL   H23939523   4.222   2.182   6.285  0.3395  0.5281 -0.7318
  123MOL   H24039524   4.057   2.132   6.494  1.3963 -1.0303 -0.4790
  123MOL   H24139525   4.035   2.218   6.630 -0.8697 -0.5486  0.0674
  123MOL   C24239526   4.223   2.108   6.636 -0.8879  0.3391 -0.2227
  123MOL   C24339527   4.281   2.001   6.538  0.9089 -0.3600  1.5407
  123MOL   C24439528   4.422   1.988   6.529 -0.3687  0.5846  0.3766
  123MOL  Cl24539529   4.534   2.096   6.615  0.2270  0.0469  0.1436
  123MOL   C24639530   4.474   1.896   6.444 -0.3321  0.2619 -0.0542
  123MOL   C24739531   4.394   1.815   6.360 -0.1380 -0.0351 -0.0147
  123MOL   C24839532   4.253   1.819   6.374 -0.3951  0.3730 -0.0431
  123MOL   C24939533   4.194   1.912   6.461  0.3009  0.0554  0.0705
  123MOL   C25039534   4.149   2.022   6.747  0.4374  0.0044  0.4842
  123MOL   H25139535   4.296   2.169   6.688 -0.3889 -0.5459  0.1371
  123MOL   H25239536   4.582   1.888   6.446 -0.1967  2.1611  0.6386
  123MOL   H25339537   4.445   1.747   6.293 -1.2438 -0.9776  0.0779
  123MOL   H25439538   4.188   1.750   6.322 -1.3767 -0.3502  2.0864
  123MOL   H25539539   4.086   1.905   6.469  0.4107 -1.2179  0.5896
  123MOL   H25639540   4.202   1.928   6.766  0.7033 -0.1127 -0.7693
  123MOL   H25739541   4.049   1.991   6.717  0.3161 -0.3238  1.2179
  123MOL   C25839542   4.137   2.100   6.880 -0.7885 -0.2567 -0.4996
  123MOL   C25939543   4.271   2.093   6.963  0.4022 -0.0715  0.6771
  123MOL   C26039544   4.346   2.213   6.988 -0.5440  0.3164 -0.1482
  123MOL  Cl26139545   4.298   2.368   6.932  0.2657  0.4351 -0.2908
  123MOL   C26239546   4.474   2.200   7.055  0.2993 -0.2919  0.3444
  123MOL   C26339547   4.533   2.087   7.097  0.4370  0.0514 -0.2017
  123MOL   C26439548   4.457   1.967   7.081  0.5658 -0.1567  0.2451
  123MOL   C26539549   4.326   1.970   7.019 -0.3069  0.1329  1.0817
  123MOL   C26639550   4.018   2.040   6.961 -0.6237  0.1917  0.1528
  123MOL   H26739551   4.116   2.204   6.856 -1.3735 -0.0675  0.7794
  123MOL   H26839552   4.537   2.288   7.061  1.6906 -1.2969  0.9356
  123MOL   H26939553   4.634   2.092   7.135 -0.1538  0.6305  1.3235
  123MOL   H27039554   4.503   1.871   7.100 -1.5141 -0.5487  3.8225
  123MOL   H27139555   4.271   1.877   7.012 -0.2285  0.0444  1.6227
  123MOL   H27239556   4.035   2.070   7.064  2.8474  0.3281 -0.3963
  123MOL   H27339557   4.036   1.933   6.959  0.0782  0.3005 -4.6039
  123MOL   C27439558   3.875   2.063   6.914  0.3989  0.0601 -0.8235
  123MOL   C27539559   3.831   2.209   6.901 -0.2470  0.0157 -0.3740
  123MOL   C27639560   3.793   2.259   6.773  0.1616 -1.3996 -0.6708
  123MOL  Cl27739561   3.762   2.159   6.633  0.4447 -0.4228  0.0770
  123MOL   C27839562   3.763   2.398   6.764  0.6590  0.0479  0.0539
  123MOL   C27939563   3.781   2.484   6.873 -0.0977  0.2083 -0.5649
  123MOL   C28039564   3.818   2.427   6.996  0.4599  0.4467  0.3180
  123MOL   C28139565   3.846   2.293   7.014 -0.2022  0.1042 -0.4632
  123MOL   C28239566   3.779   1.978   7.003  0.7204  0.0468 -0.3340
  123MOL   H28339567   3.858   2.016   6.817 -2.6268 -0.2335 -0.2092
  123MOL   H28439568   3.725   2.446   6.675 -0.5145  0.4917  0.7758
  123MOL   H28539569   3.769   2.591   6.862 -2.0456  0.1007  0.3911
  123MOL   H28639570   3.811   2.488   7.085  0.3193  3.4246 -1.6557
  123MOL   H28739571   3.877   2.260   7.112 -1.5847  0.8849  0.2411
  123MOL   H28839572   3.681   2.024   6.988  1.0278 -0.0527 -2.7236
  123MOL   H28939573   3.813   1.976   7.107  1.1772 -0.7276 -0.4967
  123MOL   C29039574   3.748   1.830   6.961 -0.0076  0.6968  0.3071
  123MOL   C29139575   3.697   1.825   6.820  0.1003  0.1912  0.5136
  123MOL   C29239576   3.777   1.797   6.702 -0.3501 -0.2272  0.1636
  123MOL  Cl29339577   3.944   1.770   6.713 -0.0538  0.2078 -0.3244
  123MOL   C29439578   3.725   1.798   6.570 -0.5628 -0.3361 -0.1562
  123MOL   C29539579   3.590   1.816   6.551 -0.8329  0.4543 -0.1761
  123MOL   C29639580   3.512   1.846   6.664 -0.3736 -0.4000  0.0192
  123MOL   C29739581   3.558   1.848   6.797 -0.2607 -0.1789  0.2240
  123MOL   C29839582   3.660   1.755   7.063  0.4859 -0.3414  0.1345
  123MOL   H29939583   3.846   1.783   6.957 -0.4772 -0.3565  0.9686
  123MOL   H30039584   3.792   1.778   6.488  1.2624  0.5599  1.0797
  123MOL   H30139585   3.543   1.809   6.454 -1.3446  2.5678 -0.1072
  123MOL   H30239586   3.405   1.854   6.651 -0.4036  0.7584  0.8765
  123MOL   H30339587   3.482   1.862   6.872 -0.0747  1.1967  0.1879
  123MOL   H30439588   3.652   1.656   7.019  0.3774  0.1165 -0.8692
  123MOL   H30539589   3.560   1.795   7.083  0.3648  0.2490 -1.5859
  123MOL   C30639590   3.733   1.720   7.197  0.5303 -0.0596 -0.5929
  123MOL   C30739591   3.866   1.653   7.170  0.4352  0.5357 -0.0737
  123MOL   C30839592   3.992   1.712   7.188  0.1005  0.1427  0.6386
  123MOL  Cl30939593   4.006   1.874   7.251  0.1781  0.1884 -0.2143
  123MOL   C31039594   4.111   1.644   7.167  0.6845 -0.4888  0.2474
  123MOL   C31139595   4.113   1.511   7.138  0.0355  0.6618 -0.6209
  123MOL   C31239596   3.991   1.444   7.114 -0.2856 -0.6888  0.6551
  123MOL   C31339597   3.870   1.517   7.123  0.4872 -0.1665  1.1378
  123MOL   C31439598   3.646   1.645   7.295  0.6858 -0.5200 -0.2978
  123MOL   H31539599   3.750   1.819   7.239 -0.8798  0.0621 -0.2855
  123MOL   H31639600   4.201   1.703   7.175 -0.1273  0.6886  0.8665
  123MOL   H31739601   4.208   1.462   7.128 -0.0483  0.7064 -1.6675
  123MOL   H31839602   3.999   1.338   7.095  0.4166 -0.6184  0.5240
  123MOL   H31939603   3.778   1.464   7.107  0.0645  0.9617 -0.2248
  123MOL   H32039604   3.615   1.547   7.260 -0.7394 -0.2461  0.1566
  123MOL   H32139605   3.554   1.695   7.323  1.4212  0.6757  0.0171
  123MOL   H32239606   3.691   1.630   7.393  0.4848 -1.3777 -0.3352
  124MOL     C139607   3.538   6.849   3.792  0.5010 -0.2739  0.6533
  124MOL     C239608   3.411   6.791   3.857 -0.0749  0.3511  0.5349
  124MOL     C339609   3.410   6.753   3.995  0.0948 -0.4140 -0.3501
  124MOL    Cl439610   3.548   6.791   4.095  0.0539 -0.1025 -0.0609
  124MOL     C539611   3.290   6.723   4.058 -0.2304  0.7483  0.5132
  124MOL     C639612   3.167   6.728   3.987 -0.6433  0.0680 -0.2421
  124MOL     C739613   3.165   6.757   3.854 -0.3471 -0.2186  0.3990
  124MOL     C839614   3.285   6.788   3.785 -0.7252  0.0119  0.2775
  124MOL     C939615   3.655   6.746   3.775  0.4170  0.7108  0.2360
  124MOL    H1039616   3.508   6.888   3.695  0.5135  2.8630  1.8747
  124MOL    H1139617   3.294   6.704   4.164  0.8778 -0.7681  0.2215
  124MOL    H1239618   3.073   6.717   4.039  0.0055  0.6448  1.0760
  124MOL    H1339619   3.066   6.768   3.813 -0.3382  0.1882  0.4784
  124MOL    H1439620   3.277   6.811   3.680  0.6092  1.6096  0.5180
  124MOL    H1539621   3.625   6.657   3.721  2.5011 -0.5034  1.0321
  124MOL    H1639622   3.681   6.714   3.876 -0.3729  2.9370  1.1739
  124MOL    H1739623   3.572   6.931   3.854 -1.1530 -0.9404  2.5068
  124MOL    C1839624   3.789   6.804   3.722 -0.0767 -0.3504 -0.1241
  124MOL    C1939625   3.769   6.842   3.573 -0.1283 -0.4275 -0.1926
  124MOL    C2039626   3.733   6.971   3.523 -0.2647  0.2886 -0.1425
  124MOL   Cl2139627   3.702   7.102   3.627  0.0773 -0.1683 -0.2053
  124MOL    C2239628   3.698   6.985   3.384 -0.1950  0.1319 -0.9569
  124MOL    C2339629   3.717   6.881   3.296  0.1571  0.0985 -0.1810
  124MOL    C2439630   3.767   6.758   3.343  0.0397  0.5343 -0.7074
  124MOL    C2539631   3.783   6.738   3.482  0.3786 -0.6267  0.6205
  124MOL    C2639632   3.901   6.704   3.752  0.4132  0.7343  0.2954
  124MOL    H2739633   3.820   6.889   3.783  1.9200 -1.7781  0.8954
  124MOL    H2839634   3.663   7.079   3.343 -0.7945 -0.2773 -1.3863
  124MOL    H2939635   3.705   6.884   3.189  3.6038 -0.2427 -0.6228
  124MOL    H3039636   3.784   6.677   3.274  0.3121  0.3446 -0.4189
  124MOL    H3139637   3.817   6.640   3.510 -0.6116 -1.0040  0.5036
  124MOL    H3239638   3.865   6.604   3.728  1.1746  0.3575  0.7168
  124MOL    H3339639   3.896   6.703   3.861 -0.2003  1.1050  0.2761
  124MOL    C3439640   4.043   6.731   3.690 -0.3695 -0.3660 -1.2382
  124MOL    C3539641   4.076   6.632   3.578 -0.6595  0.4459  0.1173
  124MOL    C3639642   4.113   6.675   3.449 -1.0346 -0.2265 -0.1552
  124MOL   Cl3739643   4.125   6.846   3.420  0.0809 -0.3190  0.0524
  124MOL    C3839644   4.138   6.579   3.346  0.4407  0.0167  0.1797
  124MOL    C3939645   4.125   6.441   3.375 -0.0466  0.3766  0.4995
  124MOL    C4039646   4.097   6.401   3.506  0.0781  0.5200  0.6360
  124MOL    C4139647   4.074   6.496   3.614 -0.1040  0.5533  1.2811
  124MOL    C4239648   4.147   6.734   3.799  0.2192 -0.2235 -0.0486
  124MOL    H4339649   4.040   6.829   3.643 -0.5804 -0.0040 -0.4791
  124MOL    H4439650   4.171   6.609   3.248  0.6559 -1.0037 -0.0699
  124MOL    H4539651   4.131   6.373   3.291  0.9171 -0.0491  0.9059
  124MOL    H4639652   4.092   6.299   3.542 -0.4187  0.9046  1.6697
  124MOL    H4739653   4.060   6.462   3.715  0.1624  2.2943  1.9201
  124MOL    H4839654   4.244   6.708   3.756  0.1323 -0.6017 -0.0172
  124MOL    H4939655   4.123   6.650   3.865  2.6520 -2.0618 -1.3955
  124MOL    C5039656   4.159   6.872   3.874  0.0819 -0.0835 -0.0162
  124MOL    C5139657   4.236   6.976   3.790  0.6538  0.4317  0.7211
  124MOL    C5239658   4.164   7.085   3.731 -0.3046 -0.2188 -0.0486
  124MOL   Cl5339659   4.002   7.121   3.756 -0.3526 -0.0304  0.2234
  124MOL    C5439660   4.241   7.164   3.640  0.3088 -0.1506  0.5740
  124MOL    C5539661   4.380   7.148   3.625  0.2818  0.3584  0.3915
  124MOL    C5639662   4.447   7.053   3.702  0.8100 -0.6285  0.2642
  124MOL    C5739663   4.373   6.967   3.780 -0.7466  0.8698  0.2593
  124MOL    C5839664   4.210   6.857   4.019  0.0022  0.6273  1.0092
  124MOL    H5939665   4.058   6.914   3.884  0.4594  0.9647 -0.4967
  124MOL    H6039666   4.199   7.244   3.580 -0.3967 -0.9797 -0.0598
  124MOL    H6139667   4.438   7.218   3.567  0.0434  0.6350  0.4857
  124MOL    H6239668   4.554   7.035   3.700  0.9210 -0.0003  0.2967
  124MOL    H6339669   4.428   6.891   3.833 -1.1428 -0.8440 -1.7337
  124MOL    H6439670   4.294   6.926   4.021 -0.3316  1.0668  0.2198
  124MOL    H6539671   4.264   6.765   4.040 -1.9169 -0.7008  0.2817
  124MOL    C6639672   4.103   6.892   4.128 -0.8145 -0.1038 -0.1973
  124MOL    C6739673   4.067   7.041   4.128 -0.0759 -0.4066  0.1479
  124MOL    C6839674   3.940   7.086   4.093  0.5585  0.1272 -0.9598
  124MOL   Cl6939675   3.813   6.989   4.036 -0.1100  0.1899 -0.4020
  124MOL    C7039676   3.916   7.224   4.093 -0.2365  0.3732 -0.1302
  124MOL    C7139677   4.011   7.321   4.123 -0.4461  0.5531 -0.3489
  124MOL    C7239678   4.146   7.281   4.146  0.5425 -0.2530 -0.2217
  124MOL    C7339679   4.169   7.142   4.154  0.0979 -0.1713  1.2623
  124MOL    C7439680   4.149   6.859   4.267  0.2040  0.0828 -0.5083
  124MOL    H7539681   4.029   6.821   4.091  0.0755  0.4465 -3.1975
  124MOL    H7639682   3.817   7.253   4.061 -0.8711 -1.1665  0.4342
  124MOL    H7739683   3.990   7.427   4.127  1.0832  0.8933 -0.9500
  124MOL    H7839684   4.227   7.353   4.155  0.5094  0.0331 -2.0713
  124MOL    H7939685   4.270   7.109   4.172 -0.5063 -2.2783  0.9468
  124MOL    H8039686   4.104   6.927   4.339  1.9752  0.4643  0.2776
  124MOL    H8139687   4.255   6.884   4.275  0.4498  0.2806 -3.7130
  124MOL    C8239688   4.106   6.716   4.321  0.4498  0.7703 -0.7760
  124MOL    C8339689   3.959   6.692   4.346  0.2008 -0.1016 -0.7302
  124MOL    C8439690   3.889   6.596   4.269  0.8122 -0.1480  0.3450
  124MOL   Cl8539691   3.964   6.522   4.126 -0.1345 -0.0358  0.1901
  124MOL    C8639692   3.754   6.574   4.298 -0.7240  0.5187  0.0113
  124MOL    C8739693   3.695   6.629   4.415  0.5566 -0.0405  0.9170
  124MOL    C8839694   3.768   6.711   4.498 -0.6545  0.3580 -0.1716
  124MOL    C8939695   3.904   6.744   4.466  0.0094  0.6571 -0.5120
  124MOL    C9039696   4.201   6.685   4.447 -0.2730 -0.2045  0.2728
  124MOL    H9139697   4.144   6.642   4.250  1.9644 -0.0573  0.8523
  124MOL    H9239698   3.691   6.510   4.237  1.8794 -1.2430 -0.9166
  124MOL    H9339699   3.591   6.604   4.428  1.0534 -2.9065 -0.3039
  124MOL    H9439700   3.724   6.739   4.593  0.4898 -0.5219  0.6373
  124MOL    H9539701   3.955   6.799   4.543 -0.1393  0.1708 -0.0642
  124MOL    H9639702   4.174   6.751   4.530 -0.8397  1.3840 -1.1315
  124MOL    H9739703   4.306   6.706   4.425  0.2401 -1.0491  1.9236
  124MOL    C9839704   4.192   6.537   4.493  0.2693 -0.6280 -0.1677
  124MOL    C9939705   4.229   6.521   4.644 -0.3640  0.4571  0.0039
  124MOL   C10039706   4.170   6.422   4.724 -0.1179 -0.0466 -0.0069
  124MOL  Cl10139707   4.042   6.325   4.667  0.1373 -0.3313  0.1867
  124MOL   C10239708   4.210   6.403   4.859 -1.0091  0.0286  0.4413
  124MOL   C10339709   4.332   6.465   4.901  0.3102  0.3368  1.0299
  124MOL   C10439710   4.387   6.567   4.827  0.3594 -0.6128 -0.2213
  124MOL   C10539711   4.338   6.598   4.702 -0.2422  0.1828  0.1245
  124MOL   C10639712   4.251   6.439   4.397 -0.5906  0.3674 -0.1448
  124MOL   H10739713   4.085   6.513   4.495  0.4310 -1.3474  0.1772
  124MOL   H10839714   4.156   6.330   4.917 -0.7494 -1.8368 -1.5805
  124MOL   H10939715   4.384   6.443   4.993  1.5666  0.4506  0.3591
  124MOL   H11039716   4.483   6.604   4.859  0.6755  0.5793 -2.4733
  124MOL   H11139717   4.389   6.670   4.640  0.5022  0.5783  1.1983
  124MOL   H11239718   4.209   6.454   4.298  1.3151 -0.4772 -1.1026
  124MOL   H11339719   4.217   6.339   4.423 -0.4838  0.5563  0.7437
  124MOL   C11439720   4.407   6.426   4.387  0.4179 -0.5022  0.3995
  124MOL   C11539721   4.460   6.533   4.291 -0.1393  0.1188  0.0993
  124MOL   C11639722   4.555   6.619   4.335  0.2292 -0.1491  0.0302
  124MOL  Cl11739723   4.613   6.622   4.495  0.2059  0.0807 -0.0320
  124MOL   C11839724   4.621   6.705   4.245  0.4250 -0.0320 -0.7310
  124MOL   C11939725   4.594   6.700   4.112  0.9735 -0.3857 -0.1521
  124MOL   C12039726   4.487   6.617   4.063  0.6738 -0.1231  0.0060
  124MOL   C12139727   4.422   6.525   4.150 -0.0687 -0.2010  0.3927
  124MOL   C12239728   4.447   6.287   4.333 -0.5224  0.4640  0.4536
  124MOL   H12339729   4.430   6.434   4.493 -0.7227  0.3987  0.5908
  124MOL   H12439730   4.707   6.761   4.279  1.0783 -0.6600 -1.3377
  124MOL   H12539731   4.658   6.756   4.045  0.9553  1.0262  0.9838
  124MOL   H12639732   4.459   6.603   3.959 -3.0532 -0.5468  1.0044
  124MOL   H12739733   4.348   6.452   4.121 -0.1781 -0.8813  2.3100
  124MOL   H12839734   4.392   6.281   4.239  0.2920  1.3497 -0.0844
  124MOL   H12939735   4.416   6.204   4.396  1.5339 -0.1787  0.6645
  124MOL   C13039736   4.596   6.264   4.293  0.1665 -0.1498 -0.0448
  124MOL   C13139737   4.605   6.128   4.211 -1.1062  0.8227  0.5552
  124MOL   C13239738   4.607   6.120   4.063 -0.1789 -0.1912 -0.1783
  124MOL  Cl13339739   4.601   6.264   3.964  0.2707 -0.0001  0.2619
  124MOL   C13439740   4.607   6.001   3.993  1.3207 -0.3712  0.3759
  124MOL   C13539741   4.606   5.880   4.066  0.3613 -0.1427 -0.0182
  124MOL   C13639742   4.610   5.883   4.204 -0.1334 -0.4584 -0.7249
  124MOL   C13739743   4.618   6.005   4.273 -0.2618  0.2534 -0.1039
  124MOL   C13839744   4.683   6.271   4.420 -0.7146 -0.0414  0.2748
  124MOL   H13939745   4.626   6.336   4.217  0.4092  1.2013  1.3221
  124MOL   H14039746   4.610   6.003   3.885  0.7149  1.0247  0.3741
  124MOL   H14139747   4.596   5.789   4.008 -0.0556 -0.5061  0.6222
  124MOL   H14239748   4.623   5.789   4.257 -1.4116 -1.8459 -2.8182
  124MOL   H14339749   4.630   6.001   4.380  0.6998  1.9812 -0.1243
  124MOL   H14439750   4.652   6.198   4.494 -1.0175  0.9469  1.1420
  124MOL   H14539751   4.659   6.361   4.477 -1.0379 -0.0967  0.2301
  124MOL   C14639752   4.832   6.253   4.403  0.9119 -0.6465  0.0053
  124MOL   C14739753   4.895   6.211   4.539  1.1102 -0.5891 -0.5713
  124MOL   C14839754   4.936   6.079   4.568  0.2870  0.0543 -0.4692
  124MOL  Cl14939755   4.905   5.951   4.459  0.4218  0.2538 -0.1815
  124MOL   C15039756   4.994   6.052   4.696  0.0561 -0.1228 -0.0991
  124MOL   C15139757   5.020   6.154   4.792  0.0536  0.0386  0.7095
  124MOL   C15239758   4.972   6.282   4.762  0.1050 -0.4128  0.7294
  124MOL   C15339759   4.906   6.311   4.642 -0.0098  0.8182 -0.0314
  124MOL   C15439760   4.903   6.375   4.337  0.1987 -0.2172  0.8105
  124MOL   H15539761   4.840   6.174   4.328 -3.1760 -0.5295 -0.6932
  124MOL   H15639762   5.038   5.958   4.727 -0.2740 -0.3658 -0.3665
  124MOL   H15739763   5.069   6.145   4.887  0.3948  1.7843  0.7112
  124MOL   H15839764   4.984   6.368   4.828  0.8212  1.1546 -1.3822
  124MOL   H15939765   4.868   6.411   4.626 -0.2285  0.6205 -0.7739
  124MOL   H16039766   4.987   6.400   4.402  0.0182 -0.4875  1.1486
  124MOL   H16139767   4.830   6.455   4.344 -1.3984 -1.2599 -2.6746
  124MOL   C16239768   4.952   6.354   4.191  0.1209  0.1439 -0.5251
  124MOL   C16339769   5.076   6.260   4.185 -0.0083 -0.0397  1.1673
  124MOL   C16439770   5.077   6.141   4.102  0.0276 -0.0304  0.4388
  124MOL  Cl16539771   4.945   6.100   3.995  0.1709  0.1716  0.0886
  124MOL   C16639772   5.193   6.060   4.093  0.5794 -0.1587  0.2526
  124MOL   C16739773   5.306   6.102   4.164 -0.2576 -0.2728 -0.3596
  124MOL   C16839774   5.300   6.208   4.256 -0.2651  0.0433 -0.2724
  124MOL   C16939775   5.187   6.293   4.261  0.3266  0.4031  0.2405
  124MOL   C17039776   4.973   6.493   4.125  0.5980  0.4765 -0.2992
  124MOL   H17139777   4.866   6.307   4.143 -0.3484  0.0182  0.4370
  124MOL   H17239778   5.190   5.980   4.020 -3.6067  1.3829 -1.3888
  124MOL   H17339779   5.401   6.052   4.148  0.0980 -0.3008  1.6855
  124MOL   H17439780   5.383   6.236   4.319 -0.5390  2.2779 -0.8738
  124MOL   H17539781   5.178   6.378   4.328  1.2075  0.7004 -0.0067
  124MOL   H17639782   5.060   6.527   4.181 -0.2205 -0.1324  1.3652
  124MOL   H17739783   4.893   6.560   4.154  0.2610 -0.5707  1.2623
  124MOL   C17839784   5.006   6.487   3.976  0.1941  0.4191 -0.3659
  124MOL   C17939785   5.097   6.603   3.931 -0.3640 -0.0840 -0.5447
  124MOL   C18039786   5.226   6.585   3.894 -1.0769  0.0418  0.1170
  124MOL  Cl18139787   5.281   6.423   3.876 -0.2242  0.2751 -0.2429
  124MOL   C18239788   5.311   6.692   3.873  0.4546 -0.1151  0.1972
  124MOL   C18339789   5.264   6.824   3.884  0.3057  0.7583  0.2088
  124MOL   C18439790   5.127   6.847   3.900 -0.2104  0.2476 -0.4182
  124MOL   C18539791   5.043   6.735   3.930 -0.0632 -0.3767  0.3415
  124MOL   C18639792   4.886   6.478   3.894 -0.2001 -0.6082  0.3835
  124MOL   H18739793   5.053   6.391   3.954  2.3357  1.5744 -0.9788
  124MOL   H18839794   5.406   6.665   3.830  0.8133 -1.0662  1.5646
  124MOL   H18939795   5.323   6.912   3.865  1.8072 -0.0378  1.1051
  124MOL   H19039796   5.100   6.950   3.916 -1.0006  0.2106 -1.4541
  124MOL   H19139797   4.938   6.741   3.955 -0.0413  0.9073  0.1607
  124MOL   H19239798   4.818   6.555   3.930 -0.6457  0.8916 -3.4117
  124MOL   H19339799   4.839   6.382   3.909 -2.3026 -0.2784 -3.5500
  124MOL   C19439800   4.884   6.505   3.734 -1.0263  0.9719 -0.1348
  124MOL   C19539801   4.733   6.529   3.687 -0.5325 -0.1471  0.4745
  124MOL   C19639802   4.673   6.662   3.691 -0.0266  0.4177 -0.4503
  124MOL  Cl19739803   4.743   6.798   3.771 -0.0116 -0.7214 -0.4863
  124MOL   C19839804   4.544   6.676   3.636 -0.5483 -0.1716 -0.0675
  124MOL   C19939805   4.476   6.566   3.570 -0.0494  0.1067 -0.1409
  124MOL   C20039806   4.531   6.436   3.579 -0.1577  0.0406  0.1211
  124MOL   C20139807   4.659   6.417   3.634  0.7631  0.3052 -0.8847
  124MOL   C20239808   4.970   6.402   3.660 -0.3711  0.2679 -0.1542
  124MOL   H20339809   4.938   6.597   3.712 -0.1094 -0.0197 -2.2554
  124MOL   H20439810   4.511   6.779   3.633  0.7988  0.3156  0.8955
  124MOL   H20539811   4.374   6.586   3.541 -0.1946  0.1607  0.4056
  124MOL   H20639812   4.479   6.352   3.535  2.3132 -0.7378 -1.4319
  124MOL   H20739813   4.709   6.322   3.628  0.0652 -0.0895 -0.5474
  124MOL   H20839814   4.918   6.306   3.663 -1.1324  0.7035  0.7291
  124MOL   H20939815   5.055   6.375   3.724 -0.9543 -2.4878 -0.4548
  124MOL   C21039816   5.017   6.430   3.523  0.0426  0.6432 -0.4158
  124MOL   C21139817   5.022   6.577   3.489 -0.3511  0.4995  0.2264
  124MOL   C21239818   5.140   6.655   3.506 -0.3600  0.4488 -0.1339
  124MOL  Cl21339819   5.298   6.593   3.549 -0.6130 -0.0755  0.2175
  124MOL   C21439820   5.137   6.795   3.468  0.1147 -0.4640 -0.2901
  124MOL   C21539821   5.016   6.852   3.419  0.1760  0.7405 -0.7316
  124MOL   C21639822   4.905   6.768   3.395 -0.0569 -0.3279  0.4605
  124MOL   C21739823   4.910   6.633   3.445  0.4646  0.0391  0.0298
  124MOL   C21839824   4.955   6.338   3.424  0.3992  0.3066 -0.3722
  124MOL   H21939825   5.120   6.395   3.530 -1.0259 -2.3013  1.7966
  124MOL   H22039826   5.223   6.859   3.483 -0.2054 -0.2550  0.6854
  124MOL   H22139827   5.021   6.954   3.384 -0.2268  0.6306 -1.1148
  124MOL   H22239828   4.816   6.810   3.350  0.4758  0.6783  0.3439
  124MOL   H22339829   4.824   6.568   3.442  1.0129 -0.7861  1.8395
  124MOL   H22439830   4.979   6.368   3.322  2.6008  1.6288  0.5046
  124MOL   H22539831   4.849   6.362   3.425  0.6102  1.2420 -0.3471
  124MOL   C22639832   4.990   6.180   3.442  0.4464 -0.1541 -0.4793
  124MOL   C22739833   5.139   6.153   3.447  0.0127 -0.4617  0.8891
  124MOL   C22839834   5.192   6.077   3.553  1.1072 -0.4786  0.6109
  124MOL  Cl22939835   5.091   6.018   3.677  0.1374 -0.0430  0.1172
  124MOL   C23039836   5.330   6.075   3.573 -0.2844  0.4985 -0.1154
  124MOL   C23139837   5.418   6.139   3.485  1.2938  0.0919  0.2248
  124MOL   C23239838   5.368   6.208   3.376  0.6065 -0.7859  1.0291
  124MOL   C23339839   5.229   6.217   3.356  0.8695 -0.1546 -0.3788
  124MOL   C23439840   4.920   6.105   3.333 -0.3306  0.4389 -0.3985
  124MOL   H23539841   4.942   6.138   3.531  2.8087  1.6037  1.7212
  124MOL   H23639842   5.370   6.019   3.656 -0.7136  0.8948  0.3639
  124MOL   H23739843   5.525   6.128   3.494  1.1459 -0.6566  1.1657
  124MOL   H23839844   5.437   6.257   3.309  0.7822  2.0440  3.1746
  124MOL   H23939845   5.193   6.286   3.281  0.3684  0.4185  0.3826
  124MOL   H24039846   4.934   6.153   3.236  1.4224  1.0435  0.1340
  124MOL   H24139847   4.816   6.116   3.363 -0.1908 -0.5268  0.4755
  124MOL   C24239848   4.943   5.957   3.333 -0.6145  0.9482  0.1217
  124MOL   C24339849   5.078   5.912   3.279  0.4658 -0.0536  0.4019
  124MOL   C24439850   5.129   5.790   3.329 -0.7470 -0.5816  0.6483
  124MOL  Cl24539851   5.067   5.695   3.458 -0.2865 -0.0750  0.2335
  124MOL   C24639852   5.249   5.748   3.269 -0.6294 -0.9312  0.2109
  124MOL   C24739853   5.316   5.826   3.170  0.1462 -0.3543 -0.0654
  124MOL   C24839854   5.252   5.930   3.100  0.0257  0.1123  0.4364
  124MOL   C24939855   5.130   5.977   3.161  0.5664 -0.1094  0.2313
  124MOL   C25039856   4.836   5.884   3.242 -0.6387  1.1692  1.0852
  124MOL   H25139857   4.920   5.911   3.429 -0.8469  0.0153 -0.3792
  124MOL   H25239858   5.286   5.650   3.295 -0.4716 -1.4686 -1.9301
  124MOL   H25339859   5.418   5.811   3.138  0.3403 -0.0806  0.4203
  124MOL   H25439860   5.299   5.991   3.025 -0.2100 -1.1037 -0.7044
  124MOL   H25539861   5.089   6.063   3.112  0.7602  0.0314  0.3165
  124MOL   H25639862   4.869   5.783   3.221 -4.0599  0.0236  0.9824
  124MOL   H25739863   4.831   5.931   3.144  0.4102 -0.6234  0.1476
  124MOL   C25839864   4.693   5.874   3.288 -0.1799 -0.1119 -0.2504
  124MOL   C25939865   4.684   5.784   3.406 -0.3173 -0.7342 -0.6762
  124MOL   C26039866   4.660   5.830   3.537 -0.0684  0.1794  0.2468
  124MOL  Cl26139867   4.649   5.994   3.577  0.2192 -0.3665  0.1768
  124MOL   C26239868   4.653   5.736   3.645 -0.4089  0.7694 -0.6565
  124MOL   C26339869   4.677   5.599   3.620 -0.4351  0.4002 -0.4935
  124MOL   C26439870   4.712   5.566   3.488 -0.5728 -1.1748  0.6353
  124MOL   C26539871   4.718   5.653   3.382  0.2366  0.5217  0.4770
  124MOL   C26639872   4.617   5.815   3.173 -0.1869  0.0391  0.0006
  124MOL   H26739873   4.654   5.972   3.315 -2.7128 -1.0363 -0.3828
  124MOL   H26839874   4.633   5.768   3.747 -0.4006  3.0695 -1.3408
  124MOL   H26939875   4.687   5.526   3.699  0.4004  1.9525  0.8950
  124MOL   H27039876   4.747   5.464   3.474 -3.6322 -2.1825 -0.1387
  124MOL   H27139877   4.739   5.617   3.282 -3.3555  1.0790 -0.5474
  124MOL   H27239878   4.520   5.770   3.199 -0.4899 -1.0043 -2.7409
  124MOL   H27339879   4.661   5.728   3.123 -0.5513 -1.0740  1.5598
  124MOL   C27439880   4.583   5.915   3.059 -0.4430 -0.3052 -0.2341
  124MOL   C27539881   4.522   6.057   3.100 -0.0122  0.5099  0.8605
  124MOL   C27639882   4.590   6.175   3.064  0.2748 -0.1081 -0.5559
  124MOL  Cl27739883   4.717   6.190   2.944 -0.0867  0.4726 -0.3737
  124MOL   C27839884   4.532   6.293   3.114  0.8005  0.2692  0.3491
  124MOL   C27939885   4.430   6.297   3.209  0.6958  1.1815 -0.4704
  124MOL   C28039886   4.359   6.178   3.233  0.1400  0.1806 -0.1732
  124MOL   C28139887   4.414   6.056   3.188 -0.2942  0.3978  0.9402
  124MOL   C28239888   4.497   5.846   2.955 -0.1376  0.1802 -0.0192
  124MOL   H28339889   4.672   5.943   3.003 -1.3585  2.1693 -0.5089
  124MOL   H28439890   4.570   6.385   3.074  1.4899  0.4564  1.4111
  124MOL   H28539891   4.399   6.388   3.260 -0.6994  0.0548  0.7389
  124MOL   H28639892   4.277   6.171   3.303  0.1324 -1.8797 -0.3451
  124MOL   H28739893   4.368   5.962   3.214  1.3305 -0.7410 -0.2122
  124MOL   H28839894   4.397   5.822   2.993 -1.0741 -0.1684 -2.5943
  124MOL   H28939895   4.542   5.747   2.942 -0.0008  0.4756 -1.8994
  124MOL   C29039896   4.483   5.910   2.814 -0.5186 -0.7381 -0.2731
  124MOL   C29139897   4.355   5.990   2.803 -0.2216 -0.0760 -0.0351
  124MOL   C29239898   4.348   6.113   2.736 -0.1842 -0.0931 -0.5027
  124MOL  Cl29339899   4.496   6.177   2.669  0.4776 -0.1673 -0.1709
  124MOL   C29439900   4.224   6.182   2.721 -0.4442 -0.5489  0.0843
  124MOL   C29539901   4.106   6.128   2.768  0.8503  0.0051  0.1330
  124MOL   C29639902   4.114   5.998   2.826 -0.1931 -0.4383 -0.1128
  124MOL   C29739903   4.232   5.928   2.845 -0.2337 -0.1426 -0.8124
  124MOL   C29839904   4.510   5.822   2.689 -0.2052  0.7291 -0.2010
  124MOL   H29939905   4.556   5.988   2.836 -0.7081 -0.3348 -1.0859
  124MOL   H30039906   4.219   6.283   2.683  0.2588 -0.1727  0.9804
  124MOL   H30139907   4.013   6.181   2.753  1.8426  1.3768 -1.3430
  124MOL   H30239908   4.027   5.962   2.879 -0.3555 -0.9247 -0.7019
  124MOL   H30339909   4.222   5.827   2.880  0.5744  0.2988  0.7192
  124MOL   H30439910   4.498   5.885   2.601  0.1987  3.0670  1.3593
  124MOL   H30539911   4.432   5.746   2.696  0.4660  0.0697  0.2408
  124MOL   C30639912   4.647   5.761   2.668 -0.0220 -0.0314 -0.1810
  124MOL   C30739913   4.756   5.869   2.684 -0.1738  0.0318  0.2477
  124MOL   C30839914   4.867   5.857   2.780  0.7838  0.7344 -0.5915
  124MOL  Cl30939915   4.873   5.735   2.893 -0.4593  0.4619  0.0397
  124MOL   C31039916   4.962   5.962   2.790 -0.5529  0.6060  0.2054
  124MOL   C31139917   4.958   6.069   2.702 -0.2611  0.1768  0.0935
  124MOL   C31239918   4.859   6.074   2.605 -0.1735  0.1677 -0.1462
  124MOL   C31339919   4.759   5.974   2.593 -0.7626  0.2544  0.2989
  124MOL   C31439920   4.659   5.678   2.542  0.3469 -0.0781 -0.5126
  124MOL   H31539921   4.655   5.693   2.753  0.7098  2.5428  1.8754
  124MOL   H31639922   5.033   5.959   2.872 -0.8818  0.2771  0.4805
  124MOL   H31739923   5.036   6.144   2.708 -0.7947  0.8808 -1.5942
  124MOL   H31839924   4.865   6.144   2.523 -2.4623  0.4193 -0.1169
  124MOL   H31939925   4.686   5.975   2.513 -2.2666  1.2566  1.6565
  124MOL   H32039926   4.569   5.619   2.524 -0.5036  0.6060  1.4367
  124MOL   H32139927   4.747   5.614   2.535  1.5953  1.5816 -0.1131
  124MOL   H32239928   4.662   5.747   2.458  0.7997 -0.4448 -0.8040
  125MOL     C139929   5.512   0.780   2.898 -0.2005  0.6196  0.3997
  125MOL     C239930   5.647   0.851   2.891  0.4563 -0.4835 -0.3883
  125MOL     C339931   5.675   0.960   2.796  0.5378 -0.2398  0.0574
  125MOL    Cl439932   5.566   1.008   2.679 -0.0118  0.2638 -0.0586
  125MOL     C539933   5.795   1.035   2.803  1.0763  0.3623  0.0909
  125MOL     C639934   5.896   1.000   2.893 -0.1158  0.5583  0.0503
  125MOL     C739935   5.875   0.886   2.978 -0.1453 -0.3997 -0.0376
  125MOL     C839936   5.749   0.817   2.981  1.2951 -0.0621  0.8434
  125MOL     C939937   5.413   0.870   2.974  0.8347 -0.1649 -1.0290
  125MOL    H1039938   5.487   0.765   2.793  0.5047 -0.0029  0.3149
  125MOL    H1139939   5.807   1.117   2.734  0.1560 -0.0985 -0.6400
  125MOL    H1239940   5.989   1.054   2.894  1.3078 -1.8281  0.0486
  125MOL    H1339941   5.968   0.851   3.021 -0.6275 -0.6803  0.7745
  125MOL    H1439942   5.735   0.732   3.046 -2.0484 -1.5307 -1.6692
  125MOL    H1539943   5.396   0.960   2.914 -1.8707  0.2100  0.2042
  125MOL    H1639944   5.455   0.898   3.071  1.4282 -0.4204 -1.2126
  125MOL    H1739945   5.520   0.678   2.937  0.8927  0.8564  0.8035
  125MOL    C1839946   5.269   0.804   2.991  0.2699  0.3658 -0.3700
  125MOL    C1939947   5.221   0.749   2.850  0.2086  0.4664  0.4909
  125MOL    C2039948   5.196   0.620   2.829 -0.0746  0.1278  0.4209
  125MOL   Cl2139949   5.194   0.506   2.963 -0.2883  0.5337 -0.2695
  125MOL    C2239950   5.158   0.574   2.702 -0.4176 -0.0377  0.4074
  125MOL    C2339951   5.153   0.660   2.591 -0.3849  0.1455  0.2227
  125MOL    C2439952   5.172   0.796   2.615  0.3544  0.1980  0.4512
  125MOL    C2539953   5.212   0.845   2.742  0.0177  0.5397 -0.4820
  125MOL    C2639954   5.159   0.899   3.049 -0.2440 -0.0454 -1.0692
  125MOL    H2739955   5.293   0.727   3.064  0.9433 -1.3087 -2.3019
  125MOL    H2839956   5.150   0.467   2.695 -2.9195  0.1506  0.1122
  125MOL    H2939957   5.135   0.629   2.489  1.8693 -2.0331  0.4364
  125MOL    H3039958   5.168   0.865   2.531  0.0282 -0.7754 -0.3372
  125MOL    H3139959   5.229   0.951   2.750  0.5329  0.3553  1.2067
  125MOL    H3239960   5.070   0.836   3.044 -1.3016  1.2342  1.1050
  125MOL    H3339961   5.146   0.986   2.985  0.9390  0.9663  0.0290
  125MOL    C3439962   5.187   0.959   3.194 -0.5674 -0.1570 -0.6359
  125MOL    C3539963   5.147   0.853   3.294  0.3404  0.1738  0.3134
  125MOL    C3639964   5.237   0.790   3.382  0.1536  0.9208 -0.1198
  125MOL   Cl3739965   5.408   0.835   3.383  0.4397 -0.1061  0.0400
  125MOL    C3839966   5.194   0.694   3.479  0.0145  0.4486  0.3152
  125MOL    C3939967   5.060   0.659   3.484 -0.0141 -0.8035 -0.1928
  125MOL    C4039968   4.966   0.725   3.407  0.2317  0.0400  0.1182
  125MOL    C4139969   5.014   0.818   3.308  0.6975 -0.5752 -0.0109
  125MOL    C4239970   5.103   1.093   3.202 -0.3030 -0.2431  0.1515
  125MOL    H4339971   5.291   0.986   3.213 -0.6627 -0.1255 -0.1557
  125MOL    H4439972   5.272   0.643   3.534 -1.6460 -2.2389  0.3010
  125MOL    H4539973   5.026   0.587   3.557  1.6640 -0.7679  0.6309
  125MOL    H4639974   4.860   0.712   3.421  0.0144  1.1514 -0.4112
  125MOL    H4739975   4.944   0.870   3.245  1.2680 -0.4448 -0.5456
  125MOL    H4839976   5.009   1.092   3.148  1.2030  0.6436 -2.5753
  125MOL    H4939977   5.158   1.169   3.147 -1.1477 -1.0427 -1.8411
  125MOL    C5039978   5.080   1.147   3.346  0.5989 -0.7876  0.2070
  125MOL    C5139979   4.969   1.259   3.343  0.6267 -0.3039 -0.0651
  125MOL    C5239980   4.829   1.226   3.357 -0.0352 -0.1012  0.3046
  125MOL   Cl5339981   4.788   1.072   3.399  0.0420 -0.2299  0.1874
  125MOL    C5439982   4.731   1.320   3.351  0.3121 -0.0009 -0.0010
  125MOL    C5539983   4.760   1.449   3.315 -0.2664 -0.4850 -0.0678
  125MOL    C5639984   4.894   1.491   3.299  0.1115 -0.5628  0.0865
  125MOL    C5739985   5.000   1.400   3.313  0.5397 -0.6116  0.1138
  125MOL    C5839986   5.215   1.178   3.417 -0.0345 -0.4984  0.0207
  125MOL    H5939987   5.040   1.071   3.413  1.0379 -0.2983  1.0257
  125MOL    H6039988   4.629   1.294   3.374  0.5436 -1.0601 -0.1289
  125MOL    H6139989   4.684   1.525   3.302  0.1496 -0.3152 -1.7378
  125MOL    H6239990   4.923   1.595   3.290 -0.3888 -0.5573 -1.6138
  125MOL    H6339991   5.105   1.427   3.308 -0.0467  1.9574  1.1083
  125MOL    H6439992   5.288   1.225   3.351  0.0053 -0.1980  0.2760
  125MOL    H6539993   5.265   1.082   3.433  2.6755  0.2396 -3.4325
  125MOL    C6639994   5.217   1.251   3.561 -0.4859 -0.0295 -0.3584
  125MOL    C6739995   5.347   1.230   3.622 -0.4299  0.1466 -0.4242
  125MOL    C6839996   5.446   1.336   3.624  1.2939  0.9365  0.9927
  125MOL   Cl6939997   5.398   1.492   3.577 -0.4281 -0.4609  0.0082
  125MOL    C7039998   5.579   1.305   3.657  0.3721  0.9766  0.4462
  125MOL    C7139999   5.624   1.177   3.694  0.2213 -0.0145 -0.3498
  125MOL    C7240000   5.527   1.073   3.704  0.4525 -0.6972  0.4066
  125MOL    C7340001   5.391   1.097   3.659  0.1676  0.5724  0.7711
  125MOL    C7440002   5.100   1.197   3.653 -0.1254 -0.3831  0.8646
  125MOL    H7540003   5.194   1.357   3.549  0.3716  0.1449 -0.4631
  125MOL    H7640004   5.654   1.383   3.660  1.2893  0.0909  1.3189
  125MOL    H7740005   5.729   1.152   3.696 -0.0136 -0.9992  0.5281
  125MOL    H7840006   5.555   0.974   3.734 -0.8893 -1.0532  0.5491
  125MOL    H7940007   5.317   1.020   3.668 -0.7075  1.6812  4.0093
  125MOL    H8040008   5.101   1.088   3.647 -0.4836 -0.3257 -0.3559
  125MOL    H8140009   5.006   1.246   3.628  0.8365  1.4293  0.6565
  125MOL    C8240010   5.097   1.226   3.797 -0.1496  0.5602 -0.0182
  125MOL    C8340011   4.970   1.172   3.859 -0.1962 -0.2618  0.3221
  125MOL    C8440012   4.965   1.033   3.885 -0.0124 -0.3637  0.5822
  125MOL   Cl8540013   5.103   0.927   3.868  0.2097 -0.1150 -0.1697
  125MOL    C8640014   4.844   0.983   3.939 -0.1356  0.0285 -0.1657
  125MOL    C8740015   4.734   1.062   3.970  0.5086  0.0438  0.2192
  125MOL    C8840016   4.735   1.197   3.927 -0.1290  0.3237  0.4165
  125MOL    C8940017   4.855   1.253   3.876 -0.1582  0.2671 -0.0207
  125MOL    C9040018   5.116   1.374   3.821  0.1250  0.6989  0.3381
  125MOL    H9140019   5.179   1.170   3.843  0.3166  1.1087 -0.1729
  125MOL    H9240020   4.843   0.875   3.945  2.9840 -0.1085 -1.1260
  125MOL    H9340021   4.641   1.026   4.011  0.8105 -0.4226  0.4955
  125MOL    H9440022   4.650   1.263   3.940 -0.8000  0.0248 -2.1490
  125MOL    H9540023   4.852   1.355   3.843  0.5005  0.0474 -0.7784
  125MOL    H9640024   5.041   1.428   3.763 -1.0465 -0.4316  0.7918
  125MOL    H9740025   5.215   1.410   3.791  0.2375 -1.0641 -1.4792
  125MOL    C9840026   5.104   1.431   3.964 -0.0071 -0.3325  0.1847
  125MOL    C9940027   5.131   1.579   3.967  0.3497  0.2701  0.3992
  125MOL   C10040028   5.021   1.671   3.950 -0.6323 -0.4064 -0.2311
  125MOL  Cl10140029   4.859   1.622   3.923 -0.0626 -0.3201 -0.1911
  125MOL   C10240030   5.052   1.808   3.961 -0.0726  0.0249 -0.3587
  125MOL   C10340031   5.187   1.850   3.965 -0.8129 -0.0170 -0.4020
  125MOL   C10440032   5.296   1.758   3.980 -0.2443 -0.5756  0.3617
  125MOL   C10540033   5.266   1.622   3.984  0.2742 -0.2264 -0.2345
  125MOL   C10640034   5.182   1.345   4.068 -0.5466 -0.3674  0.5944
  125MOL   H10740035   4.998   1.430   3.990  0.1893  3.4165  1.4305
  125MOL   H10840036   4.972   1.879   3.959  1.9184  2.3071 -1.2831
  125MOL   H10940037   5.197   1.957   3.968  1.4374 -0.2021 -0.0888
  125MOL   H11040038   5.391   1.809   3.985  0.1791 -1.0226 -2.2883
  125MOL   H11140039   5.348   1.556   4.007 -1.3687 -1.8411  1.2249
  125MOL   H11240040   5.286   1.374   4.083  0.1796 -2.0139 -1.0147
  125MOL   H11340041   5.191   1.243   4.030 -1.3901 -0.6097  1.0334
  125MOL   C11440042   5.116   1.340   4.208 -0.5894  0.4974  0.2810
  125MOL   C11540043   5.079   1.475   4.263 -0.0692 -0.5278  0.9377
  125MOL   C11640044   4.947   1.523   4.268 -0.0835 -0.2744  0.1136
  125MOL  Cl11740045   4.816   1.430   4.213  0.3111 -0.0735  0.0918
  125MOL   C11840046   4.920   1.655   4.319  0.0289  0.7071  0.1508
  125MOL   C11940047   5.026   1.721   4.387  0.5611  0.1476 -0.2494
  125MOL   C12040048   5.159   1.674   4.379 -0.2002  0.0345  0.3844
  125MOL   C12140049   5.183   1.553   4.314  0.0889  0.5776  0.7129
  125MOL   C12240050   5.200   1.256   4.305 -0.1838 -1.4462  0.5394
  125MOL   H12340051   5.022   1.286   4.203 -0.6053  0.6152 -0.5803
  125MOL   H12440052   4.818   1.687   4.307 -0.2468 -0.7732 -1.7871
  125MOL   H12540053   4.997   1.809   4.442  0.3237 -0.4448  0.5965
  125MOL   H12640054   5.237   1.732   4.425 -0.1101  0.6031 -0.4728
  125MOL   H12740055   5.283   1.514   4.320  0.5286  1.2495 -1.7377
  125MOL   H12840056   5.202   1.297   4.407  1.4105 -1.7375  0.6433
  125MOL   H12940057   5.303   1.262   4.268 -1.3028  1.1148 -2.3253
  125MOL   C13040058   5.167   1.107   4.307  0.3137  0.0857 -0.5552
  125MOL   C13140059   5.016   1.084   4.339  0.5078 -0.3433  0.0195
  125MOL   C13240060   4.951   0.969   4.294 -0.0195 -0.1143 -0.6211
  125MOL  Cl13340061   5.031   0.848   4.205 -0.1780  0.4505  0.1327
  125MOL   C13440062   4.821   0.937   4.330  0.2124  0.2381  0.8610
  125MOL   C13540063   4.746   1.021   4.417  0.5077  0.2517  0.4761
  125MOL   C13640064   4.804   1.145   4.459  0.5596 -0.2986  0.8397
  125MOL   C13740065   4.940   1.167   4.420 -0.0997  0.2396  0.9346
  125MOL   C13840066   5.261   1.027   4.395  0.3644 -0.0157 -0.1542
  125MOL   H13940067   5.181   1.077   4.203  0.1509 -0.2897 -0.4689
  125MOL   H14040068   4.784   0.847   4.282 -0.4885  0.3074  1.2658
  125MOL   H14140069   4.645   1.000   4.447 -0.5535  1.5873 -2.0298
  125MOL   H14240070   4.753   1.212   4.527 -0.6265 -1.2824  0.9362
  125MOL   H14340071   4.994   1.255   4.451 -1.2678  1.7522 -1.2048
  125MOL   H14440072   5.214   0.940   4.440  0.1942 -0.5380 -1.3224
  125MOL   H14540073   5.281   1.086   4.485  0.3408 -1.2838  0.6874
  125MOL   C14640074   5.394   0.987   4.327 -0.4460  0.3644 -0.1192
  125MOL   C14740075   5.380   0.868   4.235 -0.4786  0.3116  0.5802
  125MOL   C14840076   5.380   0.872   4.090 -0.6761 -0.3128 -0.1718
  125MOL  Cl14940077   5.395   1.018   4.002  0.3614 -0.4111  0.1138
  125MOL   C15040078   5.382   0.749   4.017 -0.4788  0.0934 -0.2220
  125MOL   C15140079   5.367   0.623   4.088 -0.4361 -1.0221  0.5952
  125MOL   C15240080   5.361   0.618   4.230  0.5659  0.3079  0.0954
  125MOL   C15340081   5.368   0.741   4.296 -0.3932  0.6657 -0.5426
  125MOL   C15440082   5.510   0.972   4.430 -0.6521  0.1056  0.5503
  125MOL   H15540083   5.428   1.074   4.271 -3.1267  2.5372  1.4824
  125MOL   H15640084   5.399   0.756   3.911  2.7246 -0.2150  0.1972
  125MOL   H15740085   5.394   0.532   4.037 -0.8114 -1.2471  0.7924
  125MOL   H15840086   5.350   0.525   4.284 -1.7053 -0.9364 -2.3512
  125MOL   H15940087   5.360   0.732   4.403 -2.6486  0.4026 -0.7129
  125MOL   H16040088   5.595   0.923   4.383  0.6541  0.7435  2.1897
  125MOL   H16140089   5.476   0.901   4.505 -0.4528 -0.4357  0.1330
  125MOL   C16240090   5.562   1.097   4.497  0.0079 -0.3325 -0.1794
  125MOL   C16340091   5.608   1.201   4.396 -0.2024  0.1623  0.1535
  125MOL   C16440092   5.562   1.333   4.397 -0.3662  0.6429  0.4367
  125MOL  Cl16540093   5.443   1.382   4.514 -0.0050  0.1109 -0.0415
  125MOL   C16640094   5.612   1.428   4.300  0.6940 -0.2758 -0.1864
  125MOL   C16740095   5.692   1.383   4.196 -0.7784  0.2689  0.4794
  125MOL   C16840096   5.737   1.251   4.190 -0.4600 -0.2101 -0.5220
  125MOL   C16940097   5.700   1.164   4.296  0.0404 -0.0441 -0.9527
  125MOL   C17040098   5.680   1.057   4.583  0.2055  0.7252 -0.7617
  125MOL   H17140099   5.473   1.128   4.552  2.1209  1.6671  2.2817
  125MOL   H17240100   5.599   1.534   4.316  0.3088 -0.3037 -0.3278
  125MOL   H17340101   5.726   1.462   4.132 -1.3156  1.4809  1.6673
  125MOL   H17440102   5.809   1.223   4.114  1.1434  2.1785  0.0763
  125MOL   H17540103   5.739   1.064   4.308 -1.6163 -0.5309  0.5174
  125MOL   H17640104   5.769   1.048   4.521  0.4993  0.5974 -0.3191
  125MOL   H17740105   5.659   0.955   4.616 -0.3213  1.3923  1.0030
  125MOL   C17840106   5.706   1.140   4.712 -0.2402 -0.1207 -0.8298
  125MOL   C17940107   5.772   1.278   4.681 -0.4497  0.0386 -0.3884
  125MOL   C18040108   5.734   1.393   4.754  0.1129 -0.4634 -0.1270
  125MOL  Cl18140109   5.610   1.396   4.875 -0.1232  0.2126  0.3066
  125MOL   C18240110   5.800   1.513   4.731 -0.5335  0.9399 -0.3872
  125MOL   C18340111   5.904   1.519   4.639 -0.0467  0.1536 -0.7313
  125MOL   C18440112   5.945   1.402   4.573 -0.5703 -0.5496  0.8613
  125MOL   C18540113   5.886   1.279   4.592 -0.4191  0.9883 -0.1338
  125MOL   C18640114   5.780   1.068   4.829 -0.1694 -0.0704 -0.0493
  125MOL   H18740115   5.609   1.177   4.744 -0.4216  0.7870 -2.3723
  125MOL   H18840116   5.782   1.594   4.800 -0.1984  0.2903  0.4729
  125MOL   H18940117   5.951   1.616   4.631 -0.2928  0.5452  2.0479
  125MOL   H19040118   6.026   1.411   4.503 -0.2247 -1.8308  1.0877
  125MOL   H19140119   5.934   1.200   4.536 -0.8166  1.0698 -0.5875
  125MOL   H19240120   5.775   1.135   4.915 -0.9754 -1.0883  0.7125
  125MOL   H19340121   5.879   1.034   4.798 -0.0395 -0.3409  0.6528
  125MOL   C19440122   5.709   0.951   4.886  0.0489  0.5752  0.4746
  125MOL   C19540123   5.556   0.957   4.899  0.0300  0.1268 -0.7483
  125MOL   C19640124   5.469   0.863   4.837  0.4348  0.7334  0.1777
  125MOL  Cl19740125   5.522   0.729   4.742 -0.0389  0.3929 -0.1950
  125MOL   C19840126   5.336   0.869   4.868 -0.1449  0.3683  0.5851
  125MOL   C19940127   5.282   0.969   4.951 -0.5258  0.9187  0.1769
  125MOL   C20040128   5.369   1.067   5.004  0.7167  0.9789  0.5742
  125MOL   C20140129   5.506   1.057   4.986 -0.1532  0.0633 -0.0520
  125MOL   C20240130   5.781   0.916   5.019  0.1252 -0.1144 -0.2225
  125MOL   H20340131   5.735   0.870   4.818 -0.1601  0.1292  0.9314
  125MOL   H20440132   5.267   0.796   4.828 -0.5763  1.9617 -1.7079
  125MOL   H20540133   5.175   0.981   4.956 -0.4905  0.7585  1.3944
  125MOL   H20640134   5.329   1.143   5.070 -2.0813 -0.8952  1.1110
  125MOL   H20740135   5.577   1.133   5.017  0.5587 -0.2893 -0.7999
  125MOL   H20840136   5.748   0.974   5.105 -0.3877 -1.3793  0.4553
  125MOL   H20940137   5.887   0.939   5.013  0.1095  0.2483  0.8503
  125MOL   C21040138   5.756   0.770   5.067 -0.1511 -0.3179 -0.7297
  125MOL   C21140139   5.770   0.751   5.218  0.0158 -0.2488  0.1438
  125MOL   C21240140   5.663   0.704   5.302 -0.0250  0.2350 -0.1851
  125MOL  Cl21340141   5.499   0.706   5.241 -0.3374  0.1153 -0.4750
  125MOL   C21440142   5.692   0.676   5.438  0.2483 -0.2957 -0.1046
  125MOL   C21540143   5.819   0.686   5.488 -0.1645 -0.0044  0.3839
  125MOL   C21640144   5.926   0.721   5.402  0.3944 -0.2216  0.2836
  125MOL   C21740145   5.899   0.757   5.272  0.0128  0.0356 -0.0997
  125MOL   C21840146   5.852   0.677   4.992  0.3732  0.1130 -0.3060
  125MOL   H21940147   5.655   0.743   5.034 -1.1681  3.0849 -0.6638
  125MOL   H22040148   5.606   0.636   5.489  0.7346 -0.0822  0.8987
  125MOL   H22140149   5.844   0.652   5.588 -0.1763  0.5838  0.5856
  125MOL   H22240150   6.025   0.729   5.445 -0.2880 -0.4666  1.9584
  125MOL   H22340151   5.979   0.779   5.203  0.7506  1.9473  1.3130
  125MOL   H22440152   5.947   0.676   5.045  0.0729  1.7362  0.2889
  125MOL   H22540153   5.879   0.724   4.897  2.2533  0.7482  0.5216
  125MOL   C22640154   5.807   0.534   4.947  0.4662 -0.6622  0.7192
  125MOL   C22740155   5.752   0.446   5.060 -0.4674 -0.3583  0.2695
  125MOL   C22840156   5.616   0.403   5.067  0.8759 -0.0559 -0.1432
  125MOL  Cl22940157   5.507   0.424   4.927  0.0975 -0.2029 -0.0193
  125MOL   C23040158   5.572   0.340   5.184  0.3024  0.4882 -0.2249
  125MOL   C23140159   5.649   0.328   5.291 -0.2801 -0.5745 -1.0116
  125MOL   C23240160   5.782   0.370   5.290 -0.3160 -0.4310 -0.5963
  125MOL   C23340161   5.835   0.426   5.170 -0.2979 -0.1706 -0.4911
  125MOL   C23440162   5.924   0.458   4.872  0.4395 -0.5168  0.0566
  125MOL   H23540163   5.729   0.548   4.872 -1.2882  0.0399  2.6438
  125MOL   H23640164   5.465   0.331   5.191  0.6000 -2.2297  1.3383
  125MOL   H23740165   5.600   0.285   5.376  0.1112 -0.6710 -0.8318
  125MOL   H23840166   5.845   0.371   5.377 -0.4376  1.4084 -0.5218
  125MOL   H23940167   5.935   0.465   5.167  1.1317 -3.6526 -0.2240
  125MOL   H24040168   5.896   0.354   4.855 -0.4167  0.1002 -2.4878
  125MOL   H24140169   6.009   0.455   4.940  2.9494 -2.5780 -3.0467
  125MOL   C24240170   5.992   0.531   4.756 -0.3124 -0.2906 -0.3458
  125MOL   C24340171   5.898   0.568   4.641 -0.7269  0.6833  0.2487
  125MOL   C24440172   5.898   0.691   4.571 -0.2623  0.0929 -0.0898
  125MOL  Cl24540173   6.007   0.811   4.626  0.4207 -0.3714 -0.1190
  125MOL   C24640174   5.811   0.709   4.460  0.3703  0.1891 -0.0289
  125MOL   C24740175   5.732   0.595   4.418  0.3847 -0.0131  0.4309
  125MOL   C24840176   5.733   0.475   4.486 -0.4331  0.4675  0.3966
  125MOL   C24940177   5.817   0.459   4.593 -0.4521  0.5505 -0.7005
  125MOL   C25040178   6.110   0.446   4.692 -0.9388  0.3549  0.5079
  125MOL   H25140179   6.028   0.625   4.798 -0.6560 -1.3232  2.3886
  125MOL   H25240180   5.797   0.806   4.415  0.7706  1.1608  1.8954
  125MOL   H25340181   5.661   0.592   4.337  1.5338  1.4852 -0.6673
  125MOL   H25440182   5.686   0.384   4.449 -1.8444  1.2940  0.1089
  125MOL   H25540183   5.847   0.359   4.619  0.3043  0.6456 -1.1561
  125MOL   H25640184   6.124   0.491   4.594 -0.3848 -0.1138  0.3673
  125MOL   H25740185   6.072   0.347   4.668  1.2257  0.1712 -2.4780
  125MOL   C25840186   6.231   0.448   4.785  0.5899 -0.3284  0.4733
  125MOL   C25940187   6.299   0.587   4.791 -0.5239 -0.3111 -0.3479
  125MOL   C26040188   6.308   0.660   4.913 -0.3684  0.0071 -0.3913
  125MOL  Cl26140189   6.261   0.600   5.070 -0.1334 -0.0744 -0.5364
  125MOL   C26240190   6.349   0.796   4.904 -0.5586 -0.0150 -0.2209
  125MOL   C26340191   6.384   0.860   4.786  0.7244  0.4612  0.4846
  125MOL   C26440192   6.375   0.788   4.668  0.1592  0.5710 -0.4610
  125MOL   C26540193   6.338   0.650   4.671 -0.0963 -0.3742  0.4668
  125MOL   C26640194   6.334   0.334   4.741 -0.0902  0.2875  0.6253
  125MOL   H26740195   6.190   0.420   4.881 -2.2090  0.4521 -0.4181
  125MOL   H26840196   6.359   0.847   4.999 -0.5647  0.6627 -0.5750
  125MOL   H26940197   6.410   0.965   4.792  2.7770 -0.0390  0.8188
  125MOL   H27040198   6.400   0.825   4.569  1.2461 -0.5406 -0.6101
  125MOL   H27140199   6.328   0.603   4.575 -0.0303  4.8999 -2.2743
  125MOL   H27240200   6.380   0.351   4.643  0.2875 -3.4232  0.0779
  125MOL   H27340201   6.286   0.237   4.723 -0.3831  0.6654 -0.7464
  125MOL   C27440202   6.454   0.313   4.834 -0.1804 -0.2797  0.8684
  125MOL   C27540203   6.572   0.236   4.764 -0.2603 -0.0188 -0.2900
  125MOL   C27640204   6.686   0.294   4.718 -0.4432 -0.0884 -0.4017
  125MOL  Cl27740205   6.701   0.469   4.705  0.0597 -0.0602 -0.3012
  125MOL   C27840206   6.782   0.217   4.655  0.6159 -0.4603  0.2335
  125MOL   C27940207   6.773   0.081   4.647 -0.2394 -0.2768 -0.1043
  125MOL   C28040208   6.654   0.020   4.686 -0.4049  0.5953 -0.3006
  125MOL   C28140209   6.554   0.099   4.752  0.1376  0.2441 -0.3023
  125MOL   C28240210   6.412   0.254   4.977  0.2844 -0.0351  0.5516
  125MOL   H28340211   6.494   0.414   4.848 -1.5637  0.4394 -0.1810
  125MOL   H28440212   6.870   0.264   4.613  0.2793 -0.0229  0.0145
  125MOL   H28540213   6.849   0.016   4.606  1.9553  2.6837 -0.9423
  125MOL   H28640214   6.641   8.335   4.669  1.6726  0.0699  1.2690
  125MOL   H28740215   6.468   0.053   4.798  0.0188 -0.4550 -1.2255
  125MOL   H28840216   6.389   0.147   4.975  0.2561 -0.0148 -1.1060
  125MOL   H28940217   6.322   0.307   5.009  0.7733  0.7397  0.6360
  125MOL   C29040218   6.509   0.281   5.093 -0.5211 -0.1451  0.0456
  125MOL   C29140219   6.484   0.208   5.220 -0.7276 -0.0278 -0.5547
  125MOL   C29240220   6.588   0.134   5.281 -0.6643 -0.3220  0.1983
  125MOL  Cl29340221   6.744   0.112   5.210  0.3819 -0.3324 -0.0366
  125MOL   C29440222   6.568   0.078   5.408 -0.5063  0.0277 -0.7171
  125MOL   C29540223   6.442   0.095   5.468  0.2379  0.3744 -0.2974
  125MOL   C29640224   6.333   0.150   5.401  0.3902 -0.1008 -0.3877
  125MOL   C29740225   6.353   0.208   5.276 -0.3556 -0.0721  0.5991
  125MOL   C29840226   6.525   0.431   5.125 -1.2484 -0.1756 -0.3094
  125MOL   H29940227   6.608   0.255   5.055  0.3238 -0.1874  2.2398
  125MOL   H30040228   6.644   0.026   5.465  0.9139  2.6729 -0.1385
  125MOL   H30140229   6.417   0.047   5.561 -0.1465 -1.6482 -1.4022
  125MOL   H30240230   6.235   0.135   5.446  1.7664 -1.8537  2.1289
  125MOL   H30340231   6.271   0.252   5.222  0.5538 -0.7732 -1.3873
  125MOL   H30440232   6.450   0.462   5.198 -0.6513 -1.7458  0.9991
  125MOL   H30540233   6.518   0.496   5.037  2.7693 -0.1160 -0.6835
  125MOL   C30640234   6.653   0.472   5.200 -0.4791  0.2178 -0.1553
  125MOL   C30740235   6.643   0.606   5.276  0.5696 -0.1378 -0.3519
  125MOL   C30840236   6.698   0.618   5.408  0.3528  0.2202  0.0593
  125MOL  Cl30940237   6.813   0.490   5.461 -0.5343 -0.3016  0.1683
  125MOL   C31040238   6.683   0.738   5.482  0.0840 -0.4750  0.2599
  125MOL   C31140239   6.619   0.853   5.431  0.3010  0.0136  0.2192
  125MOL   C31240240   6.565   0.836   5.300 -0.4026 -0.6127  0.8712
  125MOL   C31340241   6.580   0.717   5.226 -0.1916 -0.4292  0.3920
  125MOL   C31440242   6.783   0.471   5.123 -0.2198 -0.1492  0.0752
  125MOL   H31540243   6.670   0.393   5.272 -0.8479 -1.1315 -1.5066
  125MOL   H31640244   6.719   0.724   5.583 -2.3908 -1.1951  1.0559
  125MOL   H31740245   6.625   0.948   5.481  0.0548 -0.1019  0.4688
  125MOL   H31840246   6.512   0.920   5.257  1.5181  0.0540 -0.2402
  125MOL   H31940247   6.538   0.707   5.126  0.3446 -0.8469  0.2047
  125MOL   H32040248   6.871   0.490   5.185  0.9344  1.9773 -2.1210
  125MOL   H32140249   6.775   0.539   5.039  2.1627 -0.1262 -0.1812
  125MOL   H32240250   6.809   0.379   5.071  1.0614  1.5700 -2.4025
  126MOL     C140251   5.646   5.827   7.425 -0.6314 -0.2936 -0.5697
  126MOL     C240252   5.669   5.821   7.577  1.0655 -0.1706  0.3743
  126MOL     C340253   5.800   5.821   7.623  0.0176  0.4802 -0.6924
  126MOL    Cl440254   5.934   5.830   7.525  0.1856  0.1602 -0.2682
  126MOL     C540255   5.827   5.830   7.764  0.0200 -0.2154 -0.0424
  126MOL     C640256   5.720   5.837   7.850 -0.2638  0.4369 -0.7273
  126MOL     C740257   5.588   5.836   7.804 -0.7532  0.3774  0.0037
  126MOL     C840258   5.562   5.829   7.667 -0.5264 -0.2590 -0.1896
  126MOL     C940259   5.507   5.853   7.371  0.2279  0.0776 -0.5787
  126MOL    H1040260   5.727   5.886   7.380 -1.6740  1.5216 -0.1239
  126MOL    H1140261   5.931   5.825   7.792  0.3593  1.2799 -0.9771
  126MOL    H1240262   5.747   5.840   7.954  1.9915 -1.9682 -1.1829
  126MOL    H1340263   5.509   5.849   7.877  0.9075  2.4888  1.5179
  126MOL    H1440264   5.458   5.836   7.639 -1.2272  0.7801  2.5213
  126MOL    H1540265   5.486   5.960   7.363  0.4763  0.1857  0.2389
  126MOL    H1640266   5.426   5.811   7.430 -1.8175 -0.0982 -3.3758
  126MOL    H1740267   5.683   5.732   7.385  2.1166  1.3483 -2.1590
  126MOL    C1840268   5.482   5.793   7.228  0.5121  0.1338  0.3974
  126MOL    C1940269   5.595   5.831   7.138  0.1966 -0.9901  0.3915
  126MOL    C2040270   5.662   5.739   7.051  0.1456 -0.3335  0.3331
  126MOL   Cl2140271   5.631   5.566   7.043  0.0856  0.3249  0.0818
  126MOL    C2240272   5.749   5.785   6.957 -0.0653  0.0236  0.4275
  126MOL    C2340273   5.785   5.918   6.947  0.6999  0.2953  0.6188
  126MOL    C2440274   5.738   6.012   7.044 -0.4582  0.3280  1.0634
  126MOL    C2540275   5.650   5.967   7.140  0.2600  0.4693  0.2314
  126MOL    C2640276   5.338   5.820   7.175  0.6582  0.4894  0.1709
  126MOL    H2740277   5.487   5.684   7.233 -1.4900  0.0630  1.8912
  126MOL    H2840278   5.789   5.721   6.881 -0.9864  0.4256 -0.4116
  126MOL    H2940279   5.840   5.951   6.861  0.0782 -1.2076 -0.3559
  126MOL    H3040280   5.768   6.115   7.029  1.8591 -0.1902  2.0280
  126MOL    H3140281   5.597   6.040   7.199 -0.1442  0.0071  0.4509
  126MOL    H3240282   5.335   5.786   7.071 -0.4108  1.8080 -0.2591
  126MOL    H3340283   5.334   5.929   7.182  1.3341  0.5373 -0.2061
  126MOL    C3440284   5.208   5.770   7.248 -0.0131  0.2496  0.4600
  126MOL    C3540285   5.220   5.622   7.254  0.2769  0.5164 -0.5898
  126MOL    C3640286   5.228   5.557   7.378  0.2184 -0.3256 -0.1823
  126MOL   Cl3740287   5.225   5.638   7.521 -0.1402 -0.2549 -0.1538
  126MOL    C3840288   5.231   5.412   7.385  0.6713 -0.6169  0.5334
  126MOL    C3940289   5.233   5.335   7.267  0.1513 -0.3325 -0.0917
  126MOL    C4040290   5.228   5.397   7.140  0.2399 -0.0764  0.2445
  126MOL    C4140291   5.213   5.539   7.138 -0.4063 -0.0506  0.3537
  126MOL    C4240292   5.074   5.802   7.179  0.4584 -0.2179  0.4933
  126MOL    H4340293   5.214   5.823   7.343 -0.1395 -0.1312  0.6817
  126MOL    H4440294   5.236   5.370   7.484  3.6185 -0.9269  0.2755
  126MOL    H4540295   5.227   5.227   7.275  1.0447 -0.3837 -0.0164
  126MOL    H4640296   5.219   5.328   7.058 -0.1991 -0.1305  0.3353
  126MOL    H4740297   5.201   5.588   7.043 -1.9016  2.8408  1.9465
  126MOL    H4840298   4.990   5.748   7.222 -0.5430  0.5755 -0.4289
  126MOL    H4940299   5.076   5.761   7.077  0.3746  0.1095  0.3608
  126MOL    C5040300   5.040   5.953   7.173 -0.3503 -0.6850 -0.2129
  126MOL    C5140301   4.964   6.005   7.289  0.0006  0.3528  0.1177
  126MOL    C5240302   5.033   6.066   7.400 -0.1181  0.5854 -0.1256
  126MOL   Cl5340303   5.204   6.084   7.405 -0.1502  0.2361  0.0108
  126MOL    C5440304   4.960   6.105   7.509 -0.7161 -0.1353 -0.7017
  126MOL    C5540305   4.820   6.086   7.512  0.3308  0.0718  0.3946
  126MOL    C5640306   4.752   6.028   7.403  0.3045  0.0369  0.4600
  126MOL    C5740307   4.821   5.995   7.292  0.2757  0.0158  0.3004
  126MOL    C5840308   4.975   5.984   7.038  0.0422 -0.1042 -0.7684
  126MOL    H5940309   5.134   6.007   7.161  0.3302 -1.5955  0.9863
  126MOL    H6040310   5.007   6.154   7.593 -1.0115  1.8334 -1.6544
  126MOL    H6140311   4.768   6.111   7.603 -0.7756 -0.0968 -0.1852
  126MOL    H6240312   4.645   6.017   7.401  0.1429  1.4556 -2.9153
  126MOL    H6340313   4.763   5.942   7.217 -0.2460  1.5813 -0.4223
  126MOL    H6440314   4.935   6.085   7.046  0.7923  0.0559  1.1183
  126MOL    H6540315   4.891   5.916   7.027  0.2464 -0.9559  2.4968
  126MOL    C6640316   5.053   5.979   6.904 -0.2606  0.2990  0.2137
  126MOL    C6740317   5.176   6.073   6.893  0.5373  0.7230 -0.3191
  126MOL    C6840318   5.307   6.027   6.859 -0.0298  1.0494  0.9379
  126MOL   Cl6940319   5.337   5.867   6.804  0.1619  0.2155  0.2026
  126MOL    C7040320   5.413   6.118   6.858 -0.4165  0.6285 -0.0201
  126MOL    C7140321   5.397   6.252   6.896 -0.2540  0.2672 -0.1943
  126MOL    C7240322   5.270   6.302   6.924 -0.3957 -0.9277  0.1890
  126MOL    C7340323   5.163   6.213   6.927 -0.7862  0.0083  0.0818
  126MOL    C7440324   4.968   5.983   6.777  0.0718  1.0783 -0.1364
  126MOL    H7540325   5.095   5.878   6.898 -2.4142 -0.6530  0.8861
  126MOL    H7640326   5.512   6.080   6.835 -0.8403 -0.5993  0.1349
  126MOL    H7740327   5.481   6.320   6.893  0.9325 -1.0069  2.1127
  126MOL    H7840328   5.263   6.409   6.931 -0.8239 -0.7303 -2.5782
  126MOL    H7940329   5.064   6.254   6.940 -0.6248  0.5674 -0.4068
  126MOL    H8040330   5.039   5.997   6.696  0.0266 -0.0854 -0.3882
  126MOL    H8140331   4.899   6.066   6.787 -1.3342 -0.1210  0.2768
  126MOL    C8240332   4.895   5.857   6.749 -0.3144 -0.1739 -0.2616
  126MOL    C8340333   4.982   5.733   6.729  0.4299 -0.4845 -0.2240
  126MOL    C8440334   4.975   5.620   6.807 -0.7018  0.3556  0.5499
  126MOL   Cl8540335   4.862   5.619   6.932 -0.0311  0.0830  0.3506
  126MOL    C8640336   5.070   5.516   6.787 -0.5155  0.5469  0.3485
  126MOL    C8740337   5.165   5.522   6.681 -0.1504 -0.1665 -0.5877
  126MOL    C8840338   5.162   5.631   6.598 -0.1851 -0.9085 -0.4929
  126MOL    C8940339   5.074   5.739   6.622 -0.5681  0.9064 -0.2545
  126MOL    C9040340   4.808   5.871   6.616 -0.3800 -0.1282  0.0342
  126MOL    H9140341   4.833   5.848   6.838  0.2329  1.2221  0.2826
  126MOL    H9240342   5.075   5.429   6.851  1.4797  0.1400 -0.3316
  126MOL    H9340343   5.231   5.437   6.676 -0.0015 -0.0798 -0.0444
  126MOL    H9440344   5.228   5.639   6.513 -0.3119  0.2763 -0.4799
  126MOL    H9540345   5.088   5.830   6.565  0.0595 -1.2381 -3.6608
  126MOL    H9640346   4.773   5.774   6.579 -2.9882  1.6065 -2.2089
  126MOL    H9740347   4.874   5.911   6.539 -0.6817 -0.2360 -0.2821
  126MOL    C9840348   4.683   5.956   6.638 -0.2442 -0.6851  0.0348
  126MOL    C9940349   4.599   5.901   6.759 -0.0586  0.2846 -0.6171
  126MOL   C10040350   4.578   5.971   6.879 -0.6610  0.3562  0.0847
  126MOL  Cl10140351   4.653   6.131   6.900  0.0694 -0.1955  0.2546
  126MOL   C10240352   4.514   5.912   6.991  0.0661  0.2972 -0.2575
  126MOL   C10340353   4.457   5.791   6.983  0.4870  0.2291  0.5067
  126MOL   C10440354   4.469   5.719   6.861 -0.0426  0.3409 -0.2247
  126MOL   C10540355   4.537   5.774   6.746  0.2283  0.4168 -0.6113
  126MOL   C10640356   4.589   5.971   6.519  0.2689  0.1495  0.6141
  126MOL   H10740357   4.696   6.062   6.661 -1.1144 -0.5673 -0.0060
  126MOL   H10840358   4.499   5.963   7.085  0.9095 -1.0338  0.5990
  126MOL   H10940359   4.415   5.748   7.073  3.3796  1.3426  2.4804
  126MOL   H11040360   4.425   5.620   6.857  1.2294 -0.1618 -2.6447
  126MOL   H11140361   4.549   5.713   6.658 -1.7276  0.9941 -1.2998
  126MOL   H11240362   4.503   6.035   6.536  1.9881  2.6525  0.1401
  126MOL   H11340363   4.538   5.880   6.489  1.2802  0.0612 -0.8739
  126MOL   C11440364   4.668   6.033   6.395  0.2788 -0.3743  0.3117
  126MOL   C11540365   4.703   6.184   6.406 -0.9242 -0.3655  0.6373
  126MOL   C11640366   4.836   6.226   6.386 -0.9507 -0.0773 -0.0951
  126MOL  Cl11740367   4.966   6.107   6.384  0.4219 -0.3828  0.2278
  126MOL   C11840368   4.877   6.361   6.379  0.0489  0.3605 -0.8042
  126MOL   C11940369   4.778   6.455   6.376  0.5436  0.2500 -0.4252
  126MOL   C12040370   4.641   6.422   6.401 -0.2491 -0.1328  0.3995
  126MOL   C12140371   4.606   6.284   6.411 -0.2013 -0.7990 -0.0156
  126MOL   C12240372   4.593   6.006   6.255  0.0003  0.3308  0.0935
  126MOL   H12340373   4.760   5.979   6.374  1.1492  0.9938  0.5214
  126MOL   H12440374   4.979   6.392   6.361 -0.3284  2.4872  0.4923
  126MOL   H12540375   4.813   6.556   6.367  0.6577  0.1396 -1.3150
  126MOL   H12640376   4.582   6.511   6.392 -0.0482 -0.0712 -0.3679
  126MOL   H12740377   4.501   6.264   6.424  0.0417 -1.3919  1.0872
  126MOL   H12840378   4.663   6.051   6.184  0.5458 -2.2329 -1.0577
  126MOL   H12940379   4.505   6.069   6.272  1.0943  1.6012  1.2233
  126MOL   C13040380   4.555   5.859   6.219 -0.3896  0.8220  0.5053
  126MOL   C13140381   4.637   5.749   6.284  0.2619 -0.3836  0.3199
  126MOL   C13240382   4.581   5.651   6.371  0.2914  0.3511  0.0782
  126MOL  Cl13340383   4.408   5.636   6.404  0.1064 -0.0126  0.7791
  126MOL   C13440384   4.661   5.556   6.441  0.2019  0.2267  0.7755
  126MOL   C13540385   4.801   5.555   6.415  0.5182  0.0915  0.5141
  126MOL   C13640386   4.858   5.647   6.330  0.3003 -0.0545 -0.3457
  126MOL   C13740387   4.775   5.741   6.264 -0.0999 -0.8768  0.3764
  126MOL   C13840388   4.562   5.840   6.071  0.3736  0.0091  1.0612
  126MOL   H13940389   4.450   5.852   6.249 -0.1059 -1.0572  1.0974
  126MOL   H14040390   4.605   5.484   6.500  0.1269 -0.7169 -0.4282
  126MOL   H14140391   4.864   5.472   6.442  2.0615  0.7448 -0.9505
  126MOL   H14240392   4.959   5.628   6.298  0.6204 -1.4071  1.3918
  126MOL   H14340393   4.827   5.809   6.197  0.2679 -0.8438  0.6942
  126MOL   H14440394   4.514   5.745   6.046 -0.8382  1.0693 -0.7512
  126MOL   H14540395   4.662   5.834   6.028  0.2691  1.0913  0.6474
  126MOL   C14640396   4.497   5.945   5.970  0.8751  0.5940 -0.6654
  126MOL   C14740397   4.345   5.974   5.989  0.6430 -0.1133 -0.0485
  126MOL   C14840398   4.302   6.110   5.998  0.2829  1.5004  0.3347
  126MOL  Cl14940399   4.414   6.242   5.985 -0.1043 -0.2679  0.1362
  126MOL   C15040400   4.169   6.138   6.017  0.0766  0.2127 -0.5725
  126MOL   C15140401   4.070   6.038   6.005 -0.1460 -0.0713  0.2134
  126MOL   C15240402   4.109   5.900   5.996 -0.7410  0.1460 -0.0426
  126MOL   C15340403   4.248   5.871   5.986  0.2602  0.4108  0.2449
  126MOL   C15440404   4.524   5.902   5.827  0.0857  0.0813 -0.5941
  126MOL   H15540405   4.556   6.035   5.989  0.4932  0.0579  3.5179
  126MOL   H15640406   4.132   6.239   6.017 -1.4674 -0.3182  1.5592
  126MOL   H15740407   3.969   6.075   5.996 -0.1817 -0.2909 -0.2874
  126MOL   H15840408   4.034   5.823   5.989 -0.1574 -0.3699 -0.8352
  126MOL   H15940409   4.290   5.773   5.967  0.0182 -0.1951  2.6279
  126MOL   H16040410   4.503   5.795   5.823 -0.5384  0.1128  1.4264
  126MOL   H16140411   4.632   5.910   5.826 -0.0328  2.2671  1.0332
  126MOL   C16240412   4.474   5.984   5.710  0.2961 -0.0827  0.2934
  126MOL   C16340413   4.345   5.942   5.640 -0.2202 -0.9705  0.3053
  126MOL   C16440414   4.240   6.027   5.598  0.9095  0.3724  1.1493
  126MOL  Cl16540415   4.233   6.195   5.615 -0.1571  0.2120 -0.0971
  126MOL   C16640416   4.130   5.971   5.536  0.0451 -0.1588 -0.1816
  126MOL   C16740417   4.107   5.833   5.530  0.0093 -0.0035 -0.4078
  126MOL   C16840418   4.213   5.745   5.564 -0.3762 -0.0315 -0.0330
  126MOL   C16940419   4.331   5.800   5.619 -0.0093  0.4954  0.6731
  126MOL   C17040420   4.578   6.007   5.596  0.4608  0.3894  0.2521
  126MOL   H17140421   4.459   6.087   5.744 -0.8471 -0.6001  1.4146
  126MOL   H17240422   4.052   6.036   5.498 -0.7983  1.3949  3.9320
  126MOL   H17340423   4.014   5.794   5.491 -0.6845  0.8718  0.3352
  126MOL   H17440424   4.225   5.639   5.551 -0.0393  0.4663 -4.4250
  126MOL   H17540425   4.410   5.729   5.638 -0.7994 -0.4003  0.6112
  126MOL   H17640426   4.534   6.082   5.530 -1.0435  0.0914  0.8958
  126MOL   H17740427   4.589   5.914   5.539  1.9127  0.7716 -0.1019
  126MOL   C17840428   4.713   6.047   5.646 -0.0416  0.6589  0.3474
  126MOL   C17940429   4.721   6.174   5.736 -0.1278 -0.0710 -0.2933
  126MOL   C18040430   4.796   6.176   5.858 -0.1594 -0.0823  0.6409
  126MOL  Cl18140431   4.881   6.039   5.914  0.3202  0.1834  0.4161
  126MOL   C18240432   4.804   6.294   5.939 -0.5621 -0.6647  0.7145
  126MOL   C18340433   4.729   6.403   5.899 -0.4766  0.1656  0.0067
  126MOL   C18440434   4.645   6.402   5.787 -0.3355  0.2820  0.0067
  126MOL   C18540435   4.643   6.288   5.706  0.6928 -1.3036  0.8599
  126MOL   C18640436   4.796   6.076   5.519 -0.3792 -0.0315  0.6461
  126MOL   H18740437   4.768   5.966   5.693  0.5820  0.3360 -0.9244
  126MOL   H18840438   4.872   6.308   6.022 -0.5713 -0.2257  0.6496
  126MOL   H18940439   4.750   6.497   5.949  2.1972 -0.6119  0.4015
  126MOL   H19040440   4.592   6.495   5.772  0.9338  1.0127 -0.0375
  126MOL   H19140441   4.570   6.295   5.627  0.1409  0.3197  1.4900
  126MOL   H19240442   4.803   6.185   5.511 -2.8019  0.1388  0.7474
  126MOL   H19340443   4.745   6.039   5.431  1.4499 -2.3557  0.5210
  126MOL   C19440444   4.944   6.022   5.520 -0.0485 -0.0994  0.0536
  126MOL   C19540445   5.041   6.119   5.444 -0.1390  0.0528 -0.7768
  126MOL   C19640446   5.151   6.175   5.503 -0.6815 -0.0239 -0.1626
  126MOL  Cl19740447   5.197   6.140   5.668 -0.0206 -0.3081 -0.0331
  126MOL   C19840448   5.229   6.269   5.435  0.0581 -0.6037  0.1164
  126MOL   C19940449   5.201   6.306   5.303 -0.0450 -0.1654 -0.3512
  126MOL   C20040450   5.086   6.257   5.245 -0.2809 -0.7983  0.4176
  126MOL   C20140451   5.012   6.159   5.309  0.7997  0.7076 -0.1990
  126MOL   C20240452   4.953   5.885   5.455 -0.6053 -0.0114  0.0992
  126MOL   H20340453   4.987   6.011   5.619  1.9859 -1.8640 -0.9634
  126MOL   H20440454   5.319   6.303   5.484 -0.5194  3.0590 -1.2079
  126MOL   H20540455   5.253   6.385   5.252 -1.6224  1.3377  0.3149
  126MOL   H20640456   5.029   6.301   5.165 -2.8622 -2.6470  1.1599
  126MOL   H20740457   4.921   6.125   5.261  0.4284  1.0268  0.2683
  126MOL   H20840458   5.061   5.865   5.450 -0.8727 -2.6150  2.8434
  126MOL   H20940459   4.919   5.899   5.352 -1.4566 -1.2880  0.2018
  126MOL   C21040460   4.898   5.755   5.530 -0.1811  0.2387  0.0990
  126MOL   C21140461   4.942   5.735   5.678  0.7696  1.1879 -0.2308
  126MOL   C21240462   4.846   5.688   5.777 -0.2747  0.3948  0.4314
  126MOL  Cl21340463   4.696   5.620   5.730  0.1375  0.2003 -0.2806
  126MOL   C21440464   4.896   5.658   5.905 -0.6003 -0.0751  0.0190
  126MOL   C21540465   5.024   5.685   5.942  0.1047 -0.2451 -0.2523
  126MOL   C21640466   5.113   5.735   5.853 -0.2045  0.2154 -0.5615
  126MOL   C21740467   5.073   5.763   5.722  0.0427  0.1924 -0.9619
  126MOL   C21840468   4.940   5.617   5.462 -0.1021  0.2573 -0.7783
  126MOL   H21940469   4.789   5.754   5.528 -0.2012  2.2386 -1.2430
  126MOL   H22040470   4.831   5.634   5.988 -0.3486  0.4040  0.3621
  126MOL   H22140471   5.047   5.660   6.044 -1.1621 -1.2022 -0.2028
  126MOL   H22240472   5.211   5.770   5.880 -0.8010  1.4314  0.0641
  126MOL   H22340473   5.148   5.799   5.654 -0.5619 -0.9293 -2.2617
  126MOL   H22440474   4.918   5.537   5.532 -0.9506  1.1530 -0.0007
  126MOL   H22540475   5.048   5.605   5.460 -0.2077 -1.7457  2.7149
  126MOL   C22640476   4.880   5.599   5.323  0.1293 -0.8114 -0.3058
  126MOL   C22740477   4.741   5.549   5.327  0.1074 -0.5273 -0.3050
  126MOL   C22840478   4.627   5.631   5.301  0.3346  0.9875 -0.1745
  126MOL  Cl22940479   4.637   5.788   5.244 -0.3144 -0.4446 -0.1068
  126MOL   C23040480   4.494   5.581   5.325 -0.9751  0.4548  0.3985
  126MOL   C23140481   4.481   5.444   5.354 -0.0818  0.5673 -0.2082
  126MOL   C23240482   4.595   5.362   5.380 -0.3112  0.0951 -1.0479
  126MOL   C23340483   4.722   5.420   5.375  0.2619 -0.8437 -0.2690
  126MOL   C23440484   4.971   5.515   5.243 -0.5966  0.1869 -0.4375
  126MOL   H23540485   4.885   5.699   5.279  4.3344 -0.2237  1.2928
  126MOL   H23640486   4.410   5.649   5.319 -1.3135 -0.1009 -1.2144
  126MOL   H23740487   4.382   5.407   5.380 -0.4255  2.1265  0.7938
  126MOL   H23840488   4.581   5.257   5.404 -1.5895  0.5940  0.4269
  126MOL   H23940489   4.806   5.362   5.410 -0.9332 -2.0259  0.7011
  126MOL   H24040490   4.976   5.416   5.288 -1.0732 -0.1169 -1.0488
  126MOL   H24140491   5.075   5.547   5.249 -0.3293 -0.8525  0.6653
  126MOL   C24240492   4.930   5.495   5.093  0.4690  0.6085  0.3902
  126MOL   C24340493   4.861   5.360   5.068  0.2976 -0.1296  0.3332
  126MOL   C24440494   4.728   5.342   5.013 -0.4849 -0.4736  0.1217
  126MOL  Cl24540495   4.640   5.482   4.953 -0.2350 -0.4456 -0.1785
  126MOL   C24640496   4.681   5.210   4.989 -0.1929 -0.0483  0.0555
  126MOL   C24740497   4.748   5.097   5.043  0.6327  0.2611  0.6032
  126MOL   C24840498   4.880   5.110   5.089 -0.2713 -0.4312  0.0200
  126MOL   C24940499   4.928   5.241   5.102  0.1004 -0.0211  0.0955
  126MOL   C25040500   5.047   5.522   4.991  0.2113  0.5466 -0.1803
  126MOL   H25140501   4.854   5.569   5.065  0.7297  0.7498  0.0546
  126MOL   H25240502   4.584   5.196   4.943 -0.4108 -2.1084  1.1276
  126MOL   H25340503   4.692   5.006   5.027 -2.0406  1.9593 -0.0878
  126MOL   H25440504   4.939   5.023   5.116 -0.5649 -1.0529 -1.2958
  126MOL   H25540505   5.027   5.256   5.144  0.2761 -0.7221 -0.0585
  126MOL   H25640506   5.055   5.455   4.906  1.5194  0.6802 -0.1735
  126MOL   H25740507   5.137   5.495   5.046 -0.5092  0.5462  1.0191
  126MOL   C25840508   5.061   5.662   4.941  0.1729  0.1649 -0.2104
  126MOL   C25940509   4.936   5.699   4.849 -0.6588  0.5902  0.5979
  126MOL   C26040510   4.846   5.811   4.867 -0.3158 -0.3122 -0.4975
  126MOL  Cl26140511   4.865   5.900   5.006  0.5602 -0.4132 -0.0419
  126MOL   C26240512   4.742   5.837   4.777  0.5039 -0.3597  0.4081
  126MOL   C26340513   4.718   5.747   4.674  0.2945 -0.0801 -0.1709
  126MOL   C26440514   4.808   5.640   4.655  0.3667  0.4285 -0.6144
  126MOL   C26540515   4.913   5.615   4.742 -0.1804  0.0432  0.4634
  126MOL   C26640516   5.189   5.679   4.856  0.5972 -0.1818 -0.4137
  126MOL   H26740517   5.058   5.733   5.024 -2.5931 -0.5544  0.3635
  126MOL   H26840518   4.677   5.923   4.769 -1.5108 -1.9280 -0.5292
  126MOL   H26940519   4.629   5.750   4.612  0.9110  0.1096 -1.0627
  126MOL   H27040520   4.789   5.567   4.577 -3.8865  0.4099  0.2923
  126MOL   H27140521   4.978   5.534   4.711  1.2990  0.6500  1.8718
  126MOL   H27240522   5.173   5.767   4.793  1.4006  0.4426  0.2338
  126MOL   H27340523   5.200   5.592   4.793  0.3945 -0.2294 -0.3843
  126MOL   C27440524   5.321   5.700   4.934  0.6988 -0.5054  0.4040
  126MOL   C27540525   5.335   5.851   4.974  0.2031  0.4466 -0.1699
  126MOL   C27640526   5.303   5.906   5.099 -0.3737 -0.0696 -0.1533
  126MOL  Cl27740527   5.232   5.815   5.229 -0.1522 -0.1620 -0.1919
  126MOL   C27840528   5.326   6.041   5.125  0.3902  0.3841 -0.0923
  126MOL   C27940529   5.375   6.126   5.028  0.2268  0.0756  0.8420
  126MOL   C28040530   5.418   6.076   4.904  0.5189  0.4074  0.1158
  126MOL   C28140531   5.392   5.941   4.876  0.1022  0.6205 -0.0889
  126MOL   C28240532   5.446   5.651   4.852 -0.3309 -0.2157 -0.1029
  126MOL   H28340533   5.308   5.636   5.022  1.8673 -2.5389 -0.8779
  126MOL   H28440534   5.299   6.066   5.227  2.5790 -0.8294  0.8061
  126MOL   H28540535   5.388   6.232   5.045  0.1973  0.2805 -0.3681
  126MOL   H28640536   5.475   6.135   4.834 -0.8984 -1.1892 -2.4532
  126MOL   H28740537   5.426   5.899   4.782 -0.3336 -0.3485  0.1826
  126MOL   H28840538   5.442   5.690   4.751  1.7598 -0.6883 -0.4037
  126MOL   H28940539   5.432   5.543   4.844  0.4700 -0.2498 -1.0768
  126MOL   C29040540   5.589   5.682   4.919  0.3424 -0.4677  0.4540
  126MOL   C29140541   5.673   5.792   4.842 -0.3524 -0.1682 -1.0502
  126MOL   C29240542   5.732   5.910   4.911  0.4382 -0.4092 -0.1948
  126MOL  Cl29340543   5.733   5.927   5.082 -0.2209 -0.0017  0.2708
  126MOL   C29440544   5.795   6.015   4.844 -0.6120 -0.4914  0.1864
  126MOL   C29540545   5.812   5.995   4.704  0.5247  0.4190  0.1154
  126MOL   C29640546   5.766   5.876   4.639  1.0217 -0.1666  0.0197
  126MOL   C29740547   5.696   5.775   4.707 -0.6142  0.4183 -0.2352
  126MOL   C29840548   5.659   5.550   4.930 -0.1889  0.1670 -1.0088
  126MOL   H29940549   5.568   5.705   5.023 -1.4553  0.5802 -0.1208
  126MOL   H30040550   5.837   6.099   4.897 -2.7658 -1.0875  2.9181
  126MOL   H30140551   5.867   6.066   4.644  2.0172 -2.1074 -1.6147
  126MOL   H30240552   5.781   5.860   4.534 -0.9449  1.8454 -0.6102
  126MOL   H30340553   5.651   5.695   4.650 -0.0766  0.7874 -1.1919
  126MOL   H30440554   5.761   5.581   4.954 -0.5144  0.0629  0.5652
  126MOL   H30540555   5.673   5.500   4.834  0.2352 -1.7079 -0.0095
  126MOL   C30640556   5.625   5.452   5.045 -0.0387 -0.4046 -0.3752
  126MOL   C30740557   5.620   5.519   5.186  0.0600  0.2309 -0.4130
  126MOL   C30840558   5.502   5.506   5.267 -0.4576 -0.0004  1.4793
  126MOL  Cl30940559   5.351   5.439   5.209  0.3140 -0.0201 -0.2098
  126MOL   C31040560   5.501   5.539   5.404  0.3467 -0.5385 -0.0219
  126MOL   C31140561   5.622   5.595   5.459  0.5258  0.0475  0.5633
  126MOL   C31240562   5.740   5.601   5.376 -0.3470 -0.3406  0.0800
  126MOL   C31340563   5.737   5.567   5.244 -0.0583 -0.5288 -0.5108
  126MOL   C31440564   5.727   5.339   5.044  0.0960 -0.4417  0.2552
  126MOL   H31540565   5.533   5.398   5.022 -0.3382 -0.4352  0.8510
  126MOL   H31640566   5.413   5.521   5.463 -1.8813  0.0254 -3.0292
  126MOL   H31740567   5.627   5.639   5.557 -0.8759  0.1288  0.5958
  126MOL   H31840568   5.834   5.627   5.422 -0.3329 -1.0838  0.4690
  126MOL   H31940569   5.820   5.592   5.179 -0.2840  0.5937 -0.3823
  126MOL   H32040570   5.688   5.260   5.108 -2.2496  0.2905 -0.2273
  126MOL   H32140571   5.825   5.366   5.084 -0.9481  2.8307  0.7392
  126MOL   H32240572   5.744   5.297   4.945  0.1592 -0.4193  0.2572
  127MOL     C140573   3.044   3.804   6.720  0.5738  0.2481  0.2949
  127MOL     C240574   3.066   3.729   6.589  0.6594  0.2043 -0.3125
  127MOL     C340575   3.000   3.607   6.553  0.2585  0.1761  0.7213
  127MOL    Cl440576   2.863   3.551   6.645  0.2272 -0.2399  0.2612
  127MOL     C540577   3.031   3.539   6.436 -0.1236  0.8184  0.1448
  127MOL     C640578   3.135   3.588   6.356 -0.7950  0.9840 -0.2058
  127MOL     C740579   3.201   3.711   6.384  0.0432  0.2580  0.5859
  127MOL     C840580   3.167   3.778   6.504 -0.4878  0.1327  1.0119
  127MOL     C940581   3.099   3.730   6.836  0.2436 -0.1478 -0.3466
  127MOL    H1040582   3.093   3.900   6.704 -0.7649  0.8170 -0.4335
  127MOL    H1140583   2.984   3.445   6.410 -0.3205  0.7075  0.8871
  127MOL    H1240584   3.142   3.545   6.257 -0.9511 -1.2806  0.7431
  127MOL    H1340585   3.271   3.770   6.327  0.1498  2.0173  2.4733
  127MOL    H1440586   3.231   3.859   6.535  3.5508 -2.0799 -1.1955
  127MOL    H1540587   3.185   3.671   6.804  0.5407  0.2896 -0.3731
  127MOL    H1640588   3.025   3.655   6.862  0.5933 -0.3943 -0.0599
  127MOL    H1740589   2.937   3.820   6.716  1.1877  4.4303 -1.1180
  127MOL    C1840590   3.155   3.815   6.958 -0.1398 -0.1050  0.1235
  127MOL    C1940591   3.250   3.930   6.922 -0.3737  0.2485  0.1481
  127MOL    C2040592   3.221   4.067   6.947 -0.5142 -0.0914 -0.2060
  127MOL   Cl2140593   3.073   4.119   7.023 -0.1411  0.2243 -0.3730
  127MOL    C2240594   3.312   4.172   6.915 -0.0712 -0.6910 -0.8610
  127MOL    C2340595   3.426   4.141   6.838  0.5053  0.6107  0.7625
  127MOL    C2440596   3.448   3.999   6.804  0.6321  0.1434 -0.2284
  127MOL    C2540597   3.360   3.897   6.845  0.3319 -0.4720 -0.0483
  127MOL    C2640598   3.223   3.715   7.051 -0.2899 -0.0591 -0.9554
  127MOL    H2740599   3.079   3.863   7.019 -0.6573  2.1090 -2.1640
  127MOL    H2840600   3.282   4.269   6.951  0.7538 -0.5750 -0.4779
  127MOL    H2940601   3.492   4.222   6.811 -1.1560  2.6012  2.4924
  127MOL    H3040602   3.528   3.974   6.737  2.6489  1.9769  1.4430
  127MOL    H3140603   3.386   3.798   6.810  0.2723  0.0966 -1.7534
  127MOL    H3240604   3.270   3.779   7.126 -0.4748  1.2389 -1.9164
  127MOL    H3340605   3.305   3.675   6.991  2.2066  0.5436  1.9428
  127MOL    C3440606   3.130   3.615   7.126 -0.0718  0.2756 -0.2716
  127MOL    C3540607   3.026   3.693   7.205  0.4782  0.5014  0.1375
  127MOL    C3640608   2.882   3.695   7.174  0.2395 -0.7255 -0.6388
  127MOL   Cl3740609   2.817   3.605   7.045  0.2355  0.0958 -0.0109
  127MOL    C3840610   2.801   3.789   7.247  0.0770  0.3102  0.5002
  127MOL    C3940611   2.845   3.871   7.349 -0.2073  0.1635 -0.2924
  127MOL    C4040612   2.973   3.845   7.396  0.0141  0.0093 -0.6221
  127MOL    C4140613   3.060   3.757   7.324  0.1903 -0.3373  0.1239
  127MOL    C4240614   3.200   3.507   7.215  0.0992 -0.0313 -0.3873
  127MOL    H4340615   3.079   3.556   7.050  1.6637 -4.1386  1.7970
  127MOL    H4440616   2.697   3.794   7.220 -0.0633  0.4884  1.0693
  127MOL    H4540617   2.776   3.935   7.401  0.2520 -0.5879  1.2747
  127MOL    H4640618   2.995   3.890   7.491 -1.9857  2.7410 -1.3912
  127MOL    H4740619   3.157   3.745   7.371  0.1080 -0.1166  0.3574
  127MOL    H4840620   3.119   3.462   7.273 -1.1047  1.8582 -0.5358
  127MOL    H4940621   3.270   3.556   7.283  0.3922 -1.3738  0.2813
  127MOL    C5040622   3.285   3.399   7.146  0.5283  0.1030 -0.6732
  127MOL    C5140623   3.205   3.357   7.022  0.0217  0.0008  0.3558
  127MOL    C5240624   3.257   3.370   6.892  0.3101  0.0412 -0.1604
  127MOL   Cl5340625   3.401   3.443   6.855 -0.2794  0.0306 -0.0014
  127MOL    C5440626   3.188   3.319   6.784 -0.5764 -0.2907  1.2702
  127MOL    C5540627   3.072   3.241   6.801  0.6230  0.3515 -0.0158
  127MOL    C5640628   3.022   3.226   6.928  0.2097 -0.0534  0.1280
  127MOL    C5740629   3.085   3.287   7.037 -0.0151 -0.3477 -0.3085
  127MOL    C5840630   3.313   3.265   7.231  0.0470 -0.3151  1.0932
  127MOL    H5940631   3.383   3.439   7.119 -0.1189  1.8684 -0.4622
  127MOL    H6040632   3.221   3.339   6.683 -2.9024 -2.4019  0.0464
  127MOL    H6140633   3.014   3.193   6.723  1.5776 -1.2817  0.2390
  127MOL    H6240634   2.926   3.178   6.938  0.9455 -2.1785 -2.3420
  127MOL    H6340635   3.038   3.298   7.134  0.1664  0.1092 -0.2670
  127MOL    H6440636   3.352   3.188   7.164 -1.5647 -0.2935  0.0754
  127MOL    H6540637   3.213   3.232   7.261 -0.5462 -0.3845 -0.8456
  127MOL    C6640638   3.408   3.280   7.351 -0.5111  0.2680 -0.3916
  127MOL    C6740639   3.543   3.334   7.307  0.1708 -0.2175  0.2156
  127MOL    C6840640   3.599   3.454   7.347 -0.0508 -0.2297 -0.9954
  127MOL   Cl6940641   3.503   3.577   7.425  0.2536  0.3634 -0.0866
  127MOL    C7040642   3.734   3.484   7.314  0.0425 -0.0602 -0.7993
  127MOL    C7140643   3.819   3.396   7.245  0.3082 -0.3008 -0.4388
  127MOL    C7240644   3.763   3.275   7.194 -0.5049 -0.5871 -0.5874
  127MOL    C7340645   3.625   3.256   7.218 -0.2971  0.3726  0.4948
  127MOL    C7440646   3.432   3.151   7.433 -0.4792 -0.0625  0.4354
  127MOL    H7540647   3.369   3.353   7.423 -0.1292 -0.6499  0.7664
  127MOL    H7640648   3.792   3.570   7.343  0.1621 -0.0631 -1.0322
  127MOL    H7740649   3.919   3.433   7.227  0.8491 -0.9514  1.1610
  127MOL    H7840650   3.821   3.217   7.124  1.5072  2.3832 -1.5080
  127MOL    H7940651   3.586   3.158   7.194  0.0715  0.1971  0.6001
  127MOL    H8040652   3.478   3.079   7.365 -1.8358  0.5944 -1.2430
  127MOL    H8140653   3.327   3.120   7.440 -0.3274 -1.3939 -2.2576
  127MOL    C8240654   3.514   3.173   7.568  0.5888  0.6174 -0.9511
  127MOL    C8340655   3.660   3.135   7.539 -0.0193 -0.0110 -0.0105
  127MOL    C8440656   3.757   3.230   7.564  0.2789 -0.8108  0.7184
  127MOL   Cl8540657   3.736   3.384   7.637  0.0362  0.2653 -0.0735
  127MOL    C8640658   3.892   3.194   7.535  0.7431 -0.2112 -0.4871
  127MOL    C8740659   3.932   3.060   7.508  0.3756 -0.9390  0.4150
  127MOL    C8840660   3.830   2.963   7.487 -0.1435  0.0073 -0.1575
  127MOL    C8940661   3.691   3.005   7.495  0.0060 -0.3028  0.4026
  127MOL    C9040662   3.453   3.089   7.684  0.1125 -0.2900  0.0742
  127MOL    H9140663   3.502   3.276   7.604 -0.8431  0.4403 -0.8902
  127MOL    H9240664   3.973   3.266   7.535 -0.0155  0.7298  2.7709
  127MOL    H9340665   4.039   3.045   7.500  0.7994  2.6625 -2.2319
  127MOL    H9440666   3.841   2.858   7.464 -0.4374 -0.0167 -0.1839
  127MOL    H9540667   3.621   2.932   7.456 -2.0538  1.3359  0.9613
  127MOL    H9640668   3.533   3.068   7.755  0.3042 -0.9348 -0.3272
  127MOL    H9740669   3.423   2.996   7.636  0.1894  0.7270 -1.9871
  127MOL    C9840670   3.341   3.150   7.769  0.3741  0.0883  0.8111
  127MOL    C9940671   3.377   3.275   7.845 -0.5148  0.4618  0.0328
  127MOL   C10040672   3.314   3.402   7.824 -0.1674  0.2624  1.0193
  127MOL  Cl10140673   3.219   3.417   7.681  0.3391 -0.2983  0.4038
  127MOL   C10240674   3.350   3.510   7.899 -0.0038  0.0260  0.3044
  127MOL   C10340675   3.446   3.500   8.008 -0.4855 -0.0725  0.0752
  127MOL   C10440676   3.517   3.381   8.024  0.0740  0.1250  0.0382
  127MOL   C10540677   3.483   3.267   7.939 -0.5958  0.4293  0.0688
  127MOL   C10640678   3.283   3.044   7.869 -0.1853  0.3064 -0.2706
  127MOL   H10740679   3.260   3.165   7.698 -0.0916 -3.6459  0.4211
  127MOL   H10840680   3.305   3.607   7.885 -0.2861 -0.2522 -0.6865
  127MOL   H10940681   3.461   3.576   8.084  0.0966  1.3239 -1.3949
  127MOL   H11040682   3.594   3.373   8.099 -0.5025 -1.0704  0.5183
  127MOL   H11140683   3.524   3.170   7.965 -1.9924  0.2538  1.6781
  127MOL   H11240684   3.234   3.102   7.947  0.1704  1.0776 -0.6085
  127MOL   H11340685   3.372   3.004   7.916 -0.1256 -0.3645 -0.9415
  127MOL   C11440686   3.189   2.934   7.813 -0.3937 -0.5656  0.5846
  127MOL   C11540687   3.065   2.980   7.740 -1.3909 -0.3575  0.6695
  127MOL   C11640688   3.038   2.934   7.611 -0.7859 -0.5592 -0.1092
  127MOL  Cl11740689   3.138   2.816   7.529  0.4041  0.1015  0.3879
  127MOL   C11840690   2.927   2.992   7.540  0.6357 -0.2384  0.0474
  127MOL   C11940691   2.842   3.081   7.606 -0.3827 -0.5392 -0.0096
  127MOL   C12040692   2.864   3.110   7.744  0.0153 -0.7437  0.0014
  127MOL   C12140693   2.980   3.072   7.809  0.4515  0.2173  0.3634
  127MOL   C12240694   3.161   2.828   7.918  0.2576 -0.3512 -0.4276
  127MOL   H12340695   3.257   2.899   7.735 -2.1723 -0.4878 -1.0390
  127MOL   H12440696   2.901   2.955   7.442 -0.2356 -0.0218  0.1910
  127MOL   H12540697   2.764   3.135   7.554  0.8701  2.0403  0.7078
  127MOL   H12640698   2.791   3.170   7.797 -0.2941 -0.4386 -0.7579
  127MOL   H12740699   2.984   3.097   7.914  2.7710  3.4327 -0.4249
  127MOL   H12840700   3.083   2.765   7.876  0.3280 -0.2562 -0.7039
  127MOL   H12940701   3.130   2.878   8.010 -0.4128  0.2364 -0.9735
  127MOL   C13040702   3.287   2.736   7.945  0.1849 -0.6200 -0.4486
  127MOL   C13140703   3.354   2.677   7.818  0.0642  0.7241  0.1360
  127MOL   C13240704   3.491   2.706   7.785  0.0071 -0.4308 -0.0918
  127MOL  Cl13340705   3.595   2.803   7.868 -0.6804 -0.2049  0.5458
  127MOL   C13440706   3.541   2.653   7.669  0.1963  0.0494  0.2947
  127MOL   C13540707   3.463   2.574   7.590 -0.1485  0.4902 -0.5427
  127MOL   C13640708   3.331   2.530   7.630 -0.0818  0.4813  0.1444
  127MOL   C13740709   3.278   2.585   7.747 -0.4599 -1.6232  0.2113
  127MOL   C13840710   3.252   2.620   8.046  0.7699  0.3365  0.3595
  127MOL   H13940711   3.360   2.802   7.991 -1.1330  0.5171  0.0498
  127MOL   H14040712   3.640   2.668   7.629  1.0875 -1.9647  1.6876
  127MOL   H14140713   3.502   2.534   7.498 -1.4012 -2.2003  0.0486
  127MOL   H14240714   3.273   2.454   7.580  0.8204  0.4890 -0.9350
  127MOL   H14340715   3.181   2.556   7.784 -2.0207  1.2193 -1.4507
  127MOL   H14440716   3.172   2.557   8.007  1.3344  0.1667 -0.5371
  127MOL   H14540717   3.219   2.667   8.139 -0.3257 -1.3334  0.8411
  127MOL   C14640718   3.376   2.536   8.089 -0.1468 -0.0059 -0.3943
  127MOL   C14740719   3.329   2.406   8.146 -0.4938  0.0257 -0.5374
  127MOL   C14840720   3.351   2.285   8.080 -0.4198  0.4966 -0.5090
  127MOL  Cl14940721   3.428   2.281   7.932 -0.1415 -0.1623 -0.0766
  127MOL   C15040722   3.307   2.163   8.139 -0.0094 -0.2607 -0.8769
  127MOL   C15140723   3.253   2.168   8.271  0.2431  0.6741 -0.2613
  127MOL   C15240724   3.234   2.291   8.335  0.5426  1.2029 -0.2442
  127MOL   C15340725   3.272   2.407   8.273  0.1497 -0.0729  0.3511
  127MOL   C15440726   3.469   2.623   8.175 -0.1299  0.0670 -0.2059
  127MOL   H15540727   3.422   2.519   7.992  1.1538 -2.1806  0.5490
  127MOL   H15640728   3.311   2.064   8.095  1.1616 -0.2885 -0.7357
  127MOL   H15740729   3.223   2.082   8.329 -0.4420  1.9968  1.3960
  127MOL   H15840730   3.198   2.292   0.017  1.3455 -0.4000  0.0611
  127MOL   H15940731   3.257   2.503   8.319  2.1049  0.1902  0.4531
  127MOL   H16040732   3.416   2.670   8.258  1.0198  0.6292  0.2283
  127MOL   H16140733   3.512   2.709   8.124  0.1445  0.5085  0.7464
  127MOL   C16240734   3.597   2.562   8.242 -0.3448 -0.1692 -0.1270
  127MOL   C16340735   3.641   2.655   8.360  0.1628  0.2465  0.6111
  127MOL   C16440736   3.603   2.633   0.074 -0.2351  0.3599 -0.8425
  127MOL  Cl16540737   3.493   2.505   0.117 -0.4459  0.1575  0.1841
  127MOL   C16640738   3.649   2.712   0.181  0.4815 -0.5868  0.0146
  127MOL   C16740739   3.722   2.822   0.148  0.4106 -0.0284 -0.2547
  127MOL   C16840740   3.754   2.850   0.015 -0.1993 -0.4740  0.2970
  127MOL   C16940741   3.723   2.768   8.332 -0.2990 -0.2542 -0.4819
  127MOL   C17040742   3.709   2.511   8.145 -0.0778 -0.1130 -0.7057
  127MOL   H17140743   3.562   2.470   8.290  1.5829 -1.9282 -1.9762
  127MOL   H17240744   3.637   2.675   0.281 -3.3284 -2.2534 -0.9617
  127MOL   H17340745   3.772   2.877   0.227  1.0692 -0.3214 -0.4648
  127MOL   H17440746   3.817   2.935   8.411 -0.9142 -0.2363 -0.7423
  127MOL   H17540747   3.750   2.789   8.230 -1.7338  0.4580 -0.7404
  127MOL   H17640748   3.794   2.579   8.154  1.0488 -1.6728  1.2659
  127MOL   H17740749   3.667   2.519   8.046  0.7051  0.6920 -0.9755
  127MOL   C17840750   3.765   2.364   8.172 -0.6435 -0.4762  0.7285
  127MOL   C17940751   3.796   2.344   8.322 -0.1269 -0.0841 -0.1375
  127MOL   C18040752   3.723   2.260   8.410  0.0114 -0.1525  0.2808
  127MOL  Cl18140753   3.568   2.195   8.360  0.1500  0.1561 -0.0230
  127MOL   C18240754   3.770   2.235   0.117  0.2039  0.0450  0.2848
  127MOL   C18340755   3.876   2.309   0.178  0.4894  0.6284  0.5819
  127MOL   C18440756   3.936   2.401   0.095 -0.4892  0.3214 -0.1630
  127MOL   C18540757   3.908   2.413   8.381  0.2528  0.0924 -0.0893
  127MOL   C18640758   3.897   2.344   8.090 -0.1524  0.3058  0.6808
  127MOL   H18740759   3.686   2.296   8.140 -1.9694  1.9744 -1.4057
  127MOL   H18840760   3.717   2.160   0.175  0.8245 -1.3581 -0.9271
  127MOL   H18940761   3.905   2.284   0.280  2.5033  1.5511  0.2677
  127MOL   H19040762   4.018   2.464   0.127 -0.0608 -0.6297  0.6372
  127MOL   H19140763   3.960   2.477   8.311 -0.7399 -0.6972 -1.5649
  127MOL   H19240764   3.955   2.263   8.135 -1.9538 -0.5281  1.5273
  127MOL   H19340765   3.946   2.441   8.099 -0.0916  0.4001 -0.6617
  127MOL   C19440766   3.892   2.322   7.934  0.2536 -0.8366 -0.1358
  127MOL   C19540767   3.811   2.204   7.888 -0.5611  0.0507  0.3522
  127MOL   C19640768   3.731   2.207   7.767 -0.0658 -0.8091 -0.5000
  127MOL  Cl19740769   3.724   2.342   7.662  0.0732 -0.3023  0.3047
  127MOL   C19840770   3.660   2.094   7.734  0.0457 -0.4240  0.1198
  127MOL   C19940771   3.662   1.976   7.808 -0.6231  0.6374  0.4055
  127MOL   C20040772   3.735   1.972   7.926 -0.8108  0.6369 -0.0967
  127MOL   C20140773   3.810   2.082   7.966  0.2305 -0.1900 -0.6421
  127MOL   C20240774   4.031   2.315   7.871  0.0845 -0.2748  0.0421
  127MOL   H20340775   3.839   2.407   7.893  0.2270 -1.2845 -1.0486
  127MOL   H20440776   3.624   2.096   7.632 -0.2564 -0.0704  0.2348
  127MOL   H20540777   3.616   1.890   7.760 -2.4705  1.5350  0.5499
  127MOL   H20640778   3.739   1.874   7.972 -0.4361  1.2272  1.1548
  127MOL   H20740779   3.871   2.077   8.055  0.4510  0.0918 -0.7763
  127MOL   H20840780   4.015   2.320   7.763  1.7426 -1.0198 -0.2588
  127MOL   H20940781   4.083   2.220   7.881  0.3423 -0.4189 -2.4624
  127MOL   C21040782   4.128   2.426   7.912 -0.9259 -0.0176  0.9240
  127MOL   C21140783   4.067   2.566   7.903 -1.3312 -0.6926  0.0358
  127MOL   C21240784   4.085   2.660   8.008  0.0953 -0.5244  0.2517
  127MOL  Cl21340785   4.188   2.620   8.147  0.2514 -0.0901 -0.2803
  127MOL   C21440786   4.025   2.793   8.005  0.8910  1.3184 -0.4092
  127MOL   C21540787   3.957   2.828   7.885  0.5944 -0.5985  0.3029
  127MOL   C21640788   3.947   2.737   7.774  0.1450  0.2756  0.0839
  127MOL   C21740789   4.001   2.607   7.788 -0.3988  0.0810 -0.2123
  127MOL   C21840790   4.242   2.415   7.810 -0.2070  0.3989  0.3606
  127MOL   H21940791   4.168   2.407   8.011 -0.3852  1.2046  0.9454
  127MOL   H22040792   4.043   2.873   8.075 -0.4847  1.7255 -0.4979
  127MOL   H22140793   3.916   2.927   7.869 -0.8807 -1.1024  0.8272
  127MOL   H22240794   3.905   2.764   7.678  0.1251 -0.3154 -0.0709
  127MOL   H22340795   3.979   2.544   7.703 -2.0516  1.3943 -0.7972
  127MOL   H22440796   4.287   2.513   7.830 -0.2353  0.0334  2.2818
  127MOL   H22540797   4.215   2.412   7.704  0.5308 -1.7915  0.2081
  127MOL   C22640798   4.348   2.298   7.846  0.1376 -0.0422 -0.0104
  127MOL   C22740799   4.418   2.315   7.982  0.0423  0.6848  0.2669
  127MOL   C22840800   4.402   2.230   8.093 -0.3192 -0.5331  0.1322
  127MOL  Cl22940801   4.304   2.093   8.070 -0.3265 -0.3197  0.0650
  127MOL   C23040802   4.459   2.259   8.217  0.5162 -0.0090  0.5881
  127MOL   C23140803   4.543   2.367   8.233 -0.1033  0.4068 -0.4686
  127MOL   C23240804   4.573   2.450   8.116 -0.5347 -0.0639 -0.2692
  127MOL   C23340805   4.505   2.429   7.999 -0.4211  0.0707 -0.6180
  127MOL   C23440806   4.462   2.298   7.740  0.2704  0.2236 -0.0592
  127MOL   H23540807   4.301   2.200   7.842 -1.9109  0.8619  1.0218
  127MOL   H23640808   4.447   2.193   8.302 -1.4271 -0.3338  0.0948
  127MOL   H23740809   4.589   2.394   8.327  0.0228 -0.7717 -0.1859
  127MOL   H23840810   4.640   2.535   8.117 -0.1784 -0.3310 -1.3113
  127MOL   H23940811   4.517   2.493   7.913 -0.2640  0.5715 -0.2264
  127MOL   H24040812   4.555   2.264   7.785  0.3094  0.1729 -0.1794
  127MOL   H24140813   4.482   2.397   7.700  1.2878 -0.4846 -1.3288
  127MOL   C24240814   4.424   2.217   7.619 -0.2299  0.1703  0.1478
  127MOL   C24340815   4.429   2.063   7.635 -0.1211  0.4228 -0.0938
  127MOL   C24440816   4.326   1.980   7.580 -0.2374 -0.4384 -0.7827
  127MOL  Cl24540817   4.183   2.047   7.512  0.0060 -0.0470  0.3083
  127MOL   C24640818   4.349   1.844   7.578 -0.2932 -0.0098  0.3068
  127MOL   C24740819   4.463   1.784   7.648 -0.3151  0.2515 -0.1615
  127MOL   C24840820   4.561   1.867   7.709 -0.4378  0.1322 -0.0577
  127MOL   C24940821   4.545   2.004   7.697  0.0226 -0.2830  0.0993
  127MOL   C25040822   4.515   2.240   7.497 -0.3814  0.0577  0.2189
  127MOL   H25140823   4.323   2.245   7.589  0.0978  1.2757  0.0691
  127MOL   H25240824   4.280   1.783   7.524  0.4914 -0.1193 -0.5872
  127MOL   H25340825   4.466   1.677   7.657  1.3176  0.3764  0.8672
  127MOL   H25440826   4.650   1.823   7.751  0.0766  1.1551 -0.0693
  127MOL   H25540827   4.625   2.069   7.727 -0.3707  0.1254  0.2654
  127MOL   H25640828   4.491   2.158   7.430 -1.1262  0.9267 -0.6129
  127MOL   H25740829   4.623   2.230   7.507 -0.1405  0.7662 -1.4787
  127MOL   C25840830   4.489   2.386   7.431 -0.5789 -0.3580 -0.2063
  127MOL   C25940831   4.341   2.405   7.395 -0.5234  0.7766 -0.0593
  127MOL   C26040832   4.267   2.518   7.442 -0.7349  0.3577  0.1173
  127MOL  Cl26140833   4.331   2.633   7.549 -0.2347  0.1872  0.2499
  127MOL   C26240834   4.131   2.526   7.408  0.2226 -0.4602  0.1969
  127MOL   C26340835   4.071   2.435   7.313 -0.0182  0.4607  0.1643
  127MOL   C26440836   4.146   2.331   7.257 -0.2781  0.0704 -0.5166
  127MOL   C26540837   4.280   2.317   7.302  0.4485  0.1127  0.3807
  127MOL   C26640838   4.596   2.427   7.317 -0.6386 -0.2086 -0.1959
  127MOL   H26740839   4.507   2.459   7.510 -2.2352  1.7932 -1.7545
  127MOL   H26840840   4.070   2.605   7.449  0.4290  0.5961 -1.4704
  127MOL   H26940841   3.967   2.442   7.285  0.0728 -3.3666 -1.4947
  127MOL   H27040842   4.102   2.265   7.184 -0.1498  0.5806 -1.0517
  127MOL   H27140843   4.331   2.233   7.257 -1.2892 -0.5041 -0.5078
  127MOL   H27240844   4.562   2.509   7.253  2.2839  0.0511 -1.5039
  127MOL   H27340845   4.622   2.345   7.250 -0.1706  0.3740 -0.7427
  127MOL   C27440846   4.729   2.480   7.382 -0.1797  0.2045 -0.0433
  127MOL   C27540847   4.717   2.619   7.440  0.4693  0.8999  0.1122
  127MOL   C27640848   4.730   2.638   7.582  0.4338  0.8722 -0.5826
  127MOL  Cl27740849   4.769   2.505   7.689 -0.0494 -0.4492 -0.2519
  127MOL   C27840850   4.700   2.760   7.646  0.2999 -0.1820  0.0050
  127MOL   C27940851   4.658   2.864   7.567 -0.0310  0.0504 -0.1196
  127MOL   C28040852   4.647   2.851   7.422 -0.2890 -0.1324 -0.9653
  127MOL   C28140853   4.672   2.725   7.360  0.5783  0.2805  0.2166
  127MOL   C28240854   4.851   2.447   7.298  0.1549 -0.6309  1.4235
  127MOL   H28340855   4.727   2.409   7.465 -1.8842  1.9594  1.4703
  127MOL   H28440856   4.705   2.774   7.753  1.4713 -0.7670  0.0300
  127MOL   H28540857   4.627   2.958   7.612 -2.1245 -0.4674 -0.4075
  127MOL   H28640858   4.601   2.933   7.369 -1.3414  0.0618  0.2088
  127MOL   H28740859   4.647   2.712   7.256 -1.8399 -0.6273  0.8951
  127MOL   H28840860   4.931   2.514   7.328  0.5580 -0.9652  1.0952
  127MOL   H28940861   4.825   2.483   7.199  0.1773 -2.3968  0.7575
  127MOL   C29040862   4.911   2.305   7.303 -0.6179  0.0105  0.9607
  127MOL   C29140863   4.929   2.255   7.446  0.3962 -0.1710 -0.1469
  127MOL   C29240864   4.874   2.128   7.488  0.7687  0.0237 -0.4238
  127MOL  Cl29340865   4.775   2.037   7.386 -0.1828  0.0833 -0.3698
  127MOL   C29440866   4.911   2.078   7.614 -0.4003  0.1026  0.9239
  127MOL   C29540867   4.990   2.163   7.695 -0.3128 -0.9754 -0.5313
  127MOL   C29640868   5.041   2.291   7.661  0.9352  0.6392 -0.4461
  127MOL   C29740869   5.007   2.342   7.531 -0.0056  0.3850  0.1039
  127MOL   C29840870   5.041   2.307   7.227 -0.0323  0.2543 -0.1377
  127MOL   H29940871   4.839   2.250   7.243  1.0655  0.5286 -1.5901
  127MOL   H30040872   4.872   1.980   7.638  1.0185 -0.8107 -0.3850
  127MOL   H30140873   5.020   2.124   7.791 -2.5933  0.9187  0.9904
  127MOL   H30240874   5.099   2.348   7.731  0.6883  1.0005 -0.5364
  127MOL   H30340875   5.050   2.438   7.507 -0.8197  0.9413  0.8885
  127MOL   H30440876   5.073   2.203   7.229  2.2829  0.9412  1.0436
  127MOL   H30540877   5.112   2.362   7.289 -1.6893  0.1760  1.8686
  127MOL   C30640878   5.042   2.351   7.080 -0.3795 -0.7596 -0.3244
  127MOL   C30740879   4.966   2.260   6.982  0.1930 -0.0624  0.4004
  127MOL   C30840880   4.857   2.310   6.902  0.3688 -0.4621  0.0800
  127MOL  Cl30940881   4.801   2.477   6.899  0.1830  0.1815 -0.5106
  127MOL   C31040882   4.800   2.224   6.806  0.6785  0.0383  0.9271
  127MOL   C31140883   4.836   2.091   6.796 -1.1116  0.2629  0.5878
  127MOL   C31240884   4.942   2.037   6.875  0.5691  0.5758 -0.7497
  127MOL   C31340885   5.003   2.123   6.976  1.2795  0.3459 -0.1777
  127MOL   C31440886   5.185   2.347   7.027  0.8264 -0.2437  0.0986
  127MOL   H31540887   4.997   2.449   7.062  2.5636  0.6587 -0.3140
  127MOL   H31640888   4.730   2.257   6.731  1.2416  0.2264  0.4774
  127MOL   H31740889   4.786   2.031   6.722 -1.7787 -0.1756  1.3755
  127MOL   H31840890   4.968   1.932   6.872 -0.5225  0.1516  2.5504
  127MOL   H31940891   5.089   2.092   7.034  0.4819 -1.1668  0.2316
  127MOL   H32040892   5.233   2.441   7.054 -3.2966  1.5281  1.7806
  127MOL   H32140893   5.188   2.335   6.919  2.8250  0.4165  0.0618
  127MOL   H32240894   5.253   2.270   7.063 -0.7960 -1.8705 -0.2332
  128MOL     C140895   0.587   5.164   4.224  0.5880  0.5575  0.2078
  128MOL     C240896   0.579   5.290   4.139  0.1192  0.3248 -0.2790
  128MOL     C340897   0.697   5.356   4.104  0.3148 -0.4284  0.0734
  128MOL    Cl440898   0.855   5.286   4.146 -0.3106 -0.0697  0.2590
  128MOL     C540899   0.692   5.479   4.033 -0.5912 -0.1034 -0.1279
  128MOL     C640900   0.572   5.541   4.012 -0.0671  0.4414 -0.2286
  128MOL     C740901   0.451   5.468   4.035 -0.0341 -0.4590  0.7562
  128MOL     C840902   0.456   5.346   4.105 -0.4366 -0.7039 -0.9617
  128MOL     C940903   0.604   5.035   4.137 -0.7612  0.0807  0.0215
  128MOL    H1040904   0.658   5.164   4.307 -0.5855 -1.1996  1.2399
  128MOL    H1140905   0.786   5.521   4.001 -1.5006  1.0419 -1.3014
  128MOL    H1240906   0.569   5.635   3.958 -0.3396  1.6303  1.8287
  128MOL    H1340907   0.356   5.502   3.996 -0.8955 -1.8989  1.5423
  128MOL    H1440908   0.363   5.297   4.131  0.3419 -1.1040  1.1712
  128MOL    H1540909   0.612   4.947   4.200 -0.9386  0.0958  0.0663
  128MOL    H1640910   0.695   5.040   4.077 -0.5140  2.0627  0.5146
  128MOL    H1740911   0.485   5.149   4.260  0.8068  2.0094  1.4809
  128MOL    C1840912   0.493   5.026   4.020  0.1396  0.5074 -0.3997
  128MOL    C1940913   0.352   5.017   4.064  0.1219 -0.6853 -0.0963
  128MOL    C2040914   0.246   5.056   3.983 -0.5160 -0.1172 -0.0577
  128MOL   Cl2140915   0.270   5.140   3.833 -0.2500 -0.4186 -0.1867
  128MOL    C2240916   0.113   5.040   4.024  0.3313 -0.7119 -0.0247
  128MOL    C2340917   0.079   4.978   4.145  0.2403  0.3226 -0.1854
  128MOL    C2440918   0.186   4.932   4.223 -0.2939  0.2635 -0.3638
  128MOL    C2540919   0.318   4.947   4.178 -0.2674 -0.5848  0.3827
  128MOL    C2640920   0.538   4.926   3.912 -0.1513  0.4956 -0.7597
  128MOL    H2740921   0.495   5.121   3.965 -0.5664  0.8107  0.0864
  128MOL    H2840922   0.029   5.075   3.967  0.6884 -0.9555 -0.6994
  128MOL    H2940923   8.400   4.980   4.186 -0.7535  0.3212 -2.5268
  128MOL    H3040924   0.176   4.890   4.322  0.3128 -1.9675 -1.2079
  128MOL    H3140925   0.397   4.900   4.235 -0.7308 -1.3308  0.4130
  128MOL    H3240926   0.462   4.934   3.834 -1.1327 -0.9390  0.0166
  128MOL    H3340927   0.520   4.828   3.955  2.5062  0.0232 -0.6764
  128MOL    C3440928   0.677   4.928   3.850  0.1003  0.0650 -0.3651
  128MOL    C3540929   0.714   5.062   3.801  0.4708  1.2054 -0.5184
  128MOL    C3640930   0.837   5.124   3.835  0.1488 -0.2057  0.3770
  128MOL   Cl3740931   0.958   5.042   3.927  0.0590  0.1084  0.6358
  128MOL    C3840932   0.871   5.255   3.786  0.0633 -0.1708 -0.3693
  128MOL    C3940933   0.768   5.320   3.715  0.5921 -0.2288  0.8625
  128MOL    C4040934   0.651   5.254   3.669  0.0071  0.1515  0.5045
  128MOL    C4140935   0.624   5.125   3.712 -0.1482  0.1801  0.3763
  128MOL    C4240936   0.711   4.818   3.748 -0.1103 -0.3012 -0.1617
  128MOL    H4340937   0.748   4.907   3.930  3.0470  0.2234 -2.8600
  128MOL    H4440938   0.957   5.315   3.810 -0.2666  0.6473 -1.2005
  128MOL    H4540939   0.794   5.417   3.677 -1.1577 -0.4856 -1.0762
  128MOL    H4640940   0.587   5.307   3.599  0.4625  1.7092  1.2253
  128MOL    H4740941   0.543   5.061   3.679  0.8072 -0.8644  0.0128
  128MOL    H4840942   0.806   4.853   3.707 -0.0888  1.5230  1.3893
  128MOL    H4940943   0.646   4.833   3.662  1.2723 -1.9234 -1.5285
  128MOL    C5040944   0.726   4.675   3.804 -0.9254 -0.0832 -0.6728
  128MOL    C5140945   0.832   4.671   3.907  0.4512  0.0559  0.6367
  128MOL    C5240946   0.802   4.641   4.049  0.1302 -0.2217  0.1066
  128MOL   Cl5340947   0.640   4.631   4.114 -0.2929  0.1742  0.2049
  128MOL    C5440948   0.911   4.624   4.136  0.3770  0.0753 -0.8236
  128MOL    C5540949   1.040   4.648   4.094 -1.4689  0.4474 -0.5550
  128MOL    C5640950   1.068   4.689   3.961 -0.0905 -0.2641 -0.0012
  128MOL    C5740951   0.964   4.695   3.866  0.7125  0.4191 -0.8643
  128MOL    C5840952   0.759   4.573   3.688  0.1406 -0.3420 -0.9256
  128MOL    H5940953   0.628   4.644   3.840 -0.8215 -0.3561 -0.6243
  128MOL    H6040954   0.895   4.586   4.236 -0.1858 -0.6760 -1.1887
  128MOL    H6140955   1.110   4.641   4.176 -2.2167 -0.7689 -0.0092
  128MOL    H6240956   1.169   4.718   3.936  0.3354 -0.0258  1.9727
  128MOL    H6340957   0.991   4.717   3.764  2.6205 -0.1092 -0.4937
  128MOL    H6440958   0.786   4.479   3.736 -1.4181 -0.8035 -0.8977
  128MOL    H6540959   0.852   4.606   3.642 -1.4128  3.7536 -1.3341
  128MOL    C6640960   0.644   4.537   3.583 -0.4227  0.5500  0.0870
  128MOL    C6740961   0.534   4.448   3.646  0.7748  0.2057 -0.7151
  128MOL    C6840962   0.412   4.498   3.694 -0.6590  0.8826 -0.1551
  128MOL   Cl6940963   0.390   4.667   3.713  0.1241 -0.0068  0.2596
  128MOL    C7040964   0.309   4.414   3.731  0.5277  0.1962 -0.2324
  128MOL    C7140965   0.329   4.276   3.742 -1.0834 -0.1786 -0.2413
  128MOL    C7240966   0.455   4.227   3.705  0.2190  0.3892  0.2777
  128MOL    C7340967   0.560   4.309   3.662 -0.7900  0.5649 -0.2964
  128MOL    C7440968   0.696   4.474   3.445  0.5176  0.6659 -0.2079
  128MOL    H7540969   0.588   4.626   3.554 -1.7080  0.3560  1.8818
  128MOL    H7640970   0.214   4.459   3.755 -0.9636 -0.6591 -4.2374
  128MOL    H7740971   0.256   4.213   3.790 -0.1894 -1.0377  0.0151
  128MOL    H7840972   0.475   4.121   3.712  1.3987  0.5570 -0.3437
  128MOL    H7940973   0.652   4.265   3.625 -1.9034 -0.8626 -1.4170
  128MOL    H8040974   0.613   4.424   3.394  0.4813  1.1682 -0.6307
  128MOL    H8140975   0.768   4.395   3.465 -1.7270 -1.4335 -0.0870
  128MOL    C8240976   0.760   4.580   3.351  0.1180 -0.1509 -0.4614
  128MOL    C8340977   0.658   4.684   3.292 -0.1936 -0.0962  0.1381
  128MOL    C8440978   0.674   4.826   3.315  1.3237  0.1513 -0.3975
  128MOL   Cl8540979   0.787   4.898   3.424 -0.3644 -0.0922  0.0478
  128MOL    C8640980   0.591   4.919   3.244 -0.1025  0.0568 -0.1134
  128MOL    C8740981   0.490   4.873   3.161 -0.0932 -0.6216  0.5011
  128MOL    C8840982   0.476   4.736   3.135  0.5698  0.4970 -0.0387
  128MOL    C8940983   0.556   4.641   3.203 -0.2842  0.2654 -0.5379
  128MOL    C9040984   0.836   4.513   3.232  0.4268  0.1244 -0.4115
  128MOL    H9140985   0.835   4.630   3.413  0.4987  1.1439 -1.9441
  128MOL    H9240986   0.616   5.024   3.249  0.2791 -0.0312 -0.1685
  128MOL    H9340987   0.428   4.946   3.111  1.6808 -0.4269 -1.4634
  128MOL    H9440988   0.410   4.696   3.059 -1.7638  4.2080 -0.0963
  128MOL    H9540989   0.539   4.536   3.185  0.0100  0.5962 -2.9125
  128MOL    H9640990   0.858   4.585   3.152  0.3166  0.1417 -0.4267
  128MOL    H9740991   0.761   4.443   3.195  0.8363 -0.9295  0.7446
  128MOL    C9840992   0.966   4.424   3.271 -0.8584 -0.4419  0.0181
  128MOL    C9940993   1.078   4.498   3.353 -0.0984 -0.1266  0.4742
  128MOL   C10040994   1.152   4.438   3.454 -0.0824 -0.2950  0.4259
  128MOL  Cl10140995   1.156   4.263   3.468 -0.3720 -0.0131 -0.0982
  128MOL   C10240996   1.233   4.510   3.542 -0.3872 -0.0354 -0.2820
  128MOL   C10340997   1.238   4.651   3.528  0.4993 -0.0041  0.1381
  128MOL   C10440998   1.164   4.717   3.429 -0.5591  0.4830  0.0581
  128MOL   C10540999   1.090   4.636   3.339 -0.4032 -0.0291 -0.1404
  128MOL   C10641000   1.035   4.369   3.145  0.2796  0.6423 -0.2849
  128MOL   H10741001   0.924   4.349   3.338 -0.0718  0.3739  1.4380
  128MOL   H10841002   1.288   4.446   3.610 -2.0427 -1.0049  0.1881
  128MOL   H10941003   1.303   4.707   3.593 -0.1922  0.2020  0.6542
  128MOL   H11041004   1.166   4.825   3.425  2.3926  0.4771  0.1182
  128MOL   H11141005   1.036   4.699   3.269 -0.1359  1.2324  0.7612
  128MOL   H11241006   1.126   4.322   3.185 -0.9274 -2.2110 -0.7890
  128MOL   H11341007   1.071   4.451   3.084 -1.3571  0.8227 -1.0270
  128MOL   C11441008   0.952   4.266   3.060  0.2090  0.6315 -0.7171
  128MOL   C11541009   0.881   4.167   3.157  0.1845 -0.2800  0.1134
  128MOL   C11641010   0.741   4.158   3.161 -0.1374  0.2324  0.2336
  128MOL  Cl11741011   0.632   4.247   3.049  0.3842  0.0439 -0.0217
  128MOL   C11841012   0.687   4.053   3.238 -0.6699  0.0338  0.5745
  128MOL   C11941013   0.765   3.984   3.337  0.1582  0.0918  0.8381
  128MOL   C12041014   0.901   3.992   3.337  0.1828  1.1130  0.1989
  128MOL   C12141015   0.958   4.085   3.245  0.2327 -0.3713 -0.0724
  128MOL   C12241016   1.052   4.194   2.962  0.8549  0.4181 -0.2501
  128MOL   H12341017   0.888   4.332   3.002 -0.3984 -0.5643 -1.4154
  128MOL   H12441018   0.581   4.035   3.225 -0.6522  0.5643 -0.3576
  128MOL   H12541019   0.713   3.924   3.409 -0.9457 -1.1941 -0.9913
  128MOL   H12641020   0.969   3.934   3.397 -0.9333 -0.3224  0.1246
  128MOL   H12741021   1.064   4.103   3.252 -0.0432  1.8792 -1.2133
  128MOL   H12841022   1.106   4.116   3.015  2.3600  0.6036 -1.4858
  128MOL   H12941023   1.130   4.266   2.938  0.8695  0.4924  0.0260
  128MOL   C13041024   0.975   4.140   2.836 -0.1211  0.2764 -0.2033
  128MOL   C13141025   1.020   3.991   2.811  0.3657  0.5111 -0.6006
  128MOL   C13241026   0.928   3.884   2.824  0.4583 -0.0429  0.4630
  128MOL  Cl13341027   0.771   3.927   2.877 -0.4669 -0.2062  0.0628
  128MOL   C13441028   0.962   3.749   2.796  0.8324 -0.6021  0.2569
  128MOL   C13541029   1.100   3.727   2.771 -0.2735 -0.0690 -0.0942
  128MOL   C13641030   1.195   3.828   2.756 -0.1667  0.0406  0.4345
  128MOL   C13741031   1.152   3.957   2.778  0.2075 -0.2673 -0.2374
  128MOL   C13841032   0.999   4.214   2.705  0.3041  0.1076  0.4570
  128MOL   H13941033   0.869   4.147   2.863  0.2464 -0.3782  1.4942
  128MOL   H14041034   0.889   3.672   2.816 -1.0512  1.9233  3.7303
  128MOL   H14141035   1.132   3.624   2.779  0.0345  0.0116 -0.2810
  128MOL   H14241036   1.299   3.807   2.740  0.1504  0.1853  2.2378
  128MOL   H14341037   1.223   4.037   2.765  0.5793 -0.0482  2.7494
  128MOL   H14441038   0.942   4.159   2.630  0.7584  0.6373 -0.2945
  128MOL   H14541039   1.107   4.220   2.689  0.2200 -0.2911 -0.2989
  128MOL   C14641040   0.976   4.363   2.691  0.0747 -0.2587 -0.1744
  128MOL   C14741041   0.832   4.404   2.729 -0.2486 -0.6473 -0.1897
  128MOL   C14841042   0.812   4.527   2.792 -0.2254  0.7412  0.0186
  128MOL  Cl14941043   0.947   4.626   2.848  0.1724  0.1235 -0.3003
  128MOL   C15041044   0.685   4.576   2.827 -0.3188 -0.6911  0.3043
  128MOL   C15141045   0.569   4.501   2.797  0.4165 -0.4104  0.7817
  128MOL   C15241046   0.593   4.381   2.732 -0.0854 -1.0044  0.3189
  128MOL   C15341047   0.719   4.330   2.698 -0.2129  0.8347 -0.4852
  128MOL   C15441048   1.020   4.404   2.547  0.6096  0.3013 -0.3896
  128MOL   H15541049   1.047   4.414   2.756  1.0125 -1.5308 -0.1810
  128MOL   H15641050   0.676   4.675   2.871  1.6523  0.9826 -2.8630
  128MOL   H15741051   0.476   4.552   2.816  0.7675  1.3500 -1.8895
  128MOL   H15841052   0.515   4.313   2.702  0.7456 -2.5340  1.5158
  128MOL   H15941053   0.726   4.235   2.647 -1.5381  0.2892  0.3123
  128MOL   H16041054   1.114   4.360   2.516  0.1009  0.0327 -1.5927
  128MOL   H16141055   1.037   4.512   2.557  0.2760  0.0680  3.6592
  128MOL   C16241056   0.919   4.386   2.436  0.4187  0.3997  0.5337
  128MOL   C16341057   0.987   4.325   2.311 -0.3459 -0.4524 -0.1942
  128MOL   C16441058   0.975   4.191   2.279 -0.1959 -0.0121 -0.0104
  128MOL  Cl16541059   0.902   4.070   2.381 -0.4965 -0.4861 -0.0366
  128MOL   C16641060   1.017   4.153   2.147  0.0783 -0.0352 -0.5560
  128MOL   C16741061   1.076   4.245   2.059  0.2080  1.0476  0.6246
  128MOL   C16841062   1.107   4.372   2.097 -0.6615 -0.6576  0.3788
  128MOL   C16941063   1.062   4.413   2.224  0.1885 -0.5880  0.6668
  128MOL   C17041064   0.835   4.511   2.395 -1.2461  0.0956  0.0505
  128MOL   H17141065   0.848   4.312   2.471 -1.0399  1.6346  0.2697
  128MOL   H17241066   1.001   4.051   2.113 -1.9097  0.8030 -2.1959
  128MOL   H17341067   1.106   4.208   1.962  0.9682 -0.9277  1.5744
  128MOL   H17441068   1.154   4.433   2.022  0.2300 -0.1741  1.3260
  128MOL   H17541069   1.074   4.517   2.252  0.1866 -0.1426 -0.9365
  128MOL   H17641070   0.898   4.581   2.338 -0.7670 -0.7125 -0.4221
  128MOL   H17741071   0.800   4.562   2.485 -1.0515 -2.0727  1.3814
  128MOL   C17841072   0.715   4.469   2.303  0.6684  0.6760  0.4484
  128MOL   C17941073   0.692   4.576   2.192  0.3670 -0.3878 -0.6109
  128MOL   C18041074   0.634   4.709   2.221 -0.3815  0.2342 -0.6160
  128MOL  Cl18141075   0.597   4.770   2.382  0.3612 -0.0889 -0.2873
  128MOL   C18241076   0.609   4.800   2.115 -0.0676 -0.8633 -0.1581
  128MOL   C18341077   0.632   4.758   1.981 -0.3097 -1.0164 -0.0768
  128MOL   C18441078   0.689   4.629   1.956  0.0283 -0.5020  0.4336
  128MOL   C18541079   0.720   4.540   2.056 -0.1166  0.7905 -0.9571
  128MOL   C18641080   0.593   4.409   2.384  0.5646  0.4175  0.0111
  128MOL   H18741081   0.756   4.379   2.255  1.1530  0.3989  1.3765
  128MOL   H18841082   0.568   4.896   2.143  1.0276 -0.1440 -0.9699
  128MOL   H18941083   0.599   4.815   1.896 -1.2076 -0.2626  0.7740
  128MOL   H19041084   0.694   4.594   1.854  2.2395 -0.9208  0.6561
  128MOL   H19141085   0.763   4.443   2.037 -1.1965 -0.3003  1.9041
  128MOL   H19241086   0.563   4.488   2.453 -0.1674 -0.1594  0.3672
  128MOL   H19341087   0.614   4.326   2.452  0.3221  0.3391 -0.0065
  128MOL   C19441088   0.480   4.358   2.302  1.1706 -0.2039  0.2391
  128MOL   C19541089   0.371   4.462   2.295 -0.4330 -1.0939  0.6094
  128MOL   C19641090   0.326   4.522   2.174  0.1954 -0.1593  0.4715
  128MOL  Cl19741091   0.392   4.456   2.024  0.4021  0.0440  0.1299
  128MOL   C19841092   0.229   4.617   2.174  1.0611  0.1243 -0.7481
  128MOL   C19941093   0.166   4.665   2.295 -0.1628  0.2664  0.7751
  128MOL   C20041094   0.222   4.618   2.414  0.5964 -0.2753  0.1406
  128MOL   C20141095   0.308   4.511   2.418  0.3314  0.0848  0.4875
  128MOL   C20241096   0.423   4.219   2.353  0.0632 -0.7058 -0.0021
  128MOL   H20341097   0.524   4.344   2.203  1.8579  1.2932  0.3155
  128MOL   H20441098   0.189   4.650   2.079  0.8142 -1.0724 -1.0767
  128MOL   H20541099   0.080   4.731   2.293 -0.4427 -0.0577  1.8910
  128MOL   H20641100   0.171   4.644   2.505  0.2575  0.2565 -0.1994
  128MOL   H20741101   0.336   4.474   2.515 -1.1535 -0.6457  0.6351
  128MOL   H20841102   0.376   4.233   2.450  1.4978 -0.2539  0.6471
  128MOL   H20941103   0.506   4.148   2.360  0.6759 -0.0852 -0.9022
  128MOL   C21041104   0.313   4.164   2.252 -0.8205  0.4569  0.4994
  128MOL   C21141105   0.168   4.224   2.257 -0.2343  0.5163 -0.1184
  128MOL   C21241106   0.087   4.222   2.376 -0.2336 -0.4787  0.0001
  128MOL  Cl21341107   0.136   4.145   2.526  0.3718 -0.0482  0.1935
  128MOL   C21441108   8.379   4.279   2.369 -0.1344 -0.2056 -0.4479
  128MOL   C21541109   8.333   4.344   2.248  1.3736  0.6939  0.2620
  128MOL   C21641110   8.407   4.334   2.133  0.2960  0.0563  0.4341
  128MOL   C21741111   0.116   4.275   2.136  0.0072 -0.0093  0.0755
  128MOL   C21841112   0.303   4.014   2.259  0.6152 -0.0462 -0.8790
  128MOL   H21941113   0.354   4.186   2.153 -2.6039  2.7767  0.2443
  128MOL   H22041114   8.323   4.290   2.461 -0.2928  0.4304 -0.6185
  128MOL   H22141115   8.236   4.391   2.253  1.4323  0.6888  1.6195
  128MOL   H22241116   8.375   4.375   2.039  1.5357  1.0787  0.4453
  128MOL   H22341117   0.165   4.266   2.040  1.0347  3.0626  0.2619
  128MOL   H22441118   0.218   3.986   2.197  0.4318 -3.9163  0.9559
  128MOL   H22541119   0.277   3.982   2.360 -0.4185  3.0312 -0.1235
  128MOL   C22641120   0.426   3.934   2.196 -0.0367  0.4074 -0.2773
  128MOL   C22741121   0.423   3.961   2.044  0.0824 -0.5430 -0.1478
  128MOL   C22841122   0.524   4.039   1.974  0.5739  0.2186  0.3135
  128MOL  Cl22941123   0.665   4.097   2.068 -0.4620  0.0282 -0.0980
  128MOL   C23041124   0.510   4.070   1.833  0.2396 -0.2056 -0.0604
  128MOL   C23141125   0.397   4.020   1.759 -0.2267 -0.1254  0.1029
  128MOL   C23241126   0.302   3.936   1.826  0.8975 -0.4384 -0.1003
  128MOL   C23341127   0.312   3.908   1.964  1.0449  0.1276  0.4021
  128MOL   C23441128   0.413   3.777   2.220  0.3471 -0.2434 -0.1713
  128MOL   H23541129   0.523   3.967   2.233  0.3330 -1.6179  0.5981
  128MOL   H23641130   0.599   4.107   1.784  0.1906 -0.5479 -0.4209
  128MOL   H23741131   0.393   4.042   1.654  0.0542 -0.8826 -0.0728
  128MOL   H23841132   0.214   3.906   1.771  1.6940 -1.5659 -0.7841
  128MOL   H23941133   0.230   3.849   2.003  0.2721 -0.3419 -1.8885
  128MOL   H24041134   0.443   3.729   2.127 -0.8697  0.6660 -1.0480
  128MOL   H24141135   0.306   3.760   2.232  0.3364  0.3089  0.5429
  128MOL   C24241136   0.496   3.718   2.339 -0.0555  0.2713 -0.6526
  128MOL   C24341137   0.470   3.808   2.460  0.3503  0.3685  0.1509
  128MOL   C24441138   0.356   3.781   2.547 -0.2961 -0.3653 -0.2195
  128MOL  Cl24541139   0.245   3.651   2.527  0.1216  0.0908 -0.0578
  128MOL   C24641140   0.340   3.854   2.664  0.2139  1.0102  0.5598
  128MOL   C24741141   0.437   3.941   2.701  0.0719  0.2800 -0.4580
  128MOL   C24841142   0.542   3.977   2.616  0.6591 -0.2669  0.7543
  128MOL   C24941143   0.552   3.916   2.493 -0.0119 -0.3685  0.2232
  128MOL   C25041144   0.648   3.698   2.316  0.1190  1.2074 -0.6147
  128MOL   H25141145   0.448   3.622   2.358  2.2612 -1.0101 -1.0906
  128MOL   H25241146   0.249   3.841   2.721 -0.4951  1.6597 -0.3919
  128MOL   H25341147   0.438   3.981   2.802  5.1093  1.0578 -0.6989
  128MOL   H25441148   0.612   4.044   2.662  1.1458  1.4058 -2.2533
  128MOL   H25541149   0.639   3.944   2.436 -0.6463 -0.7069 -0.9244
  128MOL   H25641150   0.702   3.696   2.410 -1.5698 -0.4017  0.3426
  128MOL   H25741151   0.697   3.782   2.266  2.5547 -1.7817 -3.4599
  128MOL   C25841152   0.699   3.567   2.247  0.1413 -0.5384 -0.4613
  128MOL   C25941153   0.664   3.560   2.101  0.3313 -0.2807  0.0106
  128MOL   C26041154   0.726   3.639   2.006  0.5312 -0.2152  0.6090
  128MOL  Cl26141155   0.854   3.741   2.048 -0.2551 -0.0002  0.1835
  128MOL   C26241156   0.688   3.635   1.870 -0.5128 -0.0141 -0.3605
  128MOL   C26341157   0.573   3.568   1.822 -0.6262 -0.0233 -0.4902
  128MOL   C26441158   0.499   3.496   1.919 -0.3461  0.4102 -0.6015
  128MOL   C26541159   0.548   3.487   2.054 -0.4641 -0.5577 -0.3728
  128MOL   C26641160   0.671   3.437   2.336  0.6079  0.5856  0.3705
  128MOL   H26741161   0.807   3.571   2.259  0.0149  1.5353  0.2760
  128MOL   H26841162   0.751   3.687   1.800  0.5825  0.5044  0.9632
  128MOL   H26941163   0.540   3.584   1.721  2.2087  1.1714 -1.2754
  128MOL   H27041164   0.411   3.449   1.877 -0.1875 -2.1909  1.8344
  128MOL   H27141165   0.496   3.425   2.125 -1.4556 -0.1699 -0.7536
  128MOL   H27241166   0.564   3.419   2.340  0.7130 -0.5313 -1.0743
  128MOL   H27341167   0.697   3.451   2.440  0.9793 -0.6708  0.4630
  128MOL   C27441168   0.732   3.313   2.284  0.8035  0.8058  0.1191
  128MOL   C27541169   0.662   3.183   2.325 -0.7995 -0.1033  1.0036
  128MOL   C27641170   0.618   3.084   2.230  1.0578 -1.0222 -0.5073
  128MOL  Cl27741171   0.640   3.104   2.058  0.0220 -0.1296 -0.0683
  128MOL   C27841172   0.554   2.966   2.278 -0.1631 -0.2937  0.8932
  128MOL   C27941173   0.528   2.944   2.414  0.4411  0.3465  0.9233
  128MOL   C28041174   0.564   3.041   2.508  0.2233 -0.9282 -0.8472
  128MOL   C28141175   0.635   3.161   2.462  0.7409 -0.0866  0.7852
  128MOL   C28241176   0.889   3.296   2.281  0.2213  0.7827 -0.5828
  128MOL   H28341177   0.713   3.320   2.177 -1.8683  1.7326  0.6092
  128MOL   H28441178   0.532   2.892   2.203 -2.9651 -0.6324  1.9837
  128MOL   H28541179   0.470   2.854   2.428  0.1457  0.1273 -1.3797
  128MOL   H28641180   0.542   3.024   2.613 -0.0664 -0.7842 -0.8849
  128MOL   H28741181   0.671   3.232   2.534  2.2560 -0.0508  0.0215
  128MOL   H28841182   0.923   3.253   2.376 -0.7213  0.8311 -0.2191
  128MOL   H28941183   0.933   3.395   2.272 -0.5535  1.1489 -0.3346
  128MOL   C29041184   0.956   3.219   2.168  0.3854  0.0954  0.8165
  128MOL   C29141185   1.098   3.193   2.213 -0.0463  0.1239 -0.7303
  128MOL   C29241186   1.133   3.059   2.261  0.8934  0.4120  0.2807
  128MOL  Cl29341187   1.021   2.930   2.284  0.2649 -0.3583  0.1738
  128MOL   C29441188   1.261   3.043   2.309  0.2510  0.2554 -0.5821
  128MOL   C29541189   1.363   3.143   2.295  0.0778 -0.2605 -0.1020
  128MOL   C29641190   1.329   3.264   2.226  1.4665  0.3374  0.4613
  128MOL   C29741191   1.191   3.290   2.192  0.1712  0.4420 -0.0198
  128MOL   C29841192   0.939   3.303   2.034 -0.5576  0.7698  0.2639
  128MOL   H29941193   0.905   3.125   2.150 -0.8889  0.6495  1.4628
  128MOL   H30041194   1.297   2.951   2.353 -1.0219 -0.2955 -0.6774
  128MOL   H30141195   1.465   3.120   2.323 -0.4670 -2.6583  0.0756
  128MOL   H30241196   1.398   3.345   2.209 -1.2250  1.9159 -3.6783
  128MOL   H30341197   1.172   3.390   2.155 -0.5092 -0.3945 -1.9709
  128MOL   H30441198   0.991   3.396   2.057  2.3260 -1.2054  2.0889
  128MOL   H30541199   0.833   3.322   2.015 -0.5335  0.1675 -0.4793
  128MOL   C30641200   1.000   3.243   1.900 -0.0904 -0.1920  0.3307
  128MOL   C30741201   0.979   3.340   1.784 -0.5173 -0.3559  0.6616
  128MOL   C30841202   1.052   3.458   1.758 -0.4307 -0.3094 -0.4640
  128MOL  Cl30941203   1.202   3.477   1.845  0.2038  0.3679 -0.3386
  128MOL   C31041204   1.005   3.557   1.665 -0.6637  0.0046  0.4962
  128MOL   C31141205   0.889   3.526   1.589 -0.4435 -0.0583  0.1707
  128MOL   C31241206   0.816   3.408   1.604  0.1915  0.6668  0.1685
  128MOL   C31341207   0.863   3.319   1.704  0.1549  0.5950  0.4255
  128MOL   C31441208   0.950   3.097   1.880 -0.0479 -0.1625  0.0374
  128MOL   H31541209   1.108   3.232   1.894 -0.1451 -0.2006 -0.6591
  128MOL   H31641210   1.066   3.641   1.635  1.4803 -1.0951  1.5916
  128MOL   H31741211   0.842   3.605   1.533  0.1551  1.5133  1.8267
  128MOL   H31841212   0.721   3.400   1.553  0.6062  0.3762 -0.5579
  128MOL   H31941213   0.791   3.238   1.711  1.0030  0.0230  3.2544
  128MOL   H32041214   0.970   3.050   1.784  0.3036 -1.5068  0.7610
  128MOL   H32141215   0.842   3.093   1.894 -0.0927  0.4408 -0.1199
  128MOL   H32241216   1.005   3.041   1.956  1.2588 -0.9381 -1.4743
  129MOL     C141217   6.979   5.043   6.759  0.0859  0.2316  0.6036
  129MOL     C241218   7.081   4.943   6.815 -1.8232 -0.0954  0.2259
  129MOL     C341219   7.213   4.983   6.845 -0.0202  0.5996 -0.2729
  129MOL    Cl441220   7.262   5.154   6.834 -0.1992  0.4083 -0.0958
  129MOL     C541221   7.310   4.890   6.873 -0.1186  0.4081  0.2798
  129MOL     C641222   7.282   4.750   6.871  0.0470 -0.0838 -0.0723
  129MOL     C741223   7.152   4.710   6.835 -0.2499  0.5504  0.0912
  129MOL     C841224   7.056   4.801   6.808  0.0089  0.0826  0.6265
  129MOL     C941225   6.887   4.980   6.646 -0.2224  0.0825 -0.4736
  129MOL    H1041226   6.916   5.076   6.842 -0.9937  1.6640 -0.7709
  129MOL    H1141227   7.410   4.928   6.889  0.2987 -0.6997  0.3298
  129MOL    H1241228   7.361   4.679   6.891  1.1913  0.9945 -0.7175
  129MOL    H1341229   7.132   4.606   6.812 -1.8712  1.2151 -1.5595
  129MOL    H1441230   6.959   4.763   6.781 -1.0194  1.7995  1.8087
  129MOL    H1541231   6.801   4.932   6.693  2.3781 -2.2276  2.0915
  129MOL    H1641232   6.943   4.916   6.578  1.5463  1.4360 -0.3308
  129MOL    H1741233   7.039   5.126   6.722  1.7689 -1.6216 -0.9617
  129MOL    C1841234   6.842   5.088   6.543  0.0103 -0.0237  0.1434
  129MOL    C1941235   6.769   5.208   6.616 -0.0909 -0.2271  0.4908
  129MOL    C2041236   6.635   5.197   6.665  0.0793 -0.3847 -0.9346
  129MOL   Cl2141237   6.541   5.048   6.658 -0.1037 -0.4179  0.1088
  129MOL    C2241238   6.570   5.312   6.727 -0.2340 -0.0702  0.0628
  129MOL    C2341239   6.632   5.439   6.720  0.8099 -0.3639  1.1479
  129MOL    C2441240   6.765   5.447   6.668  0.0839 -0.9004  0.4167
  129MOL    C2541241   6.833   5.336   6.618 -0.3970 -0.4930 -0.0073
  129MOL    C2641242   6.766   5.031   6.415  0.4105 -0.0586  0.0198
  129MOL    H2741243   6.926   5.146   6.505 -0.7780  1.5061  0.7183
  129MOL    H2841244   6.469   5.308   6.763  0.5046  1.3585  2.4227
  129MOL    H2941245   6.576   5.528   6.744  1.1735  0.2897 -0.3465
  129MOL    H3041246   6.803   5.546   6.644  1.1366 -0.8656  2.1143
  129MOL    H3141247   6.932   5.347   6.576  0.1637 -0.7874  1.2151
  129MOL    H3241248   6.666   4.991   6.426  1.3197 -2.2003  0.7440
  129MOL    H3341249   6.811   4.940   6.377 -0.6136 -0.3360 -0.5398
  129MOL    C3441250   6.753   5.129   6.299 -0.1202 -0.0729  0.5978
  129MOL    C3541251   6.618   5.186   6.265  0.0091  0.1703  0.0920
  129MOL    C3641252   6.595   5.323   6.254 -0.4314  0.5985 -0.7491
  129MOL   Cl3741253   6.726   5.432   6.260  0.0201  0.1265 -0.7103
  129MOL    C3841254   6.468   5.372   6.245 -0.1595  0.1645  0.0796
  129MOL    C3941255   6.351   5.293   6.260  0.7899  0.3090 -0.4397
  129MOL    C4041256   6.371   5.157   6.270  0.2642  0.0795 -0.3615
  129MOL    C4141257   6.503   5.104   6.265  0.2690  0.0472  0.1271
  129MOL    C4241258   6.837   5.084   6.173  0.6228  0.2213  0.2194
  129MOL    H4341259   6.820   5.208   6.332 -0.6974 -0.2633  2.2591
  129MOL    H4441260   6.464   5.480   6.239 -1.4286  0.0361 -1.8189
  129MOL    H4541261   6.250   5.332   6.262  0.1624 -1.3228  0.6570
  129MOL    H4641262   6.286   5.092   6.286  0.8403 -0.2622  1.4443
  129MOL    H4741263   6.506   4.997   6.280  2.5235  0.2906  1.6702
  129MOL    H4841264   6.809   5.155   6.095 -0.9777  1.3245  1.7600
  129MOL    H4941265   6.809   4.982   6.146 -0.3239  0.6304 -0.3543
  129MOL    C5041266   6.989   5.080   6.185  0.4569  0.1949 -0.5376
  129MOL    C5141267   7.063   5.210   6.211 -0.4798  0.2379 -0.1269
  129MOL    C5241268   7.149   5.222   6.327 -0.5193 -0.6987 -0.2311
  129MOL   Cl5341269   7.180   5.077   6.418 -0.1309  0.5154  0.5130
  129MOL    C5441270   7.218   5.338   6.360  0.1952  0.2362  0.1615
  129MOL    C5541271   7.204   5.448   6.277 -0.0944  0.0310  0.1404
  129MOL    C5641272   7.122   5.446   6.162 -0.2120 -0.2684 -0.2796
  129MOL    C5741273   7.047   5.326   6.132  0.8901  0.0363 -0.0284
  129MOL    C5841274   7.057   4.998   6.074  0.4127 -0.4436  0.5287
  129MOL    H5941275   7.002   5.019   6.274 -1.1388 -0.4001 -0.6851
  129MOL    H6041276   7.283   5.345   6.446 -1.0100  0.7328  1.0439
  129MOL    H6141277   7.244   5.543   6.308 -0.5135 -0.3262  1.8570
  129MOL    H6241278   7.100   5.537   6.109 -0.5221 -1.0999 -1.6213
  129MOL    H6341279   6.984   5.320   6.045  0.8837  3.6369 -0.3459
  129MOL    H6441280   7.162   5.021   6.055  0.2541 -1.3895 -1.6102
  129MOL    H6541281   7.004   5.039   5.988  0.6653  2.6997  1.7895
  129MOL    C6641282   7.040   4.847   6.082  0.1289  0.5756 -0.1359
  129MOL    C6741283   7.160   4.775   6.148  0.3552  0.2630 -0.6152
  129MOL    C6841284   7.146   4.708   6.274 -0.7888  0.6002  0.2521
  129MOL   Cl6941285   7.001   4.703   6.361 -0.2418  0.0346  0.0976
  129MOL    C7041286   7.257   4.649   6.340  0.6726  0.3660 -0.4484
  129MOL    C7141287   7.378   4.638   6.268  0.3489  0.2717 -0.9632
  129MOL    C7241288   7.394   4.697   6.139 -0.1147 -0.1537  0.7132
  129MOL    C7341289   7.287   4.773   6.084  0.1468  0.2989  0.4584
  129MOL    C7441290   7.020   4.786   5.936 -0.0942 -0.4280  0.6993
  129MOL    H7541291   6.947   4.821   6.131  0.9560 -1.1990  0.5217
  129MOL    H7641292   7.234   4.613   6.439  1.5275  0.2512 -0.2866
  129MOL    H7741293   7.459   4.585   6.316 -0.4368  0.9890  1.2521
  129MOL    H7841294   7.495   4.693   6.101  0.1750  0.4404  1.4037
  129MOL    H7941295   7.298   4.825   5.991 -0.1325  1.4227  1.0483
  129MOL    H8041296   7.017   4.680   5.963 -0.8681 -0.5115  0.2975
  129MOL    H8141297   7.108   4.794   5.872 -1.0343 -1.8475 -0.7961
  129MOL    C8241298   6.895   4.812   5.847 -0.1730 -0.0080 -0.2532
  129MOL    C8341299   6.763   4.808   5.927 -0.7352 -0.5821  0.2628
  129MOL    C8441300   6.653   4.894   5.911  0.3454  0.1264 -0.3031
  129MOL   Cl8541301   6.663   5.021   5.799 -0.4756 -0.7522  0.2493
  129MOL    C8641302   6.532   4.867   5.978 -0.8348 -0.1668  0.7152
  129MOL    C8741303   6.513   4.768   6.076 -0.1978  0.3466  0.5585
  129MOL    C8841304   6.623   4.690   6.102  0.0079  0.6993  0.6417
  129MOL    C8941305   6.745   4.707   6.026 -0.9444  0.4170 -0.0522
  129MOL    C9041306   6.889   4.712   5.726  0.1621  0.5657 -0.6385
  129MOL    H9141307   6.914   4.909   5.802  0.1183  0.4468  0.8488
  129MOL    H9241308   6.451   4.937   5.966  0.9547  2.1563  1.6577
  129MOL    H9341309   6.419   4.753   6.127 -0.9540  0.9320 -0.6259
  129MOL    H9441310   6.601   4.617   6.178 -3.7138  1.6332  0.5736
  129MOL    H9541311   6.826   4.637   6.037 -0.4612  0.5123 -2.6472
  129MOL    H9641312   6.786   4.687   5.703  0.2154 -0.3774  0.1056
  129MOL    H9741313   6.916   4.614   5.767  1.6737  1.4309  0.4667
  129MOL    C9841314   6.950   4.759   5.592  0.1928  0.4653  0.2121
  129MOL    C9941315   6.901   4.890   5.539  0.2331 -0.6449  0.3174
  129MOL   C10041316   6.987   5.001   5.523 -0.6081  0.3371 -0.3941
  129MOL  Cl10141317   7.150   5.010   5.583  0.1925  0.0616 -0.1763
  129MOL   C10241318   6.939   5.112   5.458 -0.0672  0.0921  0.2080
  129MOL   C10341319   6.804   5.124   5.421  0.4501  0.6272 -0.0281
  129MOL   C10441320   6.720   5.014   5.443  0.5525 -0.4274 -0.1662
  129MOL   C10541321   6.764   4.898   5.503  0.5101  0.3219 -0.3355
  129MOL   C10641322   6.928   4.641   5.495  0.8054 -0.0312 -0.5007
  129MOL   H10741323   7.057   4.773   5.610  0.5767 -1.0480 -0.7998
  129MOL   H10841324   7.017   5.182   5.431 -1.0735  0.3955 -2.0121
  129MOL   H10941325   6.764   5.215   5.378 -0.1313  0.7560  0.7699
  129MOL   H11041326   6.616   5.028   5.417  0.8745  1.0225 -0.7386
  129MOL   H11141327   6.707   4.807   5.515  1.5304 -0.0949  1.5978
  129MOL   H11241328   6.826   4.603   5.506  0.6858 -0.1785 -1.9789
  129MOL   H11341329   6.989   4.560   5.534  0.4679 -0.0487 -0.0092
  129MOL   C11441330   6.964   4.657   5.347  0.6846  0.3669  0.1506
  129MOL   C11541331   6.939   4.535   5.264  0.3466  0.8425  0.3004
  129MOL   C11641332   6.860   4.538   5.141 -0.3840 -0.2285  0.3549
  129MOL  Cl11741333   6.773   4.682   5.098  0.1306 -0.0121  0.1382
  129MOL   C11841334   6.843   4.427   5.069 -0.3446  1.0154  0.0223
  129MOL   C11941335   6.910   4.306   5.102 -0.2364  0.0065  0.1276
  129MOL   C12041336   6.984   4.299   5.219  0.3963  0.3696  0.4143
  129MOL   C12141337   7.003   4.413   5.297 -0.2432 -0.1924  1.6857
  129MOL   C12241338   7.113   4.692   5.330  0.3678  0.3731  0.4663
  129MOL   H12341339   6.904   4.741   5.310 -0.6715 -1.1640 -1.2052
  129MOL   H12441340   6.777   4.427   4.983 -0.1084  2.1665 -0.1630
  129MOL   H12541341   6.892   4.219   5.041  1.7036  0.1427 -0.6750
  129MOL   H12641342   7.041   4.208   5.234 -1.4569 -0.9262 -0.3342
  129MOL   H12741343   7.067   4.402   5.382  0.1111 -1.4580  1.2777
  129MOL   H12841344   7.169   4.602   5.356 -0.3117  0.5862  2.8192
  129MOL   H12941345   7.144   4.763   5.407  0.7359  0.9595 -0.2206
  129MOL   C13041346   7.163   4.752   5.198  0.2889  0.1457  0.2407
  129MOL   C13141347   7.315   4.730   5.180 -0.2857  0.4959 -0.0216
  129MOL   C13241348   7.369   4.613   5.118 -0.0110  0.7337  0.6801
  129MOL  Cl13341349   7.267   4.481   5.074 -0.2283  0.2131 -0.0575
  129MOL   C13441350   7.509   4.600   5.103 -0.0536  0.3913  0.5504
  129MOL   C13541351   7.591   4.707   5.142 -0.2660  0.1433  0.5934
  129MOL   C13641352   7.540   4.827   5.201 -0.4998 -0.4280 -0.2124
  129MOL   C13741353   7.403   4.832   5.227  0.8442 -0.4624 -0.1982
  129MOL   C13841354   7.112   4.899   5.188 -0.3029 -0.4419  0.6816
  129MOL   H13941355   7.119   4.683   5.125 -0.9385  2.2533 -1.0751
  129MOL   H14041356   7.566   4.517   5.063 -0.4814  1.1046 -1.5808
  129MOL   H14141357   7.698   4.712   5.128 -0.2564 -0.3298  0.4948
  129MOL   H14241358   7.603   4.911   5.226 -1.7146  0.3810  0.1586
  129MOL   H14341359   7.362   4.917   5.279  1.8674 -1.1711  1.8147
  129MOL   H14441360   7.159   4.962   5.263  0.3970 -0.7444  0.5018
  129MOL   H14541361   7.005   4.905   5.209  0.0340  2.1828  1.8842
  129MOL   C14641362   7.144   4.960   5.057  0.1536  0.3076 -0.1714
  129MOL   C14741363   7.164   5.108   5.072 -0.5871  0.2711  0.1876
  129MOL   C14841364   7.278   5.183   5.022 -0.1403  0.2668  0.3043
  129MOL  Cl14941365   7.410   5.104   4.935 -0.1964 -0.1667  0.0866
  129MOL   C15041366   7.288   5.319   5.048  0.1191 -0.4021  0.1370
  129MOL   C15141367   7.180   5.391   5.104 -0.8183 -0.1044 -0.3108
  129MOL   C15241368   7.068   5.324   5.150 -0.3992  0.1437  0.4003
  129MOL   C15341369   7.063   5.186   5.135 -0.2571  0.3577 -0.5337
  129MOL   C15441370   7.029   4.932   4.960  0.3038  0.0054  0.7587
  129MOL   H15541371   7.235   4.916   5.016 -1.1200 -1.6099 -1.0713
  129MOL   H15641372   7.379   5.368   5.016 -0.7873 -0.8986 -3.3088
  129MOL   H15741373   7.180   5.499   5.106 -0.9590 -0.1150  3.2458
  129MOL   H15841374   6.977   5.367   5.191 -0.9338  0.3560 -0.9751
  129MOL   H15941375   6.972   5.138   5.171 -0.7489  1.1755 -0.6886
  129MOL   H16041376   6.935   4.966   5.004  0.2706 -1.1354  1.5938
  129MOL   H16141377   7.017   4.824   4.954  1.1972  0.0343 -2.0244
  129MOL   C16241378   7.059   4.986   4.816 -0.2738 -0.1358 -0.2960
  129MOL   C16341379   6.939   5.046   4.749  0.6898  0.0094 -0.4328
  129MOL   C16441380   6.924   5.189   4.723 -0.5854  0.0787  0.2457
  129MOL  Cl16541381   7.044   5.308   4.775  0.1349 -0.0855  0.2710
  129MOL   C16641382   6.811   5.238   4.667  0.2308  0.2450 -0.1729
  129MOL   C16741383   6.702   5.154   4.640  0.3091  0.3892 -0.1557
  129MOL   C16841384   6.714   5.015   4.660  0.0698 -0.1624 -0.1586
  129MOL   C16941385   6.829   4.960   4.711 -0.4153 -0.5745  0.9655
  129MOL   C17041386   7.125   4.885   4.726 -0.7229  0.0915  0.9997
  129MOL   H17141387   7.130   5.069   4.818  1.9763 -1.9714 -1.0453
  129MOL   H17241388   6.807   5.344   4.650 -1.8762  0.2841  0.4737
  129MOL   H17341389   6.606   5.185   4.603  0.1676  1.1742  0.8643
  129MOL   H17441390   6.631   4.956   4.624 -1.8669  0.2680  3.2967
  129MOL   H17541391   6.844   4.854   4.717  1.1656 -0.5137 -1.3730
  129MOL   H17641392   7.051   4.827   4.671  1.1883 -1.4012 -0.0702
  129MOL   H17741393   7.170   4.811   4.792  1.6714  0.8241  0.2136
  129MOL   C17841394   7.224   4.933   4.615  0.3449 -0.4787  0.5984
  129MOL   C17941395   7.173   5.049   4.532 -0.1360  0.2698 -0.6626
  129MOL   C18041396   7.253   5.165   4.509 -0.8158 -0.3050 -0.2787
  129MOL  Cl18141397   7.406   5.190   4.587  0.1945  0.4517 -0.2749
  129MOL   C18241398   7.199   5.260   4.424 -0.4876 -1.2043  0.3318
  129MOL   C18341399   7.077   5.243   4.363  0.6146  0.3828  0.0809
  129MOL   C18441400   7.002   5.128   4.382 -0.3968  0.3336 -0.4708
  129MOL   C18541401   7.054   5.029   4.463  0.1440 -0.4246 -0.0893
  129MOL   C18641402   7.265   4.820   4.524 -0.3605 -0.4789 -0.3143
  129MOL   H18741403   7.313   4.967   4.667 -1.0268  1.8289  1.4839
  129MOL   H18841404   7.258   5.349   4.408  0.3614 -2.0008 -1.0443
  129MOL   H18941405   7.030   5.321   4.304 -1.0686 -1.7331 -1.4201
  129MOL   H19041406   6.910   5.116   4.326  0.0280  0.0813 -1.1166
  129MOL   H19141407   6.993   4.940   4.465  2.0565 -1.7282  1.6188
  129MOL   H19241408   7.279   4.861   4.424 -3.2724  2.3685  0.3847
  129MOL   H19341409   7.179   4.753   4.516 -0.2589 -0.7531  0.8292
  129MOL   C19441410   7.396   4.744   4.570 -0.3260 -0.7146  0.3732
  129MOL   C19541411   7.523   4.829   4.560 -0.0912 -0.1225 -0.4717
  129MOL   C19641412   7.615   4.847   4.668  0.0719  0.3123 -0.1890
  129MOL  Cl19741413   7.582   4.807   4.836 -0.1571 -0.3541  0.2692
  129MOL   C19841414   7.749   4.894   4.646 -0.3018 -0.1428  0.0229
  129MOL   C19941415   7.775   4.957   4.525 -0.3241  0.0000 -0.5086
  129MOL   C20041416   7.674   4.970   4.420 -0.1689 -0.1245 -0.0561
  129MOL   C20141417   7.551   4.902   4.441  0.1344  0.5224 -0.1791
  129MOL   C20241418   7.417   4.610   4.496 -0.0200 -0.5503 -0.0596
  129MOL   H20341419   7.395   4.715   4.675 -0.9854 -0.8481  0.3298
  129MOL   H20441420   7.822   4.899   4.725  1.4478 -2.2198 -1.3885
  129MOL   H20541421   7.872   5.000   4.507  1.4775 -2.1435  3.3585
  129MOL   H20641422   7.696   5.020   4.327  1.2517 -1.4045 -0.4351
  129MOL   H20741423   7.479   4.919   4.363 -0.6256 -1.9424 -0.0586
  129MOL   H20841424   7.521   4.599   4.467  0.6559 -0.0313  2.0642
  129MOL   H20941425   7.367   4.626   4.400  0.1847  0.5773  0.0087
  129MOL   C21041426   7.366   4.478   4.569 -0.4790  0.8089  0.0157
  129MOL   C21141427   7.220   4.490   4.586 -0.0989 -0.1399  0.4039
  129MOL   C21241428   7.132   4.454   4.481 -0.6140 -0.1860 -0.1801
  129MOL  Cl21341429   7.184   4.392   4.334 -0.1502  0.1680  0.1629
  129MOL   C21441430   6.994   4.464   4.499 -0.0080  0.3325 -0.2471
  129MOL   C21541431   6.937   4.502   4.621  0.0706 -0.4826  0.5802
  129MOL   C21641432   7.023   4.538   4.725 -0.2279  0.2139 -0.0740
  129MOL   C21741433   7.164   4.532   4.708  0.1267  0.1406 -0.0844
  129MOL   C21841434   7.454   4.446   4.691  0.1117  0.4353 -0.2249
  129MOL   H21941435   7.375   4.395   4.500 -0.2573  1.2291 -0.4609
  129MOL   H22041436   6.929   4.429   4.421 -1.7756  1.8758  0.5067
  129MOL   H22141437   6.830   4.498   4.631 -0.1474  2.6540 -0.0791
  129MOL   H22241438   6.986   4.577   4.818 -3.1163 -0.1134 -1.0505
  129MOL   H22341439   7.220   4.560   4.796  1.0082  0.3239 -0.6931
  129MOL   H22441440   7.436   4.495   4.788  0.1948 -0.4275  0.2293
  129MOL   H22541441   7.554   4.485   4.675 -0.3833  1.7368 -0.3033
  129MOL   C22641442   7.471   4.294   4.721  0.4052 -0.3653 -0.1487
  129MOL   C22741443   7.333   4.218   4.715 -0.6462  0.2966  0.1617
  129MOL   C22841444   7.298   4.140   4.602 -0.1630  0.0261 -0.1324
  129MOL  Cl22941445   7.404   4.110   4.467  0.2237 -0.1855  0.1934
  129MOL   C23041446   7.174   4.071   4.595  0.5089 -0.3328 -0.2513
  129MOL   C23141447   7.087   4.067   4.708 -0.2658  0.3544 -0.8616
  129MOL   C23241448   7.121   4.152   4.818 -0.0262 -0.2119 -0.4517
  129MOL   C23341449   7.232   4.235   4.819 -0.5390 -0.6909  0.0283
  129MOL   C23441450   7.537   4.261   4.856 -0.0340  0.0098  0.2274
  129MOL   H23541451   7.533   4.253   4.641  0.8621 -1.5913  0.8229
  129MOL   H23641452   7.144   4.012   4.510 -2.3948 -0.9465  1.1317
  129MOL   H23741453   6.999   4.005   4.711  0.3240 -0.4897 -0.5807
  129MOL   H23841454   7.058   4.155   4.906 -1.0310  1.0485 -1.2006
  129MOL   H23941455   7.247   4.303   4.902 -0.1964 -0.1195 -0.5039
  129MOL   H24041456   7.472   4.312   4.927 -0.2171 -1.4590  1.1384
  129MOL   H24141457   7.629   4.317   4.869 -1.1142  1.8265  0.1643
  129MOL   C24241458   7.545   4.106   4.894 -1.0164 -0.9848  0.0923
  129MOL   C24341459   7.470   4.079   5.028  0.5190 -0.2211 -0.1369
  129MOL   C24441460   7.377   3.971   5.051 -0.3200  0.7809 -0.3684
  129MOL  Cl24541461   7.343   3.849   4.929  0.0319  0.2556  0.3517
  129MOL   C24641462   7.307   3.961   5.174  0.7031 -0.1121 -0.8792
  129MOL   C24741463   7.332   4.047   5.282 -0.1996  0.4658 -0.0683
  129MOL   C24841464   7.424   4.154   5.259  0.4094  0.5712 -0.3612
  129MOL   C24941465   7.484   4.174   5.135 -0.3130  0.4279  0.2125
  129MOL   C25041466   7.698   4.058   4.901  0.3544  0.2306  0.4193
  129MOL   H25141467   7.488   4.050   4.820 -1.4053  0.0566 -0.4166
  129MOL   H25241468   7.243   3.877   5.196 -2.3922  2.6328  1.1044
  129MOL   H25341469   7.283   4.031   5.377  0.9878  2.3045  0.8789
  129MOL   H25441470   7.443   4.221   5.342 -0.2229  1.7108 -1.1357
  129MOL   H25541471   7.557   4.253   5.125  1.9935 -1.3598  2.1082
  129MOL   H25641472   7.759   4.094   4.984  1.1512  0.6984 -0.3561
  129MOL   H25741473   7.751   4.096   4.814  1.5026 -1.0547  0.5274
  129MOL   C25841474   7.705   3.901   4.903 -0.0711 -0.1424  0.6393
  129MOL   C25941475   7.837   3.862   4.976  0.4641  0.4421 -0.4183
  129MOL   C26041476   7.838   3.780   5.095 -0.3577 -0.1131 -0.3755
  129MOL  Cl26141477   7.684   3.737   5.173 -0.1190 -0.3090 -0.1168
  129MOL   C26241478   7.958   3.732   5.151 -0.0573 -0.2475 -0.5190
  129MOL   C26341479   8.081   3.769   5.089 -0.3251  0.7018 -0.2147
  129MOL   C26441480   8.083   3.851   4.973 -0.5452  0.6653 -0.4580
  129MOL   C26541481   7.961   3.905   4.923 -0.0480 -0.0228 -0.3898
  129MOL   C26641482   7.697   3.855   4.751 -0.4068  0.1886  0.4923
  129MOL   H26741483   7.619   3.867   4.960 -1.2878  0.1919 -0.9584
  129MOL   H26841484   7.954   3.679   5.245 -0.7331  0.8255  0.0698
  129MOL   H26941485   8.175   3.742   5.135  0.3734  0.0145 -2.0040
  129MOL   H27041486   8.176   3.877   4.925  1.0347 -1.1156  1.5523
  129MOL   H27141487   7.959   3.976   4.842 -0.7637 -0.4917 -0.7890
  129MOL   H27241488   7.761   3.905   4.677 -0.7167  0.1763  0.2141
  129MOL   H27341489   7.599   3.885   4.713 -0.2748 -1.5407 -1.3348
  129MOL   C27441490   7.717   3.692   4.730 -0.1498 -0.7493 -0.0837
  129MOL   C27541491   7.685   3.647   4.582 -0.1573 -0.1144 -0.0908
  129MOL   C27641492   7.791   3.616   4.493  0.2211 -0.0870 -0.3240
  129MOL  Cl27741493   7.955   3.630   4.545  0.4079  0.2255 -0.5496
  129MOL   C27841494   7.759   3.584   4.360  0.3968  0.3588 -0.2439
  129MOL   C27941495   7.625   3.571   4.313 -0.1160  0.8452  0.5100
  129MOL   C28041496   7.523   3.601   4.404 -0.4656 -0.3415  0.4778
  129MOL   C28141497   7.551   3.641   4.538  0.1412  0.1422  0.4714
  129MOL   C28241498   7.641   3.602   4.832  0.5756 -0.1301 -0.4795
  129MOL   H28341499   7.824   3.682   4.746 -0.2823  0.3387  1.5649
  129MOL   H28441500   7.842   3.552   4.298  0.2635 -2.5091  1.0003
  129MOL   H28541501   7.605   3.530   4.215 -0.5458  0.4793  0.7502
  129MOL   H28641502   7.419   3.599   4.376 -0.1254  0.5198 -0.9037
  129MOL   H28741503   7.467   3.672   4.597 -1.1861 -0.4207 -1.0720
  129MOL   H28841504   7.533   3.612   4.825  0.5089 -0.0520  0.5478
  129MOL   H28941505   7.668   3.622   4.936 -1.4094 -1.6190  0.3494
  129MOL   C29041506   7.682   3.447   4.828 -0.7119 -1.0914  1.0059
  129MOL   C29141507   7.573   3.362   4.885  0.3616  0.8504  0.3212
  129MOL   C29241508   7.501   3.270   4.802 -0.4148 -0.0713 -0.2382
  129MOL  Cl29341509   7.527   3.261   4.633  0.3872  0.2901  0.0623
  129MOL   C29441510   7.394   3.190   4.853 -0.2307 -0.3080  0.2026
  129MOL   C29541511   7.363   3.208   4.987 -0.2330  0.5223  0.1682
  129MOL   C29641512   7.426   3.298   5.070 -0.1961  0.4101  0.2288
  129MOL   C29741513   7.530   3.370   5.019 -0.0605  0.3563  0.0366
  129MOL   C29841514   7.817   3.429   4.904 -0.4662 -0.3275 -0.1819
  129MOL   H29941515   7.697   3.428   4.722 -1.1566  2.3905  0.2526
  129MOL   H30041516   7.337   3.131   4.784 -0.4376  1.2668 -1.0196
  129MOL   H30141517   7.287   3.143   5.026  1.6502 -1.3248  0.8614
  129MOL   H30241518   7.387   3.320   5.168 -0.0963  2.1627 -0.1091
  129MOL   H30341519   7.574   3.450   5.078 -2.1999  0.3592  1.6630
  129MOL   H30441520   7.794   3.395   5.005  0.4128 -0.9261 -0.1682
  129MOL   H30541521   7.867   3.525   4.919  1.7081 -1.3744 -0.4429
  129MOL   C30641522   7.925   3.346   4.840 -0.2203 -0.0913  0.8620
  129MOL   C30741523   7.876   3.200   4.834 -0.0165 -0.0245 -0.1228
  129MOL   C30841524   7.844   3.136   4.710 -0.2637 -0.0936  0.7269
  129MOL  Cl30941525   7.852   3.219   4.565 -0.3745 -0.0706  0.1272
  129MOL   C31041526   7.794   3.006   4.714  0.1323  0.1309 -0.1264
  129MOL   C31141527   7.775   2.933   4.835 -0.0450  0.4083 -0.1638
  129MOL   C31241528   7.809   2.996   4.957 -0.6694 -0.1345  0.1815
  129MOL   C31341529   7.853   3.131   4.956  0.1919 -0.0193 -0.1509
  129MOL   C31441530   8.066   3.351   4.912  0.2100 -0.5007  0.4625
  129MOL   H31541531   7.943   3.376   4.736 -1.8108 -0.7196  0.3932
  129MOL   H31641532   7.775   2.955   4.620 -2.1080  0.8227 -0.0858
  129MOL   H31741533   7.740   2.831   4.831 -0.4712  0.4701  1.6883
  129MOL   H31841534   7.794   2.932   5.043 -0.0739 -0.4584  0.0472
  129MOL   H31941535   7.869   3.172   5.054 -0.5583 -0.7377  0.2746
  129MOL   H32041536   8.145   3.290   4.869 -0.4191 -2.0184  1.4137
  129MOL   H32141537   8.053   3.315   5.014 -3.6826 -1.6361 -0.3264
  129MOL   H32241538   8.117   3.447   4.919  1.0251 -0.9551  0.7900
  130MOL     C141539   0.990   2.150   6.732 -0.0445  0.3012 -0.7908
  130MOL     C241540   1.021   2.001   6.707  0.2532  0.4025 -0.7571
  130MOL     C341541   0.924   1.910   6.661  0.9362 -0.4846  0.3222
  130MOL    Cl441542   0.764   1.969   6.628  0.2145 -0.0045 -0.0911
  130MOL     C541543   0.951   1.771   6.642  0.2700 -0.7641 -0.0271
  130MOL     C641544   1.083   1.722   6.663  0.0726  0.4271  0.1529
  130MOL     C741545   1.178   1.815   6.713 -0.0730 -0.1155  0.7718
  130MOL     C841546   1.147   1.951   6.731  0.3117  0.6327  0.7969
  130MOL     C941547   0.914   2.167   6.867 -0.1764 -0.7644 -0.0088
  130MOL    H1041548   1.077   2.215   6.730  0.1154  0.0817 -0.9148
  130MOL    H1141549   0.874   1.715   6.592 -1.4545  2.8984 -1.6234
  130MOL    H1241550   1.110   1.621   6.638  0.8784  1.0109 -1.4425
  130MOL    H1341551   1.280   1.783   6.730 -0.4909 -1.5168  0.7049
  130MOL    H1441552   1.210   2.030   6.767  1.3013 -0.7400  2.1088
  130MOL    H1541553   0.977   2.134   6.950  0.7456  1.0634  0.0485
  130MOL    H1641554   0.829   2.100   6.854  0.1724 -0.6621 -2.9761
  130MOL    H1741555   0.927   2.183   6.649 -0.7618  0.2869 -0.2639
  130MOL    C1841556   0.858   2.312   6.880  0.7106  0.4155 -0.5529
  130MOL    C1941557   0.966   2.412   6.911  0.2703  0.7611 -0.3595
  130MOL    C2041558   0.985   2.533   6.836 -0.0043 -0.0361  0.7375
  130MOL   Cl2141559   0.883   2.575   6.700  0.0252 -0.2465 -0.0926
  130MOL    C2241560   1.083   2.631   6.863 -0.1140 -0.1696  0.4960
  130MOL    C2341561   1.170   2.612   6.974 -0.6596  0.0614 -0.0220
  130MOL    C2441562   1.160   2.493   7.049 -0.4253 -0.4036 -0.0466
  130MOL    C2541563   1.067   2.395   7.010  0.0564 -0.1162  0.1651
  130MOL    C2641564   0.745   2.318   6.987 -0.2504  0.4194 -0.1386
  130MOL    H2741565   0.815   2.342   6.785 -1.6264 -1.5729 -0.1620
  130MOL    H2841566   1.084   2.728   6.817  0.2565 -0.6344 -0.4774
  130MOL    H2941567   1.259   2.673   6.983 -0.7376  0.1186  0.3876
  130MOL    H3041568   1.231   2.478   7.129 -1.2636 -1.3744  0.5143
  130MOL    H3141569   1.068   2.314   7.081 -0.8551 -0.2742 -0.0001
  130MOL    H3241570   0.755   2.416   7.034  1.2499  0.0636  0.3174
  130MOL    H3341571   0.773   2.244   7.062  2.3475 -0.7023 -2.1603
  130MOL    C3441572   0.613   2.285   6.924  0.4411  0.4771 -0.8445
  130MOL    C3541573   0.563   2.397   6.834 -0.1475 -0.9109 -0.1413
  130MOL    C3641574   0.509   2.365   6.707 -0.6318  0.7100  0.6063
  130MOL   Cl3741575   0.462   2.200   6.668  0.3981 -0.2807  0.2287
  130MOL    C3841576   0.465   2.467   6.624 -0.1462 -0.1597 -0.0871
  130MOL    C3941577   0.487   2.598   6.655 -0.5323  0.1391 -0.2118
  130MOL    C4041578   0.535   2.636   6.780 -0.3919 -0.3810  0.3104
  130MOL    C4141579   0.584   2.532   6.868 -0.3637  0.7214 -0.2883
  130MOL    C4241580   0.512   2.233   7.029  0.1051 -0.5780 -0.3212
  130MOL    H4341581   0.621   2.200   6.856 -2.9600 -0.1335 -0.5857
  130MOL    H4441582   0.414   2.438   6.533  1.0279 -0.6476 -0.6063
  130MOL    H4541583   0.444   2.674   6.592  2.0441 -0.5374 -2.9041
  130MOL    H4641584   0.541   2.739   6.810 -0.1566 -0.1827 -0.4138
  130MOL    H4741585   0.636   2.563   6.957 -1.3494  0.5128  0.3624
  130MOL    H4841586   0.432   2.307   7.030  0.6390  0.0005 -0.6889
  130MOL    H4941587   0.553   2.236   7.130 -0.1589 -0.5627 -0.2142
  130MOL    C5041588   0.467   2.083   7.005 -0.8497 -0.0636 -0.6997
  130MOL    C5141589   0.345   2.062   7.098  0.1268  0.1360 -0.4856
  130MOL    C5241590   0.216   2.052   7.047 -0.3258  0.8418  0.6408
  130MOL   Cl5341591   0.185   2.039   6.878 -0.3796  0.2069 -0.1335
  130MOL    C5441592   0.112   2.039   7.140 -0.1774  0.0078  0.0288
  130MOL    C5541593   0.126   2.018   7.278 -0.0484  0.3027 -0.3220
  130MOL    C5641594   0.252   2.046   7.325 -0.0161 -0.0196 -0.5769
  130MOL    C5741595   0.362   2.066   7.238  0.0045  0.2366  0.3789
  130MOL    C5841596   0.587   1.985   7.038  0.2146  0.1996 -0.5208
  130MOL    H5941597   0.445   2.054   6.903  0.9767  1.9782 -1.7071
  130MOL    H6041598   0.011   2.030   7.101 -0.3760  0.2014  0.5053
  130MOL    H6141599   0.044   1.989   7.343 -0.0570 -0.9843 -0.8920
  130MOL    H6241600   0.266   2.052   7.432 -0.7659  1.9134 -0.5550
  130MOL    H6341601   0.457   2.086   7.286  1.1815  0.5606 -2.0075
  130MOL    H6441602   0.656   2.013   7.117 -0.0476  0.9813 -0.5630
  130MOL    H6541603   0.644   1.986   6.945  3.3134  3.0950  1.3008
  130MOL    C6641604   0.551   1.840   7.070 -0.0840  0.8668  0.1226
  130MOL    C6741605   0.686   1.769   7.091 -0.7702  0.1453  0.3483
  130MOL    C6841606   0.709   1.708   7.220  0.2441  0.2587 -0.7417
  130MOL   Cl6941607   0.600   1.715   7.361 -0.3264  0.1494 -0.3311
  130MOL    C7041608   0.834   1.642   7.240  0.0208 -0.3803  0.0858
  130MOL    C7141609   0.933   1.628   7.141 -0.5122  0.5433 -0.1804
  130MOL    C7241610   0.909   1.682   7.010  0.3261  0.3623  0.4426
  130MOL    C7341611   0.786   1.749   6.994  0.0884  0.0770 -0.0522
  130MOL    C7441612   0.461   1.769   6.965  0.1672  0.1841  0.0037
  130MOL    H7541613   0.484   1.847   7.157 -0.8439  0.3978 -0.4203
  130MOL    H7641614   0.860   1.604   7.338  1.0740 -0.7213 -0.3183
  130MOL    H7741615   1.013   1.558   7.165 -0.6645  0.6587  0.6593
  130MOL    H7841616   0.965   1.672   6.918 -1.4597  1.1676 -0.7708
  130MOL    H7941617   0.763   1.780   6.893  1.9454  0.1344 -0.4836
  130MOL    H8041618   0.529   1.730   6.889  0.7080 -2.6792  1.8661
  130MOL    H8141619   0.389   1.839   6.923  0.5454  0.2529 -0.5358
  130MOL    C8241620   0.372   1.650   7.007  0.2512  0.2351  0.1575
  130MOL    C8341621   0.325   1.567   6.896 -0.1601  0.5865 -0.3362
  130MOL    C8441622   0.389   1.444   6.866  0.1819  0.0241 -0.3949
  130MOL   Cl8541623   0.520   1.373   6.967 -0.1636  0.5802 -0.2622
  130MOL    C8641624   0.351   1.370   6.753  0.5659 -0.1746 -0.0365
  130MOL    C8741625   0.247   1.422   6.669 -0.0457  0.1890 -0.0776
  130MOL    C8841626   0.176   1.536   6.706 -0.1854 -0.0893 -0.3116
  130MOL    C8941627   0.219   1.607   6.818 -0.2560  0.2359  0.3751
  130MOL    C9041628   0.258   1.697   7.101 -0.2447 -0.0389 -0.0433
  130MOL    H9141629   0.424   1.585   7.078 -1.1073 -0.1217  0.8508
  130MOL    H9241630   0.407   1.283   6.722  0.6876  0.3772 -1.3978
  130MOL    H9341631   0.223   1.392   6.568 -1.9997 -1.7423  0.9370
  130MOL    H9441632   0.102   1.571   6.636  0.0462  0.8411 -0.0941
  130MOL    H9541633   0.160   1.695   6.836 -0.8800 -0.6149  2.6152
  130MOL    H9641634   0.201   1.778   7.055 -1.1025 -0.8590 -0.4586
  130MOL    H9741635   0.304   1.747   7.186 -1.9349 -0.4982  1.1815
  130MOL    C9841636   0.155   1.588   7.156 -0.4613 -0.0234  0.0919
  130MOL    C9941637   0.080   1.643   7.271 -0.3244 -1.1881  0.0094
  130MOL   C10041638   8.362   1.667   7.277 -0.3872 -0.5744  0.6298
  130MOL  Cl10141639   8.266   1.636   7.142  0.7046 -0.1067  0.1485
  130MOL   C10241640   8.299   1.708   7.392 -0.1438 -0.0125  0.6086
  130MOL   C10341641   8.368   1.722   7.513 -0.3475 -0.0458  0.5618
  130MOL   C10441642   0.087   1.710   7.512  0.2603  0.4647 -0.4824
  130MOL   C10541643   0.149   1.671   7.392  0.8163  0.6845 -0.2439
  130MOL   C10641644   0.224   1.451   7.186 -0.7219 -0.0998 -0.0206
  130MOL   H10741645   0.084   1.572   7.075  0.0892  0.4464 -0.4836
  130MOL   H10841646   8.194   1.728   7.381 -0.2161  0.3052  1.8169
  130MOL   H10941647   8.324   1.752   7.607  0.2588 -0.7996  1.0940
  130MOL   H11041648   0.149   1.729   7.599 -0.2760  0.0877 -0.0176
  130MOL   H11141649   0.254   1.649   7.401  1.0698  1.3503 -1.5002
  130MOL   H11241650   0.317   1.470   7.239  0.9957 -1.7780 -2.3328
  130MOL   H11341651   0.252   1.403   7.092  1.7681 -0.2876  0.7833
  130MOL   C11441652   0.162   1.354   7.287  0.4404 -0.5406  0.7127
  130MOL   C11541653   0.262   1.245   7.331 -0.0753  0.1696  0.0431
  130MOL   C11641654   0.316   1.249   7.463  0.0524  0.4543  0.5082
  130MOL  Cl11741655   0.260   1.357   7.591 -0.1508  0.6429 -0.0540
  130MOL   C11841656   0.408   1.152   7.504 -0.2740 -0.0733  0.3831
  130MOL   C11941657   0.458   1.060   7.407  0.5018  0.2904  0.2654
  130MOL   C12041658   0.401   1.061   7.274 -0.3349 -0.4737 -0.1716
  130MOL   C12141659   0.307   1.157   7.235 -0.9798 -0.3980  0.1786
  130MOL   C12241660   0.025   1.295   7.236 -0.6430 -0.4227  0.0998
  130MOL   H12341661   0.132   1.413   7.373  3.0369 -0.6028  1.7140
  130MOL   H12441662   0.460   1.159   7.598 -0.2422 -0.2091  0.3754
  130MOL   H12541663   0.535   0.988   7.429  1.6292  1.1167 -0.8556
  130MOL   H12641664   0.434   0.983   7.207 -2.2570 -0.8813 -0.6677
  130MOL   H12741665   0.270   1.169   7.135 -0.9126  0.9211  0.3009
  130MOL   H12841666   0.051   1.240   7.146  3.2290  0.0665  0.8439
  130MOL   H12941667   8.389   1.383   7.207  2.8921  1.4737 -1.3071
  130MOL   C13041668   8.363   1.214   7.343 -0.0451  1.0937  0.3425
  130MOL   C13141669   8.246   1.141   7.266 -0.4049  0.5429  0.2724
  130MOL   C13241670   8.266   1.010   7.226  1.0254 -0.2016 -0.0545
  130MOL  Cl13341671   8.407   0.915   7.254 -0.3465  0.1591 -0.4133
  130MOL   C13441672   8.155   0.945   7.172 -0.0841  0.0096 -0.5876
  130MOL   C13541673   8.040   1.007   7.148 -0.2000 -0.2025  0.2121
  130MOL   C13641674   8.018   1.142   7.196 -0.0580  0.1711  0.9692
  130MOL   C13741675   8.124   1.207   7.250  0.8346 -0.1888 -0.2942
  130MOL   C13841676   8.333   1.305   7.456  0.8748 -0.3747 -0.1826
  130MOL   H13941677   0.006   1.135   7.384 -1.7477 -0.9706 -0.8289
  130MOL   H14041678   8.169   0.842   7.140 -1.4020 -0.1500 -0.6654
  130MOL   H14141679   7.959   0.942   7.118  1.7616 -2.0474 -1.1618
  130MOL   H14241680   7.920   1.183   7.179 -0.5890 -0.8551  1.5213
  130MOL   H14341681   8.120   1.309   7.285  2.2315  0.8504 -2.9533
  130MOL   H14441682   8.298   1.398   7.411 -0.4831 -0.6586  0.2745
  130MOL   H14541683   0.006   1.332   7.505 -0.5058  0.9824  1.7788
  130MOL   C14641684   8.226   1.268   7.558 -0.4670  0.3514 -0.3745
  130MOL   C14741685   8.198   1.382   7.659  0.4715 -0.6637 -0.2899
  130MOL   C14841686   8.105   1.490   7.642  0.3776  0.5889 -0.4053
  130MOL  Cl14941687   8.026   1.512   7.488 -0.0619  0.0195 -0.0737
  130MOL   C15041688   8.092   1.586   7.739 -0.6849  0.2072 -0.0255
  130MOL   C15141689   8.152   1.578   7.864 -0.5312 -0.0246 -0.7395
  130MOL   C15241690   8.249   1.481   7.879  0.5934 -0.4878 -0.3926
  130MOL   C15341691   8.277   1.387   7.774 -0.3830 -0.3926  0.9900
  130MOL   C15441692   8.255   1.137   7.628 -0.5485 -0.3135  0.5812
  130MOL   H15541693   8.134   1.250   7.502 -0.6382  2.1023 -0.6939
  130MOL   H15641694   8.016   1.662   7.726 -0.9622  0.0161  0.4533
  130MOL   H15741695   8.124   1.653   7.936  1.7075  0.7097 -0.6077
  130MOL   H15841696   8.297   1.468   7.975 -0.6871 -1.0855  0.1849
  130MOL   H15941697   8.348   1.309   7.796  0.3621  0.0693  0.2618
  130MOL   H16041698   8.354   1.152   7.673  1.0078 -0.9100 -2.5243
  130MOL   H16141699   8.274   1.062   7.552 -1.5894  1.3761 -1.3909
  130MOL   C16241700   8.148   1.075   7.732 -0.2157  0.2811  0.3414
  130MOL   C16341701   8.214   0.963   7.807  0.3770 -0.1699 -0.6825
  130MOL   C16441702   8.258   0.970   7.944  0.0497  0.4015  0.1354
  130MOL  Cl16541703   8.225   1.114   8.035  0.2785 -0.0917 -0.2089
  130MOL   C16641704   8.333   0.865   8.006  0.3908 -0.7656 -0.1490
  130MOL   C16741705   8.355   0.741   7.942 -0.0439 -0.3434  0.4045
  130MOL   C16841706   8.328   0.736   7.805  0.5222  0.8119 -0.2511
  130MOL   C16941707   8.259   0.841   7.742  0.1348 -0.0023  0.6188
  130MOL   C17041708   8.021   1.026   7.656  0.0161 -0.1479  0.2316
  130MOL   H17141709   8.136   1.151   7.809 -0.6707  0.9578 -0.3901
  130MOL   H17241710   8.362   0.876   8.109 -2.2328 -0.1252  0.5570
  130MOL   H17341711   8.398   0.659   7.998  1.1905 -0.5422 -0.8154
  130MOL   H17441712   8.345   0.649   7.742 -1.1825  0.7789 -0.6920
  130MOL   H17541713   8.231   0.825   7.638  0.5997 -1.3131  0.6893
  130MOL   H17641714   8.000   0.926   7.696 -0.6532  1.0349  2.9227
  130MOL   H17741715   8.050   1.030   7.551  2.3010  1.3823  0.8765
  130MOL   C17841716   7.889   1.101   7.676  0.2508  0.1981 -0.2818
  130MOL   C17941717   7.845   1.118   7.820 -0.6047  0.1831  0.4359
  130MOL   C18041718   7.818   1.247   7.877 -0.6917  0.3820  0.6136
  130MOL  Cl18141719   7.831   1.399   7.793  0.1320  0.1081 -0.2295
  130MOL   C18241720   7.788   1.258   8.014  0.0509  0.2732 -0.4920
  130MOL   C18341721   7.776   1.143   8.092  0.7728 -0.7829 -0.4930
  130MOL   C18441722   7.825   1.027   8.041  0.0733 -0.2871  0.1813
  130MOL   C18541723   7.852   1.003   7.904 -0.7362  0.6581 -0.1723
  130MOL   C18641724   7.779   1.040   7.600 -0.1954  0.1296  0.2051
  130MOL   H18741725   7.917   1.197   7.633 -1.5304  0.3044 -1.2499
  130MOL   H18841726   7.762   1.356   8.050  1.2961  0.5600 -0.3803
  130MOL   H18941727   7.745   1.146   8.196  1.5894 -3.5707 -0.1045
  130MOL   H19041728   7.829   0.942   8.108 -1.1807 -0.5356 -0.0553
  130MOL   H19141729   7.873   0.902   7.871  0.1218  0.4311  1.0029
  130MOL   H19241730   7.761   0.936   7.629 -0.1472 -0.3349 -1.3811
  130MOL   H19341731   7.790   1.026   7.493 -0.9458 -2.5967  0.4480
  130MOL   C19441732   7.641   1.110   7.608 -0.4374  0.4559  0.1279
  130MOL   C19541733   7.535   1.005   7.575  0.2749  0.0022 -0.2029
  130MOL   C19641734   7.442   0.959   7.674  0.6674  0.2012  0.5901
  130MOL  Cl19741735   7.430   1.041   7.831  0.0091 -0.2151  0.0811
  130MOL   C19841736   7.358   0.850   7.646  0.3842  0.5613  0.6172
  130MOL   C19941737   7.350   0.795   7.516  0.1362 -0.0189 -0.3576
  130MOL   C20041738   7.434   0.845   7.418 -0.1145  0.0209  1.0631
  130MOL   C20141739   7.525   0.951   7.442 -0.3422  0.1350  0.0376
  130MOL   C20241740   7.637   1.231   7.505  0.3680 -0.2417  0.2585
  130MOL   H20341741   7.626   1.140   7.712  3.1249 -1.2583  1.2263
  130MOL   H20441742   7.293   0.798   7.715 -0.3747 -1.4572 -1.5618
  130MOL   H20541743   7.277   0.719   7.494 -0.1460  0.3903 -0.8308
  130MOL   H20641744   7.426   0.796   7.323  0.4767 -0.8977  1.4749
  130MOL   H20741745   7.596   0.990   7.371  1.0478  0.8730  1.7951
  130MOL   H20841746   7.699   1.218   7.417 -0.1211 -1.8451  0.1319
  130MOL   H20941747   7.684   1.312   7.561  0.9394  0.5903 -1.3884
  130MOL   C21041748   7.495   1.278   7.454  0.1961  1.1726  0.1582
  130MOL   C21141749   7.529   1.390   7.351 -0.3038  0.3801  0.0522
  130MOL   C21241750   7.548   1.353   7.212  0.0728  0.0474 -0.2721
  130MOL  Cl21341751   7.507   1.193   7.154 -0.2853 -0.3807 -0.2119
  130MOL   C21441752   7.614   1.443   7.126  0.1179  0.1456  0.0942
  130MOL   C21541753   7.672   1.564   7.172 -0.1998 -0.1157 -0.0511
  130MOL   C21641754   7.652   1.602   7.310 -0.2528  1.2311  0.1799
  130MOL   C21741755   7.586   1.514   7.395 -0.2638 -0.3284 -0.0059
  130MOL   C21841756   7.400   1.320   7.567 -0.1042 -0.1780  0.3802
  130MOL   H21941757   7.443   1.202   7.396  0.7342  0.3291  0.7704
  130MOL   H22041758   7.648   1.405   7.031 -1.1855 -0.2400 -0.2202
  130MOL   H22141759   7.714   1.629   7.097 -0.0696 -0.4735 -0.2868
  130MOL   H22241760   7.699   1.697   7.333  1.3930 -0.1284  2.6501
  130MOL   H22341761   7.588   1.531   7.502 -1.6287 -0.2656  0.0188
  130MOL   H22441762   7.454   1.373   7.645 -0.2199  1.6373 -0.7295
  130MOL   H22541763   7.371   1.229   7.620  2.0455  0.5525  2.8909
  130MOL   C22641764   7.270   1.393   7.524 -0.0594 -0.3294  0.3843
  130MOL   C22741765   7.292   1.545   7.507  0.2017  0.3244  0.7776
  130MOL   C22841766   7.277   1.608   7.376  0.1279  0.2909  0.2113
  130MOL  Cl22941767   7.224   1.506   7.245  0.1518  0.4209 -0.2310
  130MOL   C23041768   7.313   1.745   7.355 -0.1017  0.1781 -0.9321
  130MOL   C23141769   7.325   1.824   7.473 -0.4961 -0.9405 -0.1428
  130MOL   C23241770   7.334   1.761   7.603 -0.2656  0.1437 -0.3771
  130MOL   C23341771   7.316   1.622   7.623 -0.2788 -0.0113 -0.9909
  130MOL   C23441772   7.148   1.368   7.614  0.0251  0.0742 -0.3202
  130MOL   H23541773   7.241   1.348   7.429 -0.7364  0.5834  0.1523
  130MOL   H23641774   7.300   1.793   7.260  1.7895  1.6977 -0.4555
  130MOL   H23741775   7.352   1.928   7.467  0.5601 -1.1167  1.4564
  130MOL   H23841776   7.351   1.826   7.687  1.6748  0.7168 -1.2014
  130MOL   H23941777   7.303   1.590   7.726  0.0621  2.1208 -0.2547
  130MOL   H24041778   7.090   1.460   7.610  0.7809  0.6714  2.0466
  130MOL   H24141779   7.184   1.361   7.716 -0.1138  0.3579 -0.2523
  130MOL   C24241780   7.056   1.248   7.579 -0.6178 -0.3620  0.3980
  130MOL   C24341781   7.011   1.244   7.431 -0.0744  0.8169  0.6710
  130MOL   C24441782   7.042   1.146   7.334 -0.0869  0.1133  0.1833
  130MOL  Cl24541783   7.157   1.016   7.374 -0.2038  0.1928  0.1808
  130MOL   C24641784   6.985   1.150   7.202 -0.7956  0.4398  0.2879
  130MOL   C24741785   6.887   1.245   7.173  0.0882 -0.3026  0.1192
  130MOL   C24841786   6.842   1.332   7.276  0.4794  0.1436 -0.5582
  130MOL   C24941787   6.909   1.334   7.394  0.5467 -0.3039 -0.3581
  130MOL   C25041788   6.943   1.243   7.692 -0.0042  0.4621 -0.1601
  130MOL   H25141789   7.129   1.168   7.595 -0.0794 -0.1352 -0.8674
  130MOL   H25241790   7.006   1.066   7.137 -1.6794 -0.3923  1.0549
  130MOL   H25341791   6.827   1.250   7.084 -1.1479 -1.2457  0.8692
  130MOL   H25441792   6.751   1.388   7.262  0.1945 -0.4431 -1.0776
  130MOL   H25541793   6.874   1.407   7.465  2.8200  1.8163 -1.3075
  130MOL   H25641794   6.887   1.337   7.685  0.0121  0.3982 -1.3284
  130MOL   H25741795   6.997   1.244   7.786  2.0466  0.4038 -1.3190
  130MOL   C25841796   6.851   1.123   7.687  0.1163  0.1535 -0.4056
  130MOL   C25941797   6.724   1.139   7.777 -0.2984 -0.1142 -0.1692
  130MOL   C26041798   6.614   1.223   7.739 -0.2041  0.4107  0.3209
  130MOL  Cl26141799   6.622   1.322   7.597 -0.3519  0.1161  0.3997
  130MOL   C26241800   6.504   1.239   7.824  0.0283 -0.9078 -0.2841
  130MOL   C26341801   6.511   1.182   7.955  0.5915  0.3750  0.6258
  130MOL   C26441802   6.620   1.099   7.993 -0.5325  0.7601 -0.2072
  130MOL   C26541803   6.722   1.080   7.905  0.1310 -0.0228 -0.4355
  130MOL   C26641804   6.922   0.983   7.685  0.1963  0.5811 -1.5927
  130MOL   H26741805   6.808   1.126   7.587  0.7395  1.5248 -0.6553
  130MOL   H26841806   6.412   1.283   7.789  0.1817 -0.3086  0.0594
  130MOL   H26941807   6.426   1.213   8.014 -2.4981 -0.6377 -3.1064
  130MOL   H27041808   6.629   1.060   8.093  0.9052  0.1702 -0.5575
  130MOL   H27141809   6.803   1.015   7.934  0.9893 -0.9153 -4.4936
  130MOL   H27241810   6.973   0.975   7.781 -1.2560 -0.1435 -0.8566
  130MOL   H27341811   6.999   0.983   7.608  0.0600  1.5697 -1.7313
  130MOL   C27441812   6.835   0.855   7.673  0.1613  0.6509  0.3301
  130MOL   C27541813   6.903   0.724   7.724  0.0835  0.3325  0.8201
  130MOL   C27641814   6.846   0.648   7.828  0.1657  0.4510 -0.4394
  130MOL  Cl27741815   6.693   0.675   7.899 -0.2389 -0.2215  0.0696
  130MOL   C27841816   6.922   0.535   7.877 -0.7733  0.1778  0.0969
  130MOL   C27941817   7.052   0.493   7.823  0.4055 -0.1116 -0.5887
  130MOL   C28041818   7.111   0.585   7.725  0.0134  0.2228 -0.1114
  130MOL   C28141819   7.036   0.697   7.672 -0.4856  0.1505  0.2937
  130MOL   C28241820   6.790   0.833   7.527  0.3084 -0.2058 -0.2290
  130MOL   H28341821   6.739   0.869   7.723  0.2959 -1.7165  1.2818
  130MOL   H28441822   6.885   0.474   7.958 -0.2770 -1.6392 -1.0056
  130MOL   H28541823   7.122   0.419   7.858  2.6337  2.4245  0.4511
  130MOL   H28641824   7.214   0.571   7.697 -0.0222 -2.3679  0.9363
  130MOL   H28741825   7.073   0.774   7.606  0.5252 -0.4247  0.1836
  130MOL   H28841826   6.864   0.772   7.476  1.5402 -0.3844  1.7017
  130MOL   H28941827   6.794   0.927   7.472 -1.1383 -0.4213 -0.7252
  130MOL   C29041828   6.647   0.789   7.494 -0.8950  0.0102 -0.1688
  130MOL   C29141829   6.618   0.656   7.558  0.8118 -0.6458 -0.5591
  130MOL   C29241830   6.495   0.642   7.625 -0.5418 -0.1373  0.2982
  130MOL  Cl29341831   6.387   0.779   7.663  0.2832  0.3168 -0.1387
  130MOL   C29441832   6.459   0.509   7.670  0.1860 -0.0680  0.4282
  130MOL   C29541833   6.540   0.396   7.637  0.8337  0.3204  0.0914
  130MOL   C29641834   6.665   0.418   7.577  0.1606  0.2403 -0.3403
  130MOL   C29741835   6.697   0.542   7.530 -0.2860  0.0533  0.3327
  130MOL   C29841836   6.626   0.779   7.338 -0.8603  0.8348  0.4220
  130MOL   H29941837   6.583   0.870   7.529 -1.7421 -1.1358  1.0055
  130MOL   H30041838   6.362   0.492   7.715  0.3175 -0.0805  0.7068
  130MOL   H30141839   6.511   0.297   7.666 -0.9569  0.6341 -0.5875
  130MOL   H30241840   6.735   0.337   7.561  2.4963  1.8169  1.6406
  130MOL   H30341841   6.781   0.559   7.464  1.5781 -2.2923  1.9890
  130MOL   H30441842   6.676   0.688   7.303 -2.7246 -0.8552  1.9941
  130MOL   H30541843   6.663   0.869   7.290  2.8715 -0.1493  1.2731
  130MOL   C30641844   6.477   0.758   7.289  0.0045 -0.1579  0.3633
  130MOL   C30741845   6.468   0.691   7.151  0.6015  0.9558  0.1948
  130MOL   C30841846   6.496   0.554   7.124  0.3762  0.2707  0.0669
  130MOL  Cl30941847   6.554   0.453   7.250  0.0278  0.2049 -0.4649
  130MOL   C31041848   6.501   0.502   6.992 -0.0338 -0.0312  0.1120
  130MOL   C31141849   6.469   0.585   6.885  0.0910 -1.2114 -0.8220
  130MOL   C31241850   6.429   0.717   6.909 -0.5724 -0.5920 -0.4477
  130MOL   C31341851   6.430   0.771   7.036  0.1751 -0.6651 -0.4744
  130MOL   C31441852   6.399   0.889   7.320 -0.3291  0.3120 -0.4296
  130MOL   H31541853   6.428   0.680   7.346  2.1058 -0.2482  2.1399
  130MOL   H31641854   6.544   0.405   6.973 -0.0495  0.1542 -0.8874
  130MOL   H31741855   6.468   0.534   6.790 -0.5140  0.5178 -1.7656
  130MOL   H31841856   6.384   0.777   6.831  1.0562 -0.7177 -1.5162
  130MOL   H31941857   6.397   0.870   7.062 -0.3084 -1.1140  0.6530
  130MOL   H32041858   6.308   0.871   7.264 -0.1473 -1.5827 -0.1594
  130MOL   H32141859   6.444   0.980   7.279  0.2956  1.1678  2.0546
  130MOL   H32241860   6.383   0.898   7.428 -0.2980  1.5674 -0.5165
  131MOL     C141861   2.884   8.063   0.931  0.3935  0.4204 -0.3636
  131MOL     C241862   2.771   8.076   1.033  0.3021  0.5853  0.1102
  131MOL     C341863   2.634   8.068   0.996  0.8498  1.3484  0.1708
  131MOL    Cl441864   2.585   8.080   0.828 -0.2723 -0.0828  0.0073
  131MOL     C541865   2.532   8.079   1.097 -0.3574 -0.2752 -0.1103
  131MOL     C641866   2.574   8.083   1.228  0.2706  0.5163  0.5962
  131MOL     C741867   2.709   8.072   1.267 -0.0718  0.4476 -0.2533
  131MOL     C841868   2.810   8.076   1.171  0.3354  0.5235 -0.7324
  131MOL     C941869   2.971   8.201   0.922  0.5376  0.1457  0.8649
  131MOL    H1041870   2.944   7.980   0.967  0.8926  0.4393 -1.1418
  131MOL    H1141871   2.428   8.083   1.071 -0.0846 -1.7386 -1.5083
  131MOL    H1241872   2.499   8.080   1.306  0.2377  0.0058  0.5487
  131MOL    H1341873   2.724   8.076   1.374  0.0357  1.8294 -0.3148
  131MOL    H1441874   2.913   8.073   1.204  0.8506  0.4481 -2.3032
  131MOL    H1541875   2.985   8.242   1.022  2.3754 -1.5772  1.3430
  131MOL    H1641876   2.910   8.284   0.888  0.2480 -0.1006  0.7812
  131MOL    H1741877   2.849   8.031   0.833  1.9029 -1.0177 -0.4600
  131MOL    C1841878   3.107   8.191   0.844  0.2857  0.0749 -0.5637
  131MOL    C1941879   3.215   8.154   0.947 -0.0709  0.1557  0.5018
  131MOL    C2041880   3.291   8.037   0.941 -0.0493  0.1262  0.0748
  131MOL   Cl2141881   3.272   7.922   0.812  0.2303 -0.0613 -0.0252
  131MOL    C2241882   3.391   8.007   1.034  0.0517 -0.0796 -0.1227
  131MOL    C2341883   3.419   8.098   1.139 -0.5527 -0.4247 -0.2295
  131MOL    C2441884   3.348   8.218   1.143  0.5391 -0.6110  0.4546
  131MOL    C2541885   3.245   8.245   1.051 -0.2820 -0.1358 -0.7369
  131MOL    C2641886   3.129   8.313   0.755  0.3285 -0.1616  0.0358
  131MOL    H2741887   3.092   8.104   0.780  0.0597 -1.5548  1.6374
  131MOL    H2841888   3.452   7.918   1.029 -1.4347 -1.0792 -0.9338
  131MOL    H2941889   3.507   8.094   1.200  0.9270  1.4778 -2.1569
  131MOL    H3041890   3.371   8.289   1.220  0.2815 -0.8955  0.7976
  131MOL    H3141891   3.193   8.340   1.047 -0.6657 -0.3361 -0.6340
  131MOL    H3241892   3.235   8.340   0.757  0.0331  0.9743  0.6208
  131MOL    H3341893   3.089   8.407   0.792  2.1966  1.4536 -1.8830
  131MOL    C3441894   3.093   8.293   0.603  0.1898 -0.4570  0.3375
  131MOL    C3541895   3.167   8.174   0.543  0.1193  0.0212 -0.1331
  131MOL    C3641896   3.101   8.069   0.485  0.4946 -0.4060  0.6564
  131MOL   Cl3741897   2.933   8.059   0.467 -0.0812 -0.3133  0.2068
  131MOL    C3841898   3.169   7.959   0.443 -0.7187 -0.8002 -0.4907
  131MOL    C3941899   3.311   7.959   0.438 -0.0250 -0.2933  0.5090
  131MOL    C4041900   3.381   8.071   0.489  0.2910 -0.4182  0.0230
  131MOL    C4141901   3.306   8.176   0.547  0.6022 -1.0593 -0.0882
  131MOL    C4241902   3.116   0.003   0.524 -0.0374 -0.3408 -0.2833
  131MOL    H4341903   2.984   8.283   0.598  0.3369 -1.6955 -0.7262
  131MOL    H4441904   3.116   7.875   0.400  0.0088 -1.5855  0.1281
  131MOL    H4541905   3.362   7.870   0.405 -0.2508  0.0563 -0.8096
  131MOL    H4641906   3.488   8.065   0.502  0.1872  0.3653  1.4045
  131MOL    H4741907   3.356   8.257   0.598 -1.9415  0.5358 -0.0476
  131MOL    H4841908   3.145   8.386   0.426 -0.7862 -0.8510 -0.3184
  131MOL    H4941909   3.194   0.064   0.570  0.6145 -1.9986  0.8559
  131MOL    C5041910   2.988   0.099   0.524  0.3452  0.3019  0.0020
  131MOL    C5141911   2.876   0.038   0.437 -0.3072 -0.8615 -0.0925
  131MOL    C5241912   2.750   0.017   0.485 -0.0869 -0.1238  0.3944
  131MOL   Cl5341913   2.713   0.050   0.647  0.4066 -0.3136  0.1819
  131MOL    C5441914   2.648   8.378   0.402  0.7983 -0.0142 -0.3119
  131MOL    C5541915   2.675   8.357   0.269  0.5415  0.5948 -0.0370
  131MOL    C5641916   2.799   8.386   0.211  0.6650  0.0540  0.3800
  131MOL    C5741917   2.903   0.021   0.297 -0.7715 -0.1466 -0.6211
  131MOL    C5841918   3.020   0.246   0.479 -0.2450  0.4937 -0.0509
  131MOL    H5941919   2.964   0.108   0.630 -0.2298  0.1371 -0.1131
  131MOL    H6041920   2.551   8.370   0.448  1.2040 -1.9538  0.2340
  131MOL    H6141921   2.592   8.321   0.210  1.7713  0.6470 -1.8282
  131MOL    H6241922   2.796   8.392   0.103  2.4662  2.5118  0.4318
  131MOL    H6341923   2.994   0.054   0.248 -0.8407  0.8223 -0.0913
  131MOL    H6441924   2.931   0.307   0.464 -0.3355 -0.0126 -1.5806
  131MOL    H6541925   3.067   0.242   0.381  0.0092  1.1955  0.0371
  131MOL    C6641926   3.103   0.326   0.582 -0.4322 -0.2061 -0.5342
  131MOL    C6741927   3.061   0.303   0.727 -0.0150 -0.8289  0.3817
  131MOL    C6841928   3.156   0.259   0.822  0.0140  0.0311 -0.1175
  131MOL   Cl6941929   3.325   0.251   0.782 -0.5617 -0.5110 -0.2364
  131MOL    C7041930   3.110   0.235   0.952 -0.2926 -0.8142 -0.3505
  131MOL    C7141931   2.973   0.246   0.991  0.5394 -0.0765 -0.2808
  131MOL    C7241932   2.882   0.293   0.892  0.3612 -0.1557  0.8306
  131MOL    C7341933   2.925   0.335   0.763  0.1901 -0.1390  0.1538
  131MOL    C7441934   3.109   0.477   0.552  0.0239 -0.3716  0.1099
  131MOL    H7541935   3.208   0.297   0.576 -0.8072 -1.5558 -0.6907
  131MOL    H7641936   3.186   0.216   1.026 -0.3416 -1.8292 -0.5590
  131MOL    H7741937   2.936   0.216   1.088  1.2117  0.1293  0.0497
  131MOL    H7841938   2.779   0.311   0.920  0.9750 -0.1410  3.2065
  131MOL    H7941939   2.863   0.390   0.694  0.8722  0.9208  0.3774
  131MOL    H8041940   3.148   0.534   0.636 -1.4163  1.9201 -0.7139
  131MOL    H8141941   3.002   0.496   0.558  0.3454  1.0292  1.6649
  131MOL    C8241942   3.174   0.520   0.415 -0.0439  0.0511 -0.4145
  131MOL    C8341943   3.328   0.520   0.436  0.8842  0.0775 -0.8692
  131MOL    C8441944   3.404   0.408   0.400  0.1848  0.0284 -0.0328
  131MOL   Cl8541945   3.342   0.266   0.329  0.7063  0.2682 -0.1294
  131MOL    C8641946   3.543   0.412   0.412  0.4607 -0.1052 -0.7973
  131MOL    C8741947   3.607   0.514   0.484  0.6122  0.7751  0.1392
  131MOL    C8841948   3.532   0.621   0.537  0.0968 -0.3374 -0.1224
  131MOL    C8941949   3.391   0.626   0.511 -0.2526  0.0208  0.3472
  131MOL    C9041950   3.129   0.654   0.362 -0.0656 -0.6710  0.5674
  131MOL    H9141951   3.144   0.440   0.347  2.6898 -0.4130 -1.1467
  131MOL    H9241952   3.590   0.323   0.372 -2.7235 -2.6921  0.8946
  131MOL    H9341953   3.715   0.523   0.484  0.8707 -1.7899  1.4560
  131MOL    H9441954   3.580   0.705   0.586 -1.2229 -0.0933  0.7835
  131MOL    H9541955   3.346   0.714   0.555  0.3969 -1.2241  3.5870
  131MOL    H9641956   3.193   0.671   0.276 -1.6605 -0.4477 -0.6043
  131MOL    H9741957   3.148   0.738   0.429 -0.4613 -0.2347  0.1327
  131MOL    C9841958   2.982   0.657   0.316  0.5318 -0.0031  0.7781
  131MOL    C9941959   2.939   0.545   0.224  0.3342  0.3718 -0.0283
  131MOL   C10041960   2.820   0.474   0.248  0.0287 -0.1569  1.0066
  131MOL  Cl10141961   2.718   0.515   0.378  0.0024 -0.5627 -0.2008
  131MOL   C10241962   2.786   0.367   0.165  0.6938  0.1059 -0.2647
  131MOL   C10341963   2.873   0.328   0.058 -0.1860  0.1591  0.0341
  131MOL   C10441964   2.981   0.408   0.025  0.0230  0.7550  0.3951
  131MOL   C10541965   3.020   0.505   0.116 -0.6830 -0.5249 -0.5446
  131MOL   C10641966   2.953   0.792   0.243 -0.5336 -0.2303 -0.5808
  131MOL   H10741967   2.926   0.658   0.410  0.0718  0.3103  0.4989
  131MOL   H10841968   2.707   0.300   0.198 -1.5487  2.4458 -0.7686
  131MOL   H10941969   2.843   0.264   8.397  0.6545  0.4851 -0.5285
  131MOL   H11041970   3.037   0.395   8.355  0.5062 -1.1568  0.9577
  131MOL   H11141971   3.110   0.559   0.092  0.2806 -2.7799 -2.1640
  131MOL   H11241972   2.852   0.776   0.204 -1.7641  0.7068  2.1036
  131MOL   H11341973   3.017   0.813   0.158  1.9635 -1.2396  0.9757
  131MOL   C11441974   2.947   0.916   0.332  0.1974  0.7769  0.0199
  131MOL   C11541975   2.802   0.942   0.364 -0.5255 -0.9953  0.2959
  131MOL   C11641976   2.749   0.889   0.483  0.6778 -0.4930  0.2587
  131MOL  Cl11741977   2.856   0.806   0.596  0.3411  0.5488 -0.1248
  131MOL   C11841978   2.611   0.901   0.517  0.4721  0.1069 -0.0706
  131MOL   C11941979   2.525   0.974   0.433  0.8712  0.4254  0.4949
  131MOL   C12041980   2.581   1.025   0.316  0.1128 -0.4782  0.9890
  131MOL   C12141981   2.716   1.011   0.278 -0.1828 -0.0441 -0.0191
  131MOL   C12241982   3.025   1.032   0.264 -0.5629 -0.9242 -0.2871
  131MOL   H12341983   3.003   0.901   0.424 -0.6878 -0.5005  0.3716
  131MOL   H12441984   2.577   0.859   0.610 -0.1636 -1.5170 -1.0280
  131MOL   H12541985   2.423   0.985   0.467  0.1652 -2.2858 -0.6356
  131MOL   H12641986   2.524   1.082   0.244 -0.9345 -1.0978  1.3270
  131MOL   H12741987   2.754   1.043   0.182  1.9764 -0.7833  0.5743
  131MOL   H12841988   2.976   1.073   0.175  0.6403  0.3098 -0.4006
  131MOL   H12941989   3.120   0.990   0.230  0.1182 -0.5451  1.1225
  131MOL   C13041990   3.054   1.154   0.354 -0.3185 -0.3454  0.3891
  131MOL   C13141991   2.923   1.237   0.374  0.6333  0.7783  1.0706
  131MOL   C13241992   2.847   1.228   0.490  0.3055 -0.1147 -0.4534
  131MOL  Cl13341993   2.910   1.159   0.631  0.6623 -0.0522  0.2032
  131MOL   C13441994   2.718   1.288   0.494 -0.1554 -0.0050 -0.3139
  131MOL   C13541995   2.675   1.372   0.389 -0.4449 -0.3633  0.0092
  131MOL   C13641996   2.752   1.391   0.275 -0.1096 -0.7035  0.3986
  131MOL   C13741997   2.876   1.320   0.270 -0.3056 -0.2983 -0.7478
  131MOL   C13841998   3.174   1.242   0.311  0.4129  0.0081  0.2859
  131MOL   H13941999   3.076   1.117   0.454 -0.7678 -0.2431  0.5301
  131MOL   H14042000   2.665   1.281   0.587  0.6142 -0.5257  0.0985
  131MOL   H14142001   2.588   1.436   0.390  0.3512  0.7706 -0.7024
  131MOL   H14242002   2.717   1.464   0.204  0.0958 -0.1814  0.8331
  131MOL   H14342003   2.927   1.326   0.175  0.5410 -0.2139 -0.2922
  131MOL   H14442004   3.177   1.342   0.354  2.2258  0.5956 -1.1686
  131MOL   H14542005   3.159   1.249   0.204 -0.1028 -1.3844  0.2544
  131MOL   C14642006   3.319   1.192   0.335 -0.2667  0.4815  0.0211
  131MOL   C14742007   3.368   1.226   0.471  0.2569 -0.6065  0.2797
  131MOL   C14842008   3.365   1.141   0.582  0.2277  0.5201  0.0239
  131MOL  Cl14942009   3.319   0.978   0.574  0.0884  0.0268 -0.4443
  131MOL   C15042010   3.415   1.181   0.708 -0.1030  0.4437  0.1548
  131MOL   C15142011   3.468   1.311   0.725 -0.0892  0.3353  0.2785
  131MOL   C15242012   3.466   1.410   0.626  0.6416 -0.5712  0.4379
  131MOL   C15342013   3.403   1.365   0.504 -0.9459 -0.4792  0.3012
  131MOL   C15442014   3.413   1.234   0.221 -0.0018  0.0228 -0.8248
  131MOL   H15542015   3.318   1.083   0.341  0.1827  0.5548  1.7702
  131MOL   H15642016   3.421   1.102   0.781  0.1639 -0.8171 -1.2016
  131MOL   H15742017   3.504   1.328   0.825  0.8358  0.5841 -0.0983
  131MOL   H15842018   3.495   1.513   0.637 -1.6024 -0.1306  2.4597
  131MOL   H15942019   3.398   1.435   0.422  0.0695 -0.2579  0.4246
  131MOL   H16042020   3.515   1.218   0.254 -0.8502 -1.1949  1.3320
  131MOL   H16142021   3.407   1.341   0.202  0.2947  0.3012  0.6276
  131MOL   C16242022   3.388   1.154   0.087  0.3485  0.1973 -0.2879
  131MOL   C16342023   3.412   1.006   0.103  0.0835 -0.2036  0.4206
  131MOL   C16442024   3.322   0.908   0.049 -0.3041 -0.3289 -0.3590
  131MOL  Cl16542025   3.199   0.951   8.360 -0.1740  0.1222  0.3837
  131MOL   C16642026   3.352   0.774   0.059 -0.7496  0.0612 -0.0841
  131MOL   C16742027   3.458   0.728   0.138  0.3938  0.6592 -0.4193
  131MOL   C16842028   3.551   0.819   0.187 -0.6446  0.1761  0.6332
  131MOL   C16942029   3.527   0.955   0.173 -0.1750  0.6998  0.3833
  131MOL   C17042030   3.471   1.211   8.402 -0.2268 -0.5746 -0.1195
  131MOL   H17142031   3.285   1.172   0.056  0.5678  0.8466 -0.6603
  131MOL   H17242032   3.286   0.694   0.028  0.2706 -0.5662 -0.6683
  131MOL   H17342033   3.476   0.623   0.153  0.1253  0.5258 -1.0480
  131MOL   H17442034   3.645   0.789   0.230 -0.5231 -1.2932 -0.6129
  131MOL   H17542035   3.597   1.020   0.224  0.0135  0.1739  0.8007
  131MOL   H17642036   3.456   1.148   8.314  3.5835 -0.9257 -0.5737
  131MOL   H17742037   3.578   1.202   8.420  0.1124  0.9119 -1.2912
  131MOL   C17842038   3.445   1.358   8.355  0.5855  0.2425  0.3672
  131MOL   C17942039   3.297   1.383   8.326  0.1529 -0.7421 -0.1566
  131MOL   C18042040   3.226   1.492   8.384 -0.2552  0.0608  0.4927
  131MOL  Cl18142041   3.304   1.591   0.088 -0.0720  0.1271  0.1226
  131MOL   C18242042   3.098   1.522   8.339 -0.1645 -0.1169 -0.1885
  131MOL   C18342043   3.043   1.444   8.244  0.0910 -0.1638 -0.2933
  131MOL   C18442044   3.107   1.335   8.186 -0.3597 -0.2690  0.3145
  131MOL   C18542045   3.238   1.305   8.227 -0.1371  0.3004 -0.1347
  131MOL   C18642046   3.536   1.383   8.225  0.4472 -0.0173  0.8660
  131MOL   H18742047   3.483   1.426   0.011  0.7778  0.0595  0.4351
  131MOL   H18842048   3.045   1.610   8.372  0.2364 -0.6103  1.8396
  131MOL   H18942049   2.946   1.468   8.203  0.1371  0.8843  0.1847
  131MOL   H19042050   3.062   1.275   8.109  1.6146 -1.3455 -0.0171
  131MOL   H19142051   3.281   1.214   8.187 -1.3827 -0.3857  0.0490
  131MOL   H19242052   3.486   1.451   8.156 -0.5447 -0.3111  1.2838
  131MOL   H19342053   3.545   1.287   8.173 -1.2551  1.0030 -1.3886
  131MOL   C19442054   3.676   1.444   8.247 -0.0955  0.5904 -0.3588
  131MOL   C19542055   3.658   1.592   8.292 -0.4822  0.2876 -0.2166
  131MOL   C19642056   3.672   1.626   0.010 -0.0738 -0.1789 -0.2814
  131MOL  Cl19742057   3.700   1.507   0.133  0.1497 -0.2138  0.0348
  131MOL   C19842058   3.660   1.756   0.057  0.4082  0.8330  0.7075
  131MOL   C19942059   3.619   1.847   8.388  0.4305 -0.8334 -0.1763
  131MOL   C20042060   3.602   1.821   8.256 -0.0830  0.2519 -0.3252
  131MOL   C20142061   3.624   1.695   8.199 -0.9660  0.2014 -0.8290
  131MOL   C20242062   3.765   1.428   8.126  0.1268  0.6315  0.2182
  131MOL   H20342063   3.732   1.397   8.327  0.5766  1.6267 -0.2155
  131MOL   H20442064   3.663   1.778   0.162  0.7923  2.3731  0.3912
  131MOL   H20542065   3.610   1.951   8.418  1.5783 -0.3936 -1.3133
  131MOL   H20642066   3.566   1.892   8.184  1.2104  1.2367 -0.0155
  131MOL   H20742067   3.607   1.674   8.094 -1.3349  1.9390 -1.1464
  131MOL   H20842068   3.846   1.500   8.142  0.1738  0.3336  1.3287
  131MOL   H20942069   3.718   1.467   8.036  0.7273  1.3389  0.2059
  131MOL   C21042070   3.814   1.289   8.096  0.3340  0.4207 -1.0012
  131MOL   C21142071   3.835   1.202   8.219  0.2524  0.0262 -0.6062
  131MOL   C21242072   3.771   1.079   8.243  0.1464 -0.7955 -0.5191
  131MOL  Cl21342073   3.641   1.025   8.155  0.0621  0.2460  0.0414
  131MOL   C21442074   3.817   0.996   8.347  0.4885 -1.8443 -0.0419
  131MOL   C21542075   3.923   1.036   0.009 -0.5155 -0.1646 -0.6908
  131MOL   C21642076   3.995   1.154   8.400  0.2199  0.4498  0.3532
  131MOL   C21742077   3.951   1.233   8.300  0.5740 -0.3922 -0.5955
  131MOL   C21842078   3.936   1.288   8.006 -0.0115 -0.0607 -0.1954
  131MOL   H21942079   3.733   1.242   8.040  0.1193 -2.2009  1.3776
  131MOL   H22042080   3.772   0.902   8.373  0.3809 -1.2623  1.9421
  131MOL   H22142081   3.957   0.981   0.095 -1.1091  1.6227  0.7163
  131MOL   H22242082   4.086   1.183   0.029  0.3471  1.3157 -0.3757
  131MOL   H22342083   4.010   1.323   8.293  1.8785 -1.3963 -3.9947
  131MOL   H22442084   3.980   1.189   8.018 -0.7180 -0.6006 -1.9242
  131MOL   H22542085   4.004   1.359   8.051  0.7080 -0.5582 -0.4955
  131MOL   C22642086   3.908   1.328   7.861 -0.8549  0.1444  0.2426
  131MOL   C22742087   3.797   1.245   7.793 -0.1548  0.2432 -0.4437
  131MOL   C22842088   3.702   1.312   7.712 -0.1497 -0.9576  0.3789
  131MOL  Cl22942089   3.700   1.486   7.700  0.2258 -0.4758  0.1664
  131MOL   C23042090   3.601   1.238   7.641 -0.1464  0.3974 -0.1434
  131MOL   C23142091   3.610   1.097   7.645  0.8573  0.1949  0.3815
  131MOL   C23242092   3.705   1.030   7.720 -0.0400 -0.4792  0.4919
  131MOL   C23342093   3.799   1.103   7.800 -0.1315  0.3185 -0.6824
  131MOL   C23442094   4.038   1.317   7.771 -0.1130  0.1597  0.1973
  131MOL   H23542095   3.873   1.430   7.872 -0.3441  0.3318  0.1511
  131MOL   H23642096   3.528   1.297   7.587  0.4443  0.8537 -0.4580
  131MOL   H23742097   3.537   1.041   7.589  0.6041 -0.2597  1.1547
  131MOL   H23842098   3.701   0.922   7.720 -0.5225 -0.5035 -1.8005
  131MOL   H23942099   3.878   1.053   7.855 -1.8631 -1.5715  0.1141
  131MOL   H24042100   3.999   1.315   7.670 -1.5329 -0.3292  0.7458
  131MOL   H24142101   4.078   1.216   7.781  0.5409  0.0862 -2.9336
  131MOL   C24242102   4.146   1.422   7.807 -0.1452 -0.6532 -0.6610
  131MOL   C24342103   4.104   1.563   7.747 -0.4125 -0.2496 -0.7681
  131MOL   C24442104   4.101   1.676   7.827 -0.0456 -0.0498 -0.4929
  131MOL  Cl24542105   4.143   1.658   7.996  0.0671 -0.4694  0.0530
  131MOL   C24642106   4.052   1.798   7.775  0.3380 -0.1145  0.7140
  131MOL   C24742107   4.003   1.807   7.643  0.1229  0.3587 -0.4245
  131MOL   C24842108   4.029   1.701   7.560  0.1683 -0.3772  0.4554
  131MOL   C24942109   4.060   1.575   7.610 -0.1852 -0.0936 -0.1355
  131MOL   C25042110   4.289   1.390   7.761  0.2404 -0.2377  0.0151
  131MOL   H25142111   4.150   1.417   7.916 -2.3305  2.0449 -0.4080
  131MOL   H25242112   4.038   1.886   7.837  2.5895  0.3579  0.5821
  131MOL   H25342113   3.944   1.894   7.620  1.8773  1.1620 -1.9993
  131MOL   H25442114   3.989   1.713   7.460 -1.5412 -0.6373  1.0747
  131MOL   H25542115   4.076   1.483   7.555  1.2384  0.7727 -1.2135
  131MOL   H25642116   4.346   1.480   7.784  0.1284 -0.4826  1.2593
  131MOL   H25742117   4.288   1.386   7.652  0.1722 -0.6875  0.0352
  131MOL   C25842118   4.357   1.262   7.816  0.0371 -0.0806  0.0813
  131MOL   C25942119   4.348   1.253   7.971  0.6881 -0.5143 -0.6241
  131MOL   C26042120   4.316   1.130   8.031  0.0225  0.3278 -0.5710
  131MOL  Cl26142121   4.327   0.985   7.940  0.3874  0.1788 -0.0306
  131MOL   C26242122   4.282   1.122   8.166 -0.0998 -0.6061  0.5901
  131MOL   C26342123   4.288   1.235   8.249 -0.1618 -0.3915  0.1231
  131MOL   C26442124   4.319   1.357   8.189 -0.5477 -0.5895  0.1773
  131MOL   C26542125   4.350   1.369   8.053  0.1038 -0.5471  0.1640
  131MOL   C26642126   4.501   1.231   7.761  1.0341  0.2244 -0.9315
  131MOL   H26742127   4.296   1.186   7.767  2.0828 -1.3930 -0.5191
  131MOL   H26842128   4.255   1.024   8.200  0.9436 -1.0715  0.0988
  131MOL   H26942129   4.275   1.220   8.355  1.6043  0.4356  0.4784
  131MOL   H27042130   4.311   1.445   8.251  0.7845 -0.6720  0.4956
  131MOL   H27142131   4.365   1.468   8.013 -1.3359 -0.1152  0.6800
  131MOL   H27242132   4.535   1.144   7.819 -0.6064 -0.3629 -0.8103
  131MOL   H27342133   4.575   1.298   7.805 -0.4008  0.3525  1.3974
  131MOL   C27442134   4.518   1.227   7.606  0.3216 -0.3241  0.3392
  131MOL   C27542135   4.414   1.137   7.539 -0.1843  0.3451  0.1855
  131MOL   C27642136   4.351   1.176   7.421 -0.7850  0.1094  0.4741
  131MOL  Cl27742137   4.401   1.319   7.340  0.2769 -0.5852  0.2645
  131MOL   C27842138   4.256   1.093   7.355  0.1972 -0.4345 -0.0249
  131MOL   C27942139   4.230   0.974   7.417 -0.0953  0.2336 -0.8364
  131MOL   C28042140   4.288   0.933   7.532  0.6370  0.2926 -0.2470
  131MOL   C28142141   4.389   1.006   7.590  0.5195  0.4322  1.4083
  131MOL   C28242142   4.651   1.175   7.564  0.3961  0.3024 -0.6846
  131MOL   H28342143   4.498   1.325   7.563 -2.9185 -0.6431  1.0141
  131MOL   H28442144   4.220   1.136   7.263  0.1668  2.0974  1.1030
  131MOL   H28542145   4.162   0.903   7.372 -1.5954  0.8801  0.3676
  131MOL   H28642146   4.259   0.838   7.575  0.8670 -0.3926 -1.5725
  131MOL   H28742147   4.443   0.963   7.673  1.8074 -0.5290  0.1012
  131MOL   H28842148   4.643   1.166   7.455 -2.2206 -0.4981 -0.4593
  131MOL   H28942149   4.661   1.071   7.595  2.7879  0.3008 -1.3983
  131MOL   C29042150   4.780   1.241   7.585 -0.3032 -0.7472 -0.0639
  131MOL   C29142151   4.795   1.390   7.545 -0.1477  0.0884 -0.0234
  131MOL   C29242152   4.868   1.485   7.623 -0.2385 -0.4610  0.6811
  131MOL  Cl29342153   4.957   1.449   7.773 -0.1081 -0.0301 -0.2821
  131MOL   C29442154   4.875   1.622   7.575  0.7177  0.2651 -0.0292
  131MOL   C29542155   4.798   1.653   7.458  0.1449 -0.2737  0.6346
  131MOL   C29642156   4.721   1.559   7.384 -0.0162 -0.7482  0.7559
  131MOL   C29742157   4.716   1.431   7.436 -0.2043  0.1572  0.0148
  131MOL   C29842158   4.894   1.157   7.525  0.3604  0.1131 -0.3830
  131MOL   H29942159   4.799   1.238   7.693  0.8500  0.7778 -0.2072
  131MOL   H30042160   4.925   1.704   7.625 -1.5328  2.8082 -1.7934
  131MOL   H30142161   4.799   1.752   7.416  0.3049 -0.5159  0.0699
  131MOL   H30242162   4.670   1.576   7.290  1.1934 -0.3202  0.1753
  131MOL   H30342163   4.655   1.356   7.388 -0.6009  0.2799  0.3242
  131MOL   H30442164   4.985   1.215   7.530 -0.1485  0.7781  1.8387
  131MOL   H30542165   4.884   1.143   7.418  1.4641  2.8454 -0.8689
  131MOL   C30642166   4.922   1.013   7.579 -0.3721 -0.0304  0.1050
  131MOL   C30742167   4.902   1.006   7.733 -0.4308  0.2319  0.4641
  131MOL   C30842168   4.798   0.926   7.788 -0.5852  0.5134  0.6062
  131MOL  Cl30942169   4.723   0.805   7.695  0.5667  0.1776  0.2576
  131MOL   C31042170   4.753   0.948   7.918  0.7221  0.3167  1.0186
  131MOL   C31142171   4.818   1.035   8.004 -0.2576 -0.1566 -0.4493
  131MOL   C31242172   4.931   1.104   7.955  0.3234 -0.2240 -0.4288
  131MOL   C31342173   4.967   1.096   7.822 -0.1989 -0.3505 -0.2621
  131MOL   C31442174   5.066   0.960   7.536 -0.3790  0.0582  0.1362
  131MOL   H31542175   4.849   0.945   7.535 -2.6431  1.3430  1.6498
  131MOL   H31642176   4.667   0.890   7.949  0.6445  0.2974  0.7693
  131MOL   H31742177   4.792   1.045   8.108  0.0362  1.3790 -0.5143
  131MOL   H31842178   4.976   1.174   8.024  1.9771 -1.0058 -0.6770
  131MOL   H31942179   5.049   1.151   7.780 -0.5654  0.9158  0.6522
  131MOL   H32042180   5.130   1.036   7.582  0.3147  0.7531 -1.9198
  131MOL   H32142181   5.082   0.949   7.429 -1.2186  0.8144 -0.0682
  131MOL   H32242182   5.074   0.858   7.574 -3.0573  0.5760  2.2713
  132MOL     C142183   2.712   4.907   1.954 -0.1862  0.0521 -0.2900
  132MOL     C242184   2.674   5.018   1.851 -0.3207 -0.0629 -0.5201
  132MOL     C342185   2.628   5.140   1.905  0.4083  0.0647 -0.2934
  132MOL    Cl442186   2.615   5.161   2.077 -0.1613 -0.0150 -0.0315
  132MOL     C542187   2.574   5.237   1.819  0.4101 -0.1265 -0.4918
  132MOL     C642188   2.575   5.212   1.682 -0.9362 -0.1807 -0.0223
  132MOL     C742189   2.633   5.092   1.631 -0.6239 -0.1904  0.6813
  132MOL     C842190   2.690   4.992   1.715 -0.7455 -0.5395 -0.2306
  132MOL     C942191   2.600   4.800   1.960 -0.2355 -0.4468 -0.4503
  132MOL    H1042192   2.804   4.857   1.924 -1.3028 -2.3477  0.2100
  132MOL    H1142193   2.527   5.323   1.866 -1.0110 -1.2902  0.2801
  132MOL    H1242194   2.528   5.282   1.615  0.2791  0.2734 -0.4143
  132MOL    H1342195   2.645   5.090   1.524 -0.4459  0.4037  0.6886
  132MOL    H1442196   2.740   4.904   1.677  0.5361 -0.1198  0.4392
  132MOL    H1542197   2.581   4.769   1.857 -0.8668 -0.9023 -0.2045
  132MOL    H1642198   2.512   4.847   2.003 -0.9565 -2.3695  0.2160
  132MOL    H1742199   2.747   4.939   2.052  2.2253  0.5861 -1.2839
  132MOL    C1842200   2.645   4.671   2.043  0.0592 -0.1297  0.1148
  132MOL    C1942201   2.553   4.556   2.007  0.0757  0.2851  0.7191
  132MOL    C2042202   2.600   4.460   1.920 -0.1192 -0.3273 -0.0401
  132MOL   Cl2142203   2.759   4.469   1.846 -0.3260 -0.5000  0.2121
  132MOL    C2242204   2.513   4.362   1.875  0.5246 -0.6873  0.3763
  132MOL    C2342205   2.379   4.357   1.920  0.0455  0.0498 -0.1390
  132MOL    C2442206   2.334   4.438   2.023 -0.2833  0.1150  0.2969
  132MOL    C2542207   2.420   4.542   2.064  0.4697 -0.1227 -0.6762
  132MOL    C2642208   2.639   4.697   2.198  0.3168  0.1056  0.6447
  132MOL    H2742209   2.749   4.647   2.024  0.8089  3.8423 -1.2264
  132MOL    H2842210   2.546   4.297   1.795 -0.2236 -1.4947  0.7072
  132MOL    H2942211   2.312   4.285   1.875 -0.2522 -0.6518  1.3639
  132MOL    H3042212   2.237   4.425   2.070 -0.5280 -1.2463 -0.5545
  132MOL    H3142213   2.388   4.616   2.136  0.3524 -0.7201 -0.1082
  132MOL    H3242214   2.542   4.742   2.217 -0.5791 -1.6645  0.3303
  132MOL    H3342215   2.716   4.769   2.227 -0.2772  2.1298 -2.5433
  132MOL    C3442216   2.671   4.563   2.279 -0.2353 -0.1725 -0.3295
  132MOL    C3542217   2.644   4.587   2.431  0.9237  0.2294 -0.6735
  132MOL    C3642218   2.523   4.535   2.486  0.2060  0.0606 -0.2740
  132MOL   Cl3742219   2.402   4.462   2.389  0.2565  0.1702  0.3278
  132MOL    C3842220   2.494   4.555   2.621  0.4268 -0.6441 -0.0074
  132MOL    C3942221   2.579   4.634   2.701  0.2491 -0.0608  0.2983
  132MOL    C4042222   2.697   4.692   2.648  0.0082 -0.1672 -0.0890
  132MOL    C4142223   2.727   4.671   2.511 -0.0407  0.6314 -0.3678
  132MOL    C4242224   2.817   4.506   2.261 -0.8413 -0.0614  0.0685
  132MOL    H4342225   2.597   4.491   2.245 -1.5267  0.6832  0.5901
  132MOL    H4442226   2.402   4.518   2.664  1.4187 -0.9967  1.8713
  132MOL    H4542227   2.556   4.646   2.806  2.1790 -0.4099  0.7733
  132MOL    H4642228   2.756   4.758   2.710  0.7013  0.0243 -0.9398
  132MOL    H4742229   2.822   4.712   2.480  0.9139  0.0156  1.6502
  132MOL    H4842230   2.889   4.573   2.308 -1.4802  0.2366  0.6438
  132MOL    H4942231   2.839   4.524   2.156 -0.6954 -1.2150 -0.1089
  132MOL    C5042232   2.834   4.355   2.311 -0.5324 -0.3633  0.6881
  132MOL    C5142233   2.983   4.308   2.311  0.1380  0.6604 -0.2181
  132MOL    C5242234   3.058   4.296   2.432 -0.3515 -0.6171 -0.6444
  132MOL   Cl5342235   2.990   4.325   2.589 -0.0595 -0.4188  0.2429
  132MOL    C5442236   3.191   4.255   2.430 -0.4825 -0.3716  0.1985
  132MOL    C5542237   3.260   4.222   2.312  0.0767 -0.2845 -0.0554
  132MOL    C5642238   3.186   4.227   2.191  0.7886 -0.6054 -0.6499
  132MOL    C5742239   3.050   4.278   2.194 -0.1010 -0.3908 -0.1383
  132MOL    C5842240   2.747   4.257   2.229  0.8455  0.3861  0.2759
  132MOL    H5942241   2.798   4.347   2.413 -2.0784  0.8108  0.2636
  132MOL    H6042242   3.253   4.252   2.518 -0.0921 -0.9480 -0.0868
  132MOL    H6142243   3.356   4.173   2.311 -0.0699 -0.5770 -1.9964
  132MOL    H6242244   3.240   4.198   2.102  0.0501  0.6712 -1.5339
  132MOL    H6342245   3.001   4.285   2.098 -1.7471 -0.0984  0.7042
  132MOL    H6442246   2.781   4.279   2.127  2.1853  0.3765  0.7146
  132MOL    H6542247   2.641   4.279   2.240  0.7208 -0.2863  0.4252
  132MOL    C6642248   2.761   4.100   2.236 -0.5843  0.4690 -0.2966
  132MOL    C6742249   2.699   4.035   2.108  0.7716 -0.0546 -0.0550
  132MOL    C6842250   2.774   4.014   1.989  0.6526 -0.2835  0.1823
  132MOL   Cl6942251   2.944   4.024   1.994 -0.6352  0.1432 -0.2571
  132MOL    C7042252   2.711   3.983   1.866 -0.0577 -0.0743 -0.1173
  132MOL    C7142253   2.576   3.948   1.875  0.0506  0.0650  0.3838
  132MOL    C7242254   2.498   3.968   1.993 -0.4548  0.6682  0.3489
  132MOL    C7342255   2.561   4.009   2.108 -0.4702  0.2823  0.1474
  132MOL    C7442256   2.718   4.030   2.367  0.1134  0.3173  0.0811
  132MOL    H7542257   2.870   4.093   2.229 -0.4589  1.2784  0.7604
  132MOL    H7642258   2.768   3.971   1.774 -0.8149  0.5666 -0.6740
  132MOL    H7742259   2.520   3.905   1.793  2.8962 -2.4723 -0.3208
  132MOL    H7842260   2.395   3.939   2.008  0.4569 -1.7505  2.2058
  132MOL    H7942261   2.503   4.030   2.197 -0.4947  0.0797  0.1791
  132MOL    H8042262   2.609   4.034   2.370  0.1871  1.0971  3.1913
  132MOL    H8142263   2.743   4.097   2.449 -2.1387  0.8239  0.4023
  132MOL    C8242264   2.776   3.892   2.410  0.4157 -0.3148 -0.4678
  132MOL    C8342265   2.778   3.787   2.295  0.4865 -0.0191  0.1446
  132MOL    C8442266   2.902   3.744   2.233 -0.1847  0.3256  0.3027
  132MOL   Cl8542267   3.056   3.809   2.275 -0.1550 -0.0357  0.0653
  132MOL    C8642268   2.892   3.647   2.133  0.6030  0.4135 -0.1418
  132MOL    C8742269   2.768   3.594   2.093 -0.6070 -0.0493 -0.0743
  132MOL    C8842270   2.649   3.635   2.153 -0.1611  0.0552 -0.9286
  132MOL    C8942271   2.652   3.734   2.253 -0.2501 -0.0507  0.3507
  132MOL    C9042272   2.712   3.837   2.536 -0.4491  0.3495 -0.2570
  132MOL    H9142273   2.882   3.908   2.430  0.2081  1.8939 -1.0573
  132MOL    H9242274   2.979   3.615   2.077 -0.5624 -0.1608 -1.6852
  132MOL    H9342275   2.766   3.512   2.023  1.7990 -0.4639  0.3214
  132MOL    H9442276   2.555   3.587   2.130  0.4448 -1.2848 -0.6527
  132MOL    H9542277   2.564   3.769   2.305  0.2680  2.1320 -0.2076
  132MOL    H9642278   2.605   3.819   2.523 -0.4537 -0.5129  0.9026
  132MOL    H9742279   2.726   3.922   2.603  1.3865  1.2662 -1.7534
  132MOL    C9842280   2.783   3.715   2.601  0.4306  0.1885 -0.2974
  132MOL    C9942281   2.735   3.587   2.541  1.4073  0.6299  0.1571
  132MOL   C10042282   2.829   3.495   2.488  0.2003  0.5583 -0.9250
  132MOL  Cl10142283   3.002   3.512   2.500  0.0027 -0.3143 -0.7117
  132MOL   C10242284   2.773   3.378   2.426  0.4590  0.3998  0.3377
  132MOL   C10342285   2.635   3.352   2.431 -0.3317 -0.6072 -0.0881
  132MOL   C10442286   2.550   3.442   2.487 -0.3638 -0.5681 -0.4087
  132MOL   C10542287   2.596   3.557   2.545  0.0154 -0.1308 -0.8067
  132MOL   C10642288   2.775   3.718   2.755  0.7055  0.0605  0.6951
  132MOL   H10742289   2.888   3.727   2.575  0.8671  1.5147  1.9311
  132MOL   H10842290   2.847   3.319   2.374  0.2488  0.4007  0.0378
  132MOL   H10942291   2.605   3.259   2.384  0.7630 -0.3243 -1.3717
  132MOL   H11042292   2.447   3.409   2.481 -0.7662 -0.0886  2.5819
  132MOL   H11142293   2.523   3.626   2.585 -1.0534 -2.6515  1.7937
  132MOL   H11242294   2.671   3.717   2.787  0.2676  0.7610 -0.6700
  132MOL   H11342295   2.795   3.822   2.779  0.4808  0.4233 -0.6957
  132MOL   C11442296   2.871   3.623   2.838  0.0492 -0.2980  0.3233
  132MOL   C11542297   2.845   3.472   2.821  0.6260  0.7309  0.2941
  132MOL   C11642298   2.956   3.381   2.829 -0.0185  0.2852  0.1913
  132MOL  Cl11742299   3.123   3.440   2.856  0.5077 -0.0122 -0.0148
  132MOL   C11842300   2.929   3.244   2.818  0.6660  0.4986 -0.0767
  132MOL   C11942301   2.800   3.198   2.805  0.5640  0.0799 -0.2155
  132MOL   C12042302   2.695   3.294   2.792 -0.7741  0.8950 -0.4039
  132MOL   C12142303   2.717   3.426   2.806  0.2663  0.0981 -0.2702
  132MOL   C12242304   2.869   3.655   2.989  0.4510 -0.7763 -0.7041
  132MOL   H12342305   2.966   3.648   2.791 -0.7800  0.6311 -0.8723
  132MOL   H12442306   3.006   3.168   2.811  0.3893  0.2570 -0.5460
  132MOL   H12542307   2.790   3.091   2.802  0.9340  0.0816 -2.8183
  132MOL   H12642308   2.601   3.255   2.758 -0.5307 -1.1497  1.1544
  132MOL   H12742309   2.632   3.491   2.793 -0.5069 -1.1296 -1.4147
  132MOL   H12842310   2.931   3.584   3.044 -0.5296 -1.7011 -0.7715
  132MOL   H12942311   2.768   3.633   3.024 -0.9324  2.3035 -2.5585
  132MOL   C13042312   2.902   3.800   3.040  0.1000  0.1984 -0.4332
  132MOL   C13142313   3.039   3.849   2.992 -0.4717 -0.1400  0.1590
  132MOL   C13242314   3.056   3.979   2.927  0.0299  0.4851  0.2087
  132MOL  Cl13342315   2.920   4.086   2.904 -0.2767 -0.1087 -0.1610
  132MOL   C13442316   3.182   4.027   2.886  0.4277 -0.0787  0.2391
  132MOL   C13542317   3.292   3.943   2.908 -0.4439 -0.3469  0.7064
  132MOL   C13642318   3.276   3.818   2.963 -0.1844 -0.2063  0.2847
  132MOL   C13742319   3.150   3.759   2.992 -0.1911  0.3201 -0.7186
  132MOL   C13842320   2.896   3.783   3.191  0.2298  0.4494 -0.1460
  132MOL   H13942321   2.821   3.869   3.013 -0.6897 -0.2377  0.7791
  132MOL   H14042322   3.184   4.124   2.840  0.2643 -1.0088 -1.7833
  132MOL   H14142323   3.386   3.989   2.881 -1.9493  2.4301 -0.0128
  132MOL   H14242324   3.371   3.770   2.976  1.2919  2.1884 -1.2528
  132MOL   H14342325   3.147   3.661   3.036  2.4290  0.5257  0.0175
  132MOL   H14442326   2.985   3.738   3.234 -0.5686  1.6772  2.8654
  132MOL   H14542327   2.813   3.720   3.223  0.3226 -0.9724 -2.5867
  132MOL   C14642328   2.882   3.918   3.262  0.1424  0.3447  0.1704
  132MOL   C14742329   2.952   3.910   3.396  0.2701  0.2773  0.1891
  132MOL   C14842330   3.084   3.958   3.416  0.3736 -0.3839 -0.6220
  132MOL  Cl14942331   3.166   4.032   3.287  0.0866 -0.2863 -0.0944
  132MOL   C15042332   3.149   3.947   3.538  0.6742  0.5991 -0.0055
  132MOL   C15142333   3.085   3.873   3.638  0.4097  0.3822  0.1148
  132MOL   C15242334   2.952   3.826   3.622  0.5457  0.1227 -0.4595
  132MOL   C15342335   2.881   3.849   3.502  0.0285  0.0011  0.3431
  132MOL   C15442336   2.731   3.966   3.270  0.4758 -0.5241 -0.5953
  132MOL   H15542337   2.936   3.984   3.195 -1.0341  0.6388 -0.5094
  132MOL   H15642338   3.249   3.980   3.560  1.4501  1.0705 -3.8318
  132MOL   H15742339   3.136   3.845   3.729  1.9792  1.1376 -0.5071
  132MOL   H15842340   2.908   3.775   3.706  2.3960  0.4568  0.7497
  132MOL   H15942341   2.780   3.815   3.487  0.0273  0.0190  0.3126
  132MOL   H16042342   2.674   3.894   3.330  0.5831  1.1058  1.5131
  132MOL   H16142343   2.680   3.965   3.174 -0.5773 -0.5529 -0.0456
  132MOL   C16242344   2.713   4.110   3.325 -0.3104 -0.4888  0.6373
  132MOL   C16342345   2.572   4.141   3.372  0.1050 -0.2275  0.2036
  132MOL   C16442346   2.539   4.194   3.500  0.0622  0.4163  0.1568
  132MOL  Cl16542347   2.666   4.207   3.619 -0.2951 -0.1503  0.4436
  132MOL   C16642348   2.406   4.230   3.534 -0.5248  0.4337  0.0432
  132MOL   C16742349   2.306   4.209   3.439  0.4146  0.0359 -0.6583
  132MOL   C16842350   2.333   4.161   3.312 -0.3474 -0.2131  0.3252
  132MOL   C16942351   2.465   4.132   3.276  0.3716 -0.1442 -0.0651
  132MOL   C17042352   2.767   4.225   3.235 -0.0882  0.1145  0.1580
  132MOL   H17142353   2.779   4.112   3.411 -0.6927 -1.6084  0.9569
  132MOL   H17242354   2.377   4.260   3.634 -0.6209 -1.4611  0.6012
  132MOL   H17342355   2.207   4.228   3.477 -0.0484  1.9680 -2.7323
  132MOL   H17442356   2.259   4.147   3.234  1.6431 -2.2565 -1.2670
  132MOL   H17542357   2.495   4.088   3.182 -0.3898 -0.1989 -0.2794
  132MOL   H17642358   2.684   4.252   3.170 -1.5192  0.2563  2.0048
  132MOL   H17742359   2.842   4.198   3.161 -4.7248 -2.7769 -3.7912
  132MOL   C17842360   2.814   4.347   3.321 -0.2118 -0.4864  0.3222
  132MOL   C17942361   2.778   4.474   3.242 -0.0245 -0.4493 -0.2903
  132MOL   C18042362   2.744   4.593   3.310 -0.3069  0.2834 -0.2349
  132MOL  Cl18142363   2.693   4.599   3.475  0.2310 -0.0368 -0.1884
  132MOL   C18242364   2.729   4.713   3.236 -0.2535 -0.0788  0.1576
  132MOL   C18342365   2.755   4.718   3.102  0.0059 -1.2925  0.0890
  132MOL   C18442366   2.784   4.591   3.033  0.4743  0.4249  1.1607
  132MOL   C18542367   2.807   4.475   3.105 -0.2954 -0.2374  0.3839
  132MOL   C18642368   2.962   4.338   3.338 -0.0527 -0.2927  0.0393
  132MOL   H18742369   2.758   4.357   3.414  1.7681 -0.3873  1.5096
  132MOL   H18842370   2.679   4.796   3.283 -2.0054 -0.6350 -0.6656
  132MOL   H18942371   2.740   4.810   3.046  0.1641 -2.1152 -1.3095
  132MOL   H19042372   2.808   4.590   2.927 -0.9015  1.6054  0.8070
  132MOL   H19142373   2.852   4.388   3.061  1.3361  0.0459  1.4447
  132MOL   H19242374   3.010   4.374   3.247  0.8134 -0.0590  0.5840
  132MOL   H19342375   2.997   4.235   3.344  0.2392 -0.1973  0.0142
  132MOL   C19442376   3.003   4.423   3.461 -0.3322  0.1024  0.3710
  132MOL   C19542377   3.142   4.500   3.438 -0.9682 -0.4537 -0.2703
  132MOL   C19642378   3.150   4.643   3.412 -0.5962  0.0842  0.1714
  132MOL  Cl19742379   3.016   4.751   3.437  0.1227 -0.5955 -0.0254
  132MOL   C19842380   3.267   4.701   3.363  0.1201 -0.2566  0.5405
  132MOL   C19942381   3.393   4.627   3.358 -0.2882  0.2523 -0.1192
  132MOL   C20042382   3.392   4.495   3.408 -0.7186 -0.1532  0.7025
  132MOL   C20142383   3.264   4.433   3.436 -0.5222 -0.2425 -0.4095
  132MOL   C20242384   3.010   4.336   3.590  0.1596  0.2052 -0.0695
  132MOL   H20342385   2.928   4.501   3.471 -0.0946  0.5892 -1.4910
  132MOL   H20442386   3.269   4.802   3.326 -0.4125 -0.7534 -0.8835
  132MOL   H20542387   3.488   4.663   3.321 -0.9079  0.8236 -1.1603
  132MOL   H20642388   3.483   4.439   3.425 -0.8507 -0.5602  0.0890
  132MOL   H20742389   3.266   4.325   3.442  1.2108 -0.2339 -0.5161
  132MOL   H20842390   3.093   4.269   3.566 -0.0503  0.9054 -2.9380
  132MOL   H20942391   2.925   4.271   3.609 -0.7118  0.8976 -1.5041
  132MOL   C21042392   3.072   4.398   3.719  0.5604 -0.2926  0.6392
  132MOL   C21142393   3.129   4.292   3.816 -0.3846  0.3181  0.0340
  132MOL   C21242394   3.263   4.288   3.853  0.3823 -0.1825 -0.0630
  132MOL  Cl21342395   3.370   4.420   3.818  0.1577  0.4664  0.1539
  132MOL   C21442396   3.315   4.178   3.922 -0.7820 -0.4395  0.5876
  132MOL   C21542397   3.235   4.064   3.946  0.3827  0.2326  0.7121
  132MOL   C21642398   3.094   4.071   3.923  0.3044  0.4580  0.2811
  132MOL   C21742399   3.040   4.190   3.865 -0.5207 -0.1350  0.0368
  132MOL   C21842400   2.981   4.487   3.801  0.4048  0.0667 -0.4630
  132MOL   H21942401   3.153   4.465   3.692  0.2876 -0.1764  0.1174
  132MOL   H22042402   3.416   4.191   3.956 -0.2869  3.7487 -2.0273
  132MOL   H22142403   3.269   3.971   3.990 -1.4335  0.1107  1.9164
  132MOL   H22242404   3.041   3.979   3.944  2.3821 -0.9727 -0.6449
  132MOL   H22342405   2.936   4.192   3.837  0.0110  0.5162 -2.0223
  132MOL   H22442406   2.910   4.421   3.850  0.4603  0.5705  0.3107
  132MOL   H22542407   2.911   4.535   3.733 -1.0928  0.4482  1.2997
  132MOL   C22642408   3.038   4.590   3.903  0.4799  0.1888  0.4458
  132MOL   C22742409   2.932   4.613   4.012  0.3201  0.3383 -0.6441
  132MOL   C22842410   2.966   4.587   4.151  0.4844 -0.3274  0.1794
  132MOL  Cl22942411   3.123   4.527   4.202 -0.4575 -0.1887 -0.2433
  132MOL   C23042412   2.874   4.625   4.249  0.3800 -0.9178 -0.4825
  132MOL   C23142413   2.744   4.668   4.218  0.5159  0.3447 -0.0874
  132MOL   C23242414   2.712   4.697   4.081  0.0580  0.1333 -0.6384
  132MOL   C23342415   2.808   4.675   3.983  0.3785  0.8267  0.5472
  132MOL   C23442416   3.086   4.713   3.836  0.0532 -0.3925 -0.7252
  132MOL   H23542417   3.124   4.543   3.951 -0.9039 -1.5737  1.2839
  132MOL   H23642418   2.882   4.595   4.352 -0.8258  2.0087  0.5174
  132MOL   H23742419   2.664   4.675   4.290 -0.2706  1.4891 -1.0508
  132MOL   H23842420   2.614   4.731   4.051 -0.5670  0.0606  1.2307
  132MOL   H23942421   2.788   4.701   3.880  1.8645 -1.2647 -0.3139
  132MOL   H24042422   3.000   4.760   3.788  0.0074 -0.7124 -0.9621
  132MOL   H24142423   3.131   4.676   3.744 -0.4685 -0.1634 -1.0735
  132MOL   C24242424   3.171   4.818   3.910  0.0062 -0.5273 -1.1042
  132MOL   C24342425   3.189   4.940   3.815 -0.3299 -0.4162  0.1970
  132MOL   C24442426   3.144   5.070   3.856 -0.3633  0.8022 -0.1084
  132MOL  Cl24542427   3.068   5.098   4.009 -0.3243  0.3264 -0.0862
  132MOL   C24642428   3.176   5.184   3.776  0.4626 -0.1519  0.2342
  132MOL   C24742429   3.232   5.161   3.651 -0.5295 -0.4301 -0.1781
  132MOL   C24842430   3.272   5.034   3.606 -0.3666  0.8168 -0.2139
  132MOL   C24942431   3.246   4.923   3.685  0.3326 -0.0221 -0.9206
  132MOL   C25042432   3.309   4.762   3.958 -0.6904 -0.2212  0.3179
  132MOL   H25142433   3.113   4.839   4.000 -0.0794  0.4851 -1.3948
  132MOL   H25242434   3.150   5.282   3.812 -0.7283  0.3664 -1.9569
  132MOL   H25342435   3.254   5.243   3.584 -0.6645 -1.2620 -1.2694
  132MOL   H25442436   3.306   5.018   3.505 -0.7200  0.0647 -0.2175
  132MOL   H25542437   3.278   4.822   3.666 -0.4047 -0.4733  0.2159
  132MOL   H25642438   3.389   4.780   3.887  0.1904 -2.0117  0.8370
  132MOL   H25742439   3.301   4.653   3.959  0.3987 -0.3222 -1.0591
  132MOL   C25842440   3.364   4.803   4.093 -0.0878  0.2675  0.7122
  132MOL   C25942441   3.380   4.960   4.128  0.2480 -0.8522 -0.1321
  132MOL   C26042442   3.351   5.016   4.251 -0.4130 -0.1907 -0.2945
  132MOL  Cl26142443   3.307   4.908   4.380 -0.3994 -0.0477  0.0946
  132MOL   C26242444   3.371   5.153   4.281  0.6163 -0.6174  0.0266
  132MOL   C26342445   3.420   5.238   4.184  0.5291 -0.0562 -0.2099
  132MOL   C26442446   3.434   5.191   4.050 -0.2896  0.1536 -0.0729
  132MOL   C26542447   3.414   5.054   4.025  0.4067 -0.0682  0.1342
  132MOL   C26642448   3.493   4.720   4.132  0.4164 -0.4274  0.8493
  132MOL   H26742449   3.285   4.769   4.159  0.3774  1.0847  1.6986
  132MOL   H26842450   3.347   5.195   4.378 -0.6221  0.7977 -0.8622
  132MOL   H26942451   3.446   5.339   4.212  2.4850  0.0841 -2.3592
  132MOL   H27042452   3.476   5.254   3.973 -0.6329  0.5707  0.0782
  132MOL   H27142453   3.440   5.012   3.929 -2.0341  1.0192 -1.0368
  132MOL   H27242454   3.491   4.616   4.099  0.4415 -0.2884  0.4123
  132MOL   H27342455   3.486   4.699   4.239 -0.5575 -1.4031  0.6081
  132MOL   C27442456   3.635   4.777   4.089  0.2636 -0.3311 -0.1775
  132MOL   C27542457   3.646   4.784   3.938 -0.5863 -0.1585 -0.3645
  132MOL   C27642458   3.693   4.897   3.868 -0.4795  0.0636 -0.1385
  132MOL  Cl27742459   3.734   5.039   3.953 -0.1919  0.5402 -0.2884
  132MOL   C27842460   3.697   4.907   3.729  0.3550 -0.2327 -0.2954
  132MOL   C27942461   3.654   4.798   3.646  0.4569 -0.3947  0.1216
  132MOL   C28042462   3.623   4.676   3.712 -0.0985  0.2847  0.1680
  132MOL   C28142463   3.634   4.663   3.855  0.7504 -0.0778 -0.9074
  132MOL   C28242464   3.749   4.693   4.147 -0.1815  0.0298  0.1962
  132MOL   H28342465   3.654   4.878   4.124  1.4259 -1.2985  2.0319
  132MOL   H28442466   3.734   4.991   3.672  1.3142  0.6910  1.6594
  132MOL   H28542467   3.649   4.809   3.538 -0.2449 -2.0380 -0.0234
  132MOL   H28642468   3.607   4.584   3.658 -0.9088 -0.0722  0.9866
  132MOL   H28742469   3.613   4.571   3.906 -4.5493 -0.6754 -3.8250
  132MOL   H28842470   3.844   4.736   4.115 -0.4293  0.6889  0.3397
  132MOL   H28942471   3.742   4.589   4.115  0.3165 -0.1208  0.5730
  132MOL   C29042472   3.760   4.671   4.308 -0.4435 -0.0846  0.2149
  132MOL   C29142473   3.791   4.796   4.386  0.3956  0.3374  0.0110
  132MOL   C29242474   3.725   4.815   4.513 -0.1238 -0.3825  0.0717
  132MOL  Cl29342475   3.606   4.704   4.571  0.3021  0.1466  0.4827
  132MOL   C29442476   3.758   4.927   4.592  0.3548 -0.1290  0.3562
  132MOL   C29542477   3.858   5.016   4.547  0.9013 -0.7244  0.4112
  132MOL   C29642478   3.928   4.989   4.428 -0.0757 -0.1154  0.0073
  132MOL   C29742479   3.891   4.887   4.347  0.2280 -0.0860  0.2609
  132MOL   C29842480   3.865   4.561   4.341 -0.1735 -0.1785  0.2866
  132MOL   H29942481   3.658   4.635   4.322 -0.0567 -0.6985  1.5967
  132MOL   H30042482   3.702   4.958   4.679 -0.9663  0.5068 -0.6940
  132MOL   H30142483   3.889   5.102   4.603 -1.6776  2.0033 -2.2049
  132MOL   H30242484   4.006   5.061   4.409 -2.1535  2.6820  1.6984
  132MOL   H30342485   3.954   4.863   4.262 -1.4117 -1.7508 -0.5258
  132MOL   H30442486   3.898   4.567   4.444 -0.7042  0.1595  0.4354
  132MOL   H30542487   3.964   4.583   4.298  0.1744 -2.1492  0.0483
  132MOL   C30642488   3.819   4.409   4.309  0.0785  0.2690 -0.4299
  132MOL   C30742489   3.669   4.386   4.338  0.7409 -0.4687  0.4934
  132MOL   C30842490   3.579   4.356   4.237 -0.4279 -0.3457 -0.0785
  132MOL  Cl30942491   3.622   4.325   4.071 -0.2507  0.0409  0.2486
  132MOL   C31042492   3.442   4.349   4.271 -0.4371  0.8443  0.4972
  132MOL   C31142493   3.399   4.368   4.404 -0.0515  0.1080 -0.2354
  132MOL   C31242494   3.492   4.395   4.500 -0.2764 -0.5127 -0.2987
  132MOL   C31342495   3.625   4.407   4.464 -0.0288  0.0191 -0.1598
  132MOL   C31442496   3.894   4.302   4.396 -0.2180 -0.3359  0.1189
  132MOL   H31542497   3.841   4.390   4.205 -3.0675  0.4146 -1.1747
  132MOL   H31642498   3.378   4.320   4.189 -0.1050  1.2680  0.0761
  132MOL   H31742499   3.295   4.383   4.429  0.8235  1.0342  3.1695
  132MOL   H31842500   3.463   4.419   4.601  0.5340 -5.3159  1.1750
  132MOL   H31942501   3.697   4.431   4.541 -1.1823  0.6697  0.7161
  132MOL   H32042502   3.837   4.211   4.379 -2.1314  0.7911  0.2912
  132MOL   H32142503   3.900   4.327   4.502 -0.9002  1.0989 -0.1583
  132MOL   H32242504   3.997   4.290   4.362 -0.1950  0.8178 -0.2579
  133MOL     C142505   1.318   3.713   7.938  1.0753  0.6873 -0.7313
  133MOL     C242506   1.362   3.855   7.914  0.2503  0.1649 -0.2781
  133MOL     C342507   1.296   3.936   7.823  0.0104  0.1143 -0.9082
  133MOL    Cl442508   1.168   3.882   7.730  0.3952 -0.3386  0.2289
  133MOL     C542509   1.325   4.072   7.817 -0.0694  0.3771 -0.3315
  133MOL     C642510   1.432   4.126   7.892 -0.6878 -0.0575 -0.2140
  133MOL     C742511   1.507   4.047   7.978  0.0582 -0.1866  0.1554
  133MOL     C842512   1.468   3.914   7.988  0.4681  0.0543  0.3105
  133MOL     C942513   1.401   3.613   7.853  0.0366 -0.0643 -0.3211
  133MOL    H1042514   1.326   3.696   8.045 -3.0913 -0.2923 -0.4912
  133MOL    H1142515   1.265   4.121   7.742 -1.2658  2.0667  1.6831
  133MOL    H1242516   1.455   4.230   7.876 -2.1045  0.1850 -0.7481
  133MOL    H1342517   1.596   4.086   8.026 -0.8930  0.9467  1.0395
  133MOL    H1442518   1.530   3.852   8.051  2.4583  0.1102 -1.5339
  133MOL    H1542519   1.485   3.598   7.921 -0.7643  0.5149  0.8032
  133MOL    H1642520   1.438   3.664   7.764 -0.6676  0.4922 -0.2947
  133MOL    H1742521   1.211   3.707   7.920  0.7691  1.0158  0.8845
  133MOL    C1842522   1.332   3.480   7.804  1.1315  0.5806 -1.0330
  133MOL    C1942523   1.427   3.372   7.746 -0.5428 -0.2881  0.2179
  133MOL    C2042524   1.445   3.244   7.808  0.1277  0.8452 -0.5196
  133MOL   Cl2142525   1.387   3.220   7.975  0.1693 -0.2501  0.2391
  133MOL    C2242526   1.516   3.146   7.733 -0.2407  0.8375 -0.4364
  133MOL    C2342527   1.570   3.169   7.612 -1.4171  0.0301 -0.1909
  133MOL    C2442528   1.543   3.288   7.547  0.2637  0.1720 -0.3030
  133MOL    C2542529   1.478   3.395   7.611  0.2087  0.1078  0.1756
  133MOL    C2642530   1.220   3.522   7.700 -0.7083 -0.0790 -0.1670
  133MOL    H2742531   1.278   3.438   7.889  3.0925  1.8140  0.8747
  133MOL    H2842532   1.543   3.053   7.781  3.9362  1.9238 -0.4719
  133MOL    H2942533   1.636   3.097   7.566 -0.6486  0.5444  0.0989
  133MOL    H3042534   1.582   3.299   7.447 -0.2681  0.1264 -0.5166
  133MOL    H3142535   1.473   3.488   7.555  0.2407 -0.7192 -1.2238
  133MOL    H3242536   1.257   3.592   7.625  0.1272  0.3645  0.6577
  133MOL    H3342537   1.149   3.583   7.756 -0.7942 -1.1465  0.9175
  133MOL    C3442538   1.142   3.410   7.625  0.0743 -0.7225  0.2290
  133MOL    C3542539   1.063   3.478   7.504  0.2293 -0.0034  0.0711
  133MOL    C3642540   1.116   3.464   7.372  0.7565 -0.3374 -0.2996
  133MOL   Cl3742541   1.266   3.377   7.351 -0.4201  0.2708  0.3951
  133MOL    C3842542   1.046   3.505   7.263 -0.0929 -0.1300  0.2133
  133MOL    C3942543   0.926   3.576   7.279 -0.8484  0.1292 -0.3474
  133MOL    C4042544   0.877   3.609   7.407 -0.5755 -0.0052 -0.4135
  133MOL    C4142545   0.944   3.562   7.523 -0.1171  0.6506  0.5437
  133MOL    C4242546   1.060   3.330   7.721 -0.2658 -0.3881  0.4958
  133MOL    H4342547   1.220   3.345   7.585 -1.0216 -1.3688 -0.8905
  133MOL    H4442548   1.080   3.490   7.161 -0.2945  0.8017 -0.0016
  133MOL    H4542549   0.864   3.606   7.196 -1.7420  0.6583  0.5111
  133MOL    H4642550   0.789   3.670   7.422  1.2477  2.1512  1.9749
  133MOL    H4742551   0.911   3.590   7.621  1.2228 -0.7527  1.4248
  133MOL    H4842552   0.994   3.390   7.785  1.0173  1.2977  0.2729
  133MOL    H4942553   1.123   3.271   7.786 -1.2652 -0.6550  1.2390
  133MOL    C5042554   0.978   3.212   7.664  0.5112 -0.2204 -0.0753
  133MOL    C5142555   0.890   3.149   7.772 -0.5637  0.2132  0.7125
  133MOL    C5242556   0.747   3.148   7.770 -0.4293  0.0175 -0.0824
  133MOL   Cl5342557   0.663   3.246   7.660 -0.0228  0.0429 -0.0350
  133MOL    C5442558   0.669   3.090   7.870  0.0497  0.6158  0.3429
  133MOL    C5542559   0.732   3.024   7.977 -0.3351  0.0498 -0.0688
  133MOL    C5642560   0.873   3.015   7.979  0.5048  0.2549  0.7368
  133MOL    C5742561   0.950   3.073   7.877 -0.0133 -0.5129  0.0984
  133MOL    C5842562   1.061   3.104   7.588 -0.5797  0.4313 -0.0746
  133MOL    H5942563   0.909   3.260   7.595 -3.2495 -2.3308  2.0644
  133MOL    H6042564   0.562   3.100   7.867  0.0504  0.2231 -3.3002
  133MOL    H6142565   0.673   2.994   8.063  0.3934 -2.8181 -0.5240
  133MOL    H6242566   0.921   2.966   8.062 -1.2788  1.0061  2.2431
  133MOL    H6342567   1.057   3.079   7.894 -0.4414 -0.1665  2.8553
  133MOL    H6442568   1.130   3.069   7.665 -1.2435  0.5770  0.6054
  133MOL    H6542569   1.118   3.147   7.506 -0.9649  2.5380  0.7340
  133MOL    C6642570   0.987   2.974   7.544 -0.8193  0.0600  0.1500
  133MOL    C6742571   1.101   2.869   7.509  0.1609  0.0966  0.2481
  133MOL    C6842572   1.146   2.766   7.598 -0.2075  0.1609 -0.5376
  133MOL   Cl6942573   1.068   2.741   7.743  0.3184 -0.1319  0.1809
  133MOL    C7042574   1.240   2.674   7.553  0.1764  0.9334 -0.1179
  133MOL    C7142575   1.303   2.687   7.428  0.3692 -0.4554  0.3421
  133MOL    C7242576   1.263   2.796   7.347  0.2645 -0.1051 -0.4261
  133MOL    C7342577   1.162   2.884   7.385  0.9225  0.4372 -0.1735
  133MOL    C7442578   0.865   2.986   7.446 -0.4483 -0.0644 -0.2014
  133MOL    H7542579   0.928   2.930   7.625 -1.1478  0.3469  0.0710
  133MOL    H7642580   1.266   2.586   7.611 -3.1140 -0.6245 -0.9097
  133MOL    H7742581   1.381   2.617   7.404  0.9994  0.4749 -0.3366
  133MOL    H7842582   1.295   2.811   7.245 -0.3015 -1.4950 -0.8247
  133MOL    H7942583   1.126   2.957   7.314 -1.5653 -0.2342  0.3751
  133MOL    H8042584   0.912   3.026   7.356  1.2498  0.3505  0.8433
  133MOL    H8142585   0.789   3.058   7.477  1.2545  1.1406  1.2512
  133MOL    C8242586   0.780   2.856   7.419  0.3797  0.6107 -0.0755
  133MOL    C8342587   0.695   2.876   7.294 -0.0783  0.4572 -0.1756
  133MOL    C8442588   0.735   2.829   7.166 -0.1493 -0.0428  0.0908
  133MOL   Cl8542589   0.880   2.738   7.137  0.1317 -0.2692  0.3865
  133MOL    C8642590   0.653   2.851   7.058  0.1959 -0.3260 -0.0367
  133MOL    C8742591   0.536   2.928   7.071 -0.5679  0.5439 -0.5155
  133MOL    C8842592   0.494   2.970   7.196  0.0579 -0.3469  0.1748
  133MOL    C8942593   0.578   2.949   7.310  1.1535  0.0994  0.1652
  133MOL    C9042594   0.702   2.809   7.543  0.0986 -0.2918 -0.1321
  133MOL    H9142595   0.849   2.776   7.393  0.0644  0.6588 -1.0906
  133MOL    H9242596   0.678   2.807   6.962 -0.2408 -0.0397 -0.2823
  133MOL    H9342597   0.470   2.933   6.986 -2.5537  2.0268  1.0521
  133MOL    H9442598   0.395   3.004   7.220  0.2579  1.9802 -2.0986
  133MOL    H9542599   0.531   2.983   7.401 -0.3193  0.5714 -0.7585
  133MOL    H9642600   0.627   2.881   7.575  0.7111 -0.2663  1.3093
  133MOL    H9742601   0.757   2.818   7.637  1.4362 -2.0866 -0.7024
  133MOL    C9842602   0.642   2.666   7.543  0.5380 -0.4294  0.3671
  133MOL    C9942603   0.529   2.656   7.437  0.5051 -0.1810 -0.2470
  133MOL   C10042604   0.549   2.588   7.320 -0.1292  0.8671  0.3564
  133MOL  Cl10142605   0.690   2.504   7.268 -0.5295 -0.4954  0.1869
  133MOL   C10242606   0.448   2.598   7.220  0.1897 -0.5020  0.2022
  133MOL   C10342607   0.328   2.676   7.241 -0.1641  0.1433 -0.2383
  133MOL   C10442608   0.309   2.732   7.366  0.4817 -0.6395 -0.3049
  133MOL   C10542609   0.405   2.720   7.461 -0.4953  0.0599  0.1916
  133MOL   C10642610   0.599   2.620   7.685 -0.2901 -0.3315  0.4630
  133MOL   H10742611   0.723   2.602   7.507  1.5005  0.3278  1.1698
  133MOL   H10842612   0.462   2.555   7.122 -1.3348  0.2942 -0.3743
  133MOL   H10942613   0.247   2.682   7.169  1.2225  0.1939 -1.8106
  133MOL   H11042614   0.218   2.784   7.392  1.3051  0.0142  1.3223
  133MOL   H11142615   0.391   2.778   7.551  0.6579 -0.8463  0.9676
  133MOL   H11242616   0.519   2.688   7.714 -0.4886  0.0870 -1.0285
  133MOL   H11342617   0.683   2.625   7.754 -0.4828 -0.3202  0.6958
  133MOL   C11442618   0.548   2.470   7.685 -0.0848 -0.4487 -0.0247
  133MOL   C11542619   0.392   2.474   7.690 -0.0772  0.2171  0.0411
  133MOL   C11642620   0.301   2.414   7.595  0.3433  0.0955 -1.0644
  133MOL  Cl11742621   0.365   2.306   7.480  0.1081  0.1820  0.0484
  133MOL   C11842622   0.166   2.451   7.596  1.0180 -0.4330  0.1148
  133MOL   C11942623   0.115   2.531   7.698  0.4615  0.3150  0.3482
  133MOL   C12042624   0.196   2.569   7.802 -0.0540  0.5971  0.1734
  133MOL   C12142625   0.334   2.546   7.794 -0.5122 -0.1606 -0.3209
  133MOL   C12242626   0.613   2.378   7.794 -0.2611 -0.5884  0.7721
  133MOL   H12342627   0.566   2.426   7.587 -0.8381 -0.4823 -0.1515
  133MOL   H12442628   0.101   2.398   7.528 -0.0799  2.1073 -0.9224
  133MOL   H12542629   0.009   2.550   7.699  0.6001  1.1781 -0.2267
  133MOL   H12642630   0.163   2.618   7.893  1.2001  3.6144 -0.9394
  133MOL   H12742631   0.406   2.578   7.868  0.3762 -2.7246 -0.0418
  133MOL   H12842632   0.546   2.292   7.793 -2.9107  1.4480 -1.3997
  133MOL   H12942633   0.608   2.432   7.888  1.2979 -0.4341  0.7760
  133MOL   C13042634   0.761   2.329   7.772  0.1687  0.1067 -0.3692
  133MOL   C13142635   0.759   2.250   7.643 -0.6523  0.1051 -0.2839
  133MOL   C13242636   0.829   2.284   7.528 -0.1182 -0.5743  0.6630
  133MOL  Cl13342637   0.927   2.428   7.524  0.3672 -0.0613 -0.0015
  133MOL   C13442638   0.833   2.196   7.414  0.3017  0.5675 -1.0670
  133MOL   C13542639   0.773   2.066   7.421  0.6363 -0.4323  0.5469
  133MOL   C13642640   0.714   2.031   7.541  0.0393  0.1509  0.1977
  133MOL   C13742641   0.696   2.124   7.643 -0.1258  0.5069  0.6341
  133MOL   C13842642   0.832   2.246   7.885 -0.0501 -0.2195  0.4579
  133MOL   H13942643   0.816   2.423   7.768  0.1212  0.2867  2.2724
  133MOL   H14042644   0.887   2.223   7.325 -1.0449  0.5464 -1.9103
  133MOL   H14142645   0.774   1.991   7.344 -0.7526  1.6252 -1.5478
  133MOL   H14242646   0.664   1.936   7.554 -1.0706  0.6394 -0.5450
  133MOL   H14342647   0.631   2.102   7.726 -1.6536  0.9486 -0.4218
  133MOL   H14442648   0.764   2.163   7.900  0.4317 -0.5040  1.0580
  133MOL   H14542649   0.823   2.306   7.976 -0.6139 -1.4894  1.2392
  133MOL   C14642650   0.970   2.191   7.856  0.7392 -0.0016  0.2942
  133MOL   C14742651   1.004   2.063   7.939  0.1652  0.2374  0.5583
  133MOL   C14842652   1.074   1.957   7.873 -0.2170  0.1100  0.0272
  133MOL  Cl14942653   1.124   1.979   7.708  0.0347 -0.4102 -0.2813
  133MOL   C15042654   1.100   1.831   7.938 -0.1443  0.2674 -0.1544
  133MOL   C15142655   1.063   1.814   8.072  0.1074  0.0182 -0.5440
  133MOL   C15242656   0.986   1.915   8.140 -0.0411 -0.0224  0.0757
  133MOL   C15342657   0.955   2.040   8.071 -0.1512  0.4238  0.1523
  133MOL   C15442658   1.093   2.298   7.860  0.1771  0.3783 -0.0319
  133MOL   H15542659   0.956   2.160   7.752 -0.1845  2.1571 -0.2415
  133MOL   H15642660   1.157   1.749   7.896 -0.7468  0.7364 -1.9221
  133MOL   H15742661   1.075   1.717   8.119  0.6014 -0.1208 -0.9515
  133MOL   H15842662   0.937   1.903   8.236 -1.5950  1.1429 -0.5380
  133MOL   H15942663   0.898   2.115   8.124 -0.1381 -0.6289  1.7298
  133MOL   H16042664   1.070   2.391   7.808  0.6188 -0.8431 -2.4824
  133MOL   H16142665   1.168   2.253   7.796  0.3105 -0.0317  0.4081
  133MOL   C16242666   1.164   2.320   7.996 -0.0951 -0.5827 -1.0897
  133MOL   C16342667   1.115   2.443   8.084  0.9588  0.8127  0.8807
  133MOL   C16442668   1.071   2.424   8.215 -0.2194 -0.3626 -0.1277
  133MOL  Cl16542669   1.049   2.278   8.291 -0.5424 -0.3411  0.1102
  133MOL   C16642670   1.064   2.536   8.300 -0.9054 -0.1557 -0.4535
  133MOL   C16742671   1.075   2.671   8.258  0.3777  1.0480 -0.5135
  133MOL   C16842672   1.109   2.689   8.119  0.0567 -0.0407 -0.7964
  133MOL   C16942673   1.128   2.578   8.034 -0.3907  0.0687 -0.5721
  133MOL   C17042674   1.315   2.348   7.971 -0.3174  0.0907 -0.8325
  133MOL   H17142675   1.159   2.231   8.059  0.2909 -0.1048 -0.3857
  133MOL   H17242676   1.037   2.526   8.404  0.2102  1.3489  0.0180
  133MOL   H17342677   1.057   2.756   8.323  1.1651  2.1542 -1.6948
  133MOL   H17442678   1.127   2.787   8.077  0.7104 -0.3491 -1.2303
  133MOL   H17542679   1.171   2.596   7.937 -1.0633  1.6386 -0.5952
  133MOL   H17642680   1.351   2.412   8.051 -0.7030  1.5615 -1.8139
  133MOL   H17742681   1.319   2.409   7.881 -1.6340  0.6649 -0.5093
  133MOL   C17842682   1.403   2.221   7.964 -0.3732  0.4136 -0.1638
  133MOL   C17942683   1.392   2.135   8.088 -0.3723  0.3586 -0.2743
  133MOL   C18042684   1.395   1.995   8.068  0.4245  0.3053  0.4222
  133MOL  Cl18142685   1.427   1.921   7.915  0.1405 -0.1172  0.4422
  133MOL   C18242686   1.388   1.907   8.180  0.1277 -0.6760  0.2815
  133MOL   C18342687   1.372   1.953   8.315  0.1386  0.2196 -0.2689
  133MOL   C18442688   1.353   2.097   8.328 -0.0415 -0.2938  0.3030
  133MOL   C18542689   1.362   2.188   8.217 -0.3965  0.9141  0.1381
  133MOL   C18642690   1.553   2.248   7.950 -0.2372  0.3778  0.4765
  133MOL   H18742691   1.370   2.170   7.874 -0.5679 -0.9987  0.6840
  133MOL   H18842692   1.389   1.800   8.171 -1.6036 -0.5377 -2.0579
  133MOL   H18942693   1.354   1.884   8.396 -0.0128 -0.4317 -0.8496
  133MOL   H19042694   1.325   2.135   0.005 -1.9332  1.4477 -0.8649
  133MOL   H19142695   1.345   2.294   8.227  1.2422  1.2921 -0.8833
  133MOL   H19242696   1.615   2.161   7.972 -1.9086 -0.8638  0.3819
  133MOL   H19342697   1.584   2.317   8.028 -1.4457  1.0828  0.3556
  133MOL   C19442698   1.590   2.309   7.806 -0.0753 -0.2091 -0.1351
  133MOL   C19542699   1.564   2.202   7.700  0.0469  0.3395  0.5266
  133MOL   C19642700   1.453   2.209   7.610  0.0102 -0.0528  0.2589
  133MOL  Cl19742701   1.341   2.341   7.611 -0.0925 -0.1589  0.0267
  133MOL   C19842702   1.428   2.104   7.519 -0.1854 -0.2671 -0.0826
  133MOL   C19942703   1.528   2.004   7.503 -0.1743 -0.8230  0.0999
  133MOL   C20042704   1.630   1.998   7.590 -0.4730  0.4589 -0.5353
  133MOL   C20142705   1.649   2.097   7.687 -0.4918  0.1448  0.1862
  133MOL   C20242706   1.735   2.371   7.798 -0.4188  0.1549 -0.4232
  133MOL   H20342707   1.529   2.398   7.791  1.5439  0.5726 -2.2904
  133MOL   H20442708   1.331   2.090   7.473 -0.6822  1.0462  0.5426
  133MOL   H20542709   1.513   1.917   7.442 -0.5498 -0.3019 -0.5561
  133MOL   H20642710   1.695   1.914   7.573 -1.5812 -0.3903 -0.5637
  133MOL   H20742711   1.734   2.102   7.755  0.3111 -0.8647 -0.7177
  133MOL   H20842712   1.745   2.410   7.697 -0.3463  0.1769 -0.4075
  133MOL   H20942713   1.806   2.290   7.816 -1.6247 -1.4254 -2.5353
  133MOL   C21042714   1.758   2.495   7.878  0.5432  0.0676  0.0129
  133MOL   C21142715   1.652   2.602   7.859 -0.2306 -0.2774 -0.8994
  133MOL   C21242716   1.572   2.661   7.964 -0.3442 -0.5512  0.1673
  133MOL  Cl21342717   1.583   2.607   8.135  0.2982  0.2417  0.0162
  133MOL   C21442718   1.479   2.762   7.939  0.3852 -0.8345 -0.7464
  133MOL   C21542719   1.450   2.809   7.809 -0.3221 -0.4509  0.3226
  133MOL   C21642720   1.527   2.752   7.705  0.1135  0.4503  0.0782
  133MOL   C21742721   1.620   2.647   7.727  0.4064 -0.9251 -0.0150
  133MOL   C21842722   1.901   2.548   7.839 -0.0388 -0.2568  0.2891
  133MOL   H21942723   1.765   2.464   7.982  2.4735  0.1113 -0.0903
  133MOL   H22042724   1.418   2.795   8.022  1.0213 -1.3652 -0.0662
  133MOL   H22142725   1.378   2.886   7.785  1.3687  0.9122 -0.5154
  133MOL   H22242726   1.488   2.783   7.609  0.5906  0.1913 -0.1992
  133MOL   H22342727   1.660   2.609   7.634 -1.0659 -0.5965 -0.8050
  133MOL   H22442728   1.894   2.657   7.837  0.8205 -0.2219 -2.0723
  133MOL   H22542729   1.939   2.533   7.738 -0.1575 -0.0919  0.2186
  133MOL   C22642730   2.014   2.512   7.942 -0.1733  0.4613 -0.5732
  133MOL   C22742731   1.978   2.544   8.095  0.1836  0.0352  0.4132
  133MOL   C22842732   1.929   2.452   8.185 -0.9187 -0.5080 -0.0201
  133MOL  Cl22942733   1.909   2.290   8.129 -0.5357  0.0174  0.1836
  133MOL   C23042734   1.883   2.495   8.313  0.0885 -0.1264  0.8170
  133MOL   C23142735   1.902   2.631   8.353  0.1872 -0.2364  0.1647
  133MOL   C23242736   1.960   2.727   8.268  0.6473 -0.7361 -0.3481
  133MOL   C23342737   1.990   2.677   8.139  0.4445  0.5350 -0.3277
  133MOL   C23442738   2.154   2.561   7.906  0.1986 -0.3582  0.0114
  133MOL   H23542739   2.042   2.407   7.945  1.1561  0.8398  1.4131
  133MOL   H23642740   1.823   2.435   8.380 -1.8517  0.9224  0.0679
  133MOL   H23742741   1.863   2.659   0.029 -1.6748  0.4389 -0.7470
  133MOL   H23842742   1.978   2.830   8.295 -0.1803 -0.4390 -0.9108
  133MOL   H23942743   2.040   2.748   8.074  1.3327  0.0924 -0.1402
  133MOL   H24042744   2.231   2.541   7.981  0.0185 -1.2365 -0.0335
  133MOL   H24142745   2.148   2.670   7.901 -1.0540 -0.3282  1.6461
  133MOL   C24242746   2.219   2.498   7.777 -0.2386  0.1277 -0.0779
  133MOL   C24342747   2.217   2.347   7.767 -0.4187  0.2452  0.4109
  133MOL   C24442748   2.196   2.278   7.641 -0.1640 -0.1168 -0.5860
  133MOL  Cl24542749   2.159   2.356   7.490 -0.0668  0.1106  0.0349
  133MOL   C24642750   2.214   2.143   7.636 -0.2709  0.1256 -0.0230
  133MOL   C24742751   2.260   2.074   7.746 -0.3651 -0.8456 -0.2531
  133MOL   C24842752   2.282   2.139   7.867 -0.1834  0.2310 -0.0403
  133MOL   C24942753   2.252   2.269   7.885 -0.3099  0.0688 -0.1543
  133MOL   C25042754   2.360   2.547   7.750  0.2626 -0.2207 -0.5870
  133MOL   H25142755   2.151   2.542   7.704  0.3176 -0.7017 -1.1118
  133MOL   H25242756   2.184   2.087   7.549 -1.1215 -0.5872  0.7107
  133MOL   H25342757   2.261   1.966   7.756 -2.5573 -0.5727  4.5123
  133MOL   H25442758   2.302   2.088   7.960 -0.5566 -0.5440 -0.3747
  133MOL   H25542759   2.265   2.320   7.980 -0.6285  1.5239 -0.8681
  133MOL   H25642760   2.428   2.483   7.806  2.9934  2.6705 -0.4627
  133MOL   H25742761   2.378   2.648   7.789 -1.0388 -0.0641 -0.3782
  133MOL   C25842762   2.408   2.548   7.603  0.1639  0.0264 -0.0902
  133MOL   C25942763   2.567   2.548   7.597  0.3484 -0.0086 -0.3230
  133MOL   C26042764   2.640   2.497   7.486 -0.1169  0.5031 -0.5447
  133MOL  Cl26142765   2.565   2.428   7.356 -0.3691  0.2423 -0.2444
  133MOL   C26242766   2.775   2.523   7.465 -0.4940  0.0645  0.5767
  133MOL   C26342767   2.840   2.609   7.557 -0.6650  0.0832  0.4523
  133MOL   C26442768   2.781   2.641   7.677  0.3564 -0.2895 -0.4234
  133MOL   C26542769   2.645   2.611   7.700  0.7743  0.6624 -0.0038
  133MOL   C26642770   2.339   2.643   7.509  0.5082  0.5957  0.7518
  133MOL   H26742771   2.384   2.449   7.565 -0.6210  0.2952 -0.3149
  133MOL   H26842772   2.826   2.484   7.378  0.0079  0.5052  0.6777
  133MOL   H26942773   2.943   2.639   7.549 -0.3095 -1.3903 -0.7088
  133MOL   H27042774   2.848   2.691   7.745 -2.4412  0.9058  1.5606
  133MOL   H27142775   2.597   2.624   7.795  0.7683  0.8115 -0.0278
  133MOL   H27242776   2.233   2.620   7.517  0.4555  1.1714  1.6673
  133MOL   H27342777   2.372   2.613   7.409  2.5259  0.3321  1.4786
  133MOL   C27442778   2.370   2.789   7.508 -0.2765 -0.4808 -0.4095
  133MOL   C27542779   2.303   2.854   7.632 -0.1518 -0.4720  0.3821
  133MOL   C27642780   2.374   2.941   7.725 -0.3201 -0.3225  0.0949
  133MOL  Cl27742781   2.544   2.964   7.708  0.3057 -0.3279  0.4280
  133MOL   C27842782   2.302   3.012   7.826 -0.2993 -0.1929  0.1001
  133MOL   C27942783   2.167   2.985   7.844 -0.4411  0.0623 -0.1978
  133MOL   C28042784   2.094   2.904   7.758 -0.1728 -0.5176 -0.1642
  133MOL   C28142785   2.165   2.839   7.655 -0.1217 -0.4966 -0.3852
  133MOL   C28242786   2.314   2.862   7.384  0.0268  0.1486  0.1032
  133MOL   H28342787   2.478   2.799   7.509 -0.0261 -2.7773 -1.0220
  133MOL   H28442788   2.354   3.078   7.893 -0.3156 -0.3943  0.3132
  133MOL   H28542789   2.115   3.031   7.927 -0.0262 -0.6255  0.4457
  133MOL   H28642790   1.988   2.886   7.765 -0.2714 -1.0520 -2.6087
  133MOL   H28742791   2.112   2.771   7.590 -1.3924 -0.3812  0.5071
  133MOL   H28842792   2.232   2.933   7.398 -0.9518 -0.4168 -2.4186
  133MOL   H28942793   2.273   2.785   7.317 -0.4321 -0.3010  0.8934
  133MOL   C29042794   2.421   2.946   7.304  0.2529  0.6912 -0.5660
  133MOL   C29142795   2.355   3.040   7.203  0.2941  0.6526 -0.3253
  133MOL   C29242796   2.307   3.168   7.237 -0.2096  0.4559 -0.4356
  133MOL  Cl29342797   2.325   3.237   7.395  0.1346 -0.3036  0.1905
  133MOL   C29442798   2.241   3.254   7.145 -0.2201  0.3380  0.4686
  133MOL   C29542799   2.224   3.215   7.011  0.2750  0.4394 -0.1781
  133MOL   C29642800   2.271   3.090   6.970  0.0234  0.2117  0.8246
  133MOL   C29742801   2.322   3.001   7.067 -0.0948 -0.1564  0.1442
  133MOL   C29842802   2.537   2.859   7.251  0.1186  0.1431 -0.5947
  133MOL   H29942803   2.454   3.016   7.381  0.0947 -0.5641  0.6615
  133MOL   H30042804   2.211   3.353   7.178  2.0072  1.4512 -0.7333
  133MOL   H30142805   2.178   3.287   6.947  0.2207  0.5769  0.0149
  133MOL   H30242806   2.261   3.071   6.864  0.5786  1.4599  0.5402
  133MOL   H30342807   2.350   2.903   7.032 -0.4858 -0.8720  1.7864
  133MOL   H30442808   2.506   2.806   7.161  1.0218 -1.6836  0.1631
  133MOL   H30542809   2.566   2.786   7.326 -0.1684  1.3148  0.6956
  133MOL   C30642810   2.679   2.929   7.232 -0.1489  0.1556  0.2948
  133MOL   C30742811   2.669   3.035   7.118 -0.4264 -0.2053 -0.0842
  133MOL   C30842812   2.670   3.177   7.141  0.1476 -0.6561  0.5879
  133MOL  Cl30942813   2.661   3.246   7.296 -0.2887 -0.2839 -0.3292
  133MOL   C31042814   2.659   3.265   7.038  0.2030  0.4897  0.2852
  133MOL   C31142815   2.646   3.217   6.904  0.6161  0.2322 -0.1044
  133MOL   C31242816   2.654   3.085   6.874 -0.0892  0.5792  0.6020
  133MOL   C31342817   2.666   2.990   6.983  0.7026 -0.4919  0.0502
  133MOL   C31442818   2.793   2.827   7.226 -0.0960 -0.5865 -0.6298
  133MOL   H31542819   2.693   2.986   7.324 -1.5418 -2.1364  1.9734
  133MOL   H31642820   2.655   3.372   7.049 -1.5962  0.3913  0.8717
  133MOL   H31742821   2.623   3.288   6.826 -2.5376 -1.5282 -0.8655
  133MOL   H31842822   2.638   3.051   6.772  0.9113  1.7506  0.0384
  133MOL   H31942823   2.652   2.886   6.958  0.8122 -0.6644  0.7013
  133MOL   H32042824   2.785   2.766   7.316  0.8403 -0.5480 -0.5089
  133MOL   H32142825   2.879   2.894   7.233  0.0804 -1.0591  2.6019
  133MOL   H32242826   2.787   2.770   7.133  0.4203 -0.7237 -0.5786
  134MOL     C142827   3.142   4.735   1.633  0.2572 -0.0258  0.8215
  134MOL     C242828   3.135   4.779   1.775 -0.4045 -0.3571 -0.2244
  134MOL     C342829   3.182   4.708   1.889  0.5877  0.7606  0.2377
  134MOL    Cl442830   3.279   4.571   1.876 -0.1045 -0.1084  0.0040
  134MOL     C542831   3.163   4.769   2.018 -0.3456 -0.7548  0.3329
  134MOL     C642832   3.099   4.892   2.030 -0.4319  0.1144  0.5379
  134MOL     C742833   3.053   4.963   1.922 -0.3097  0.1970  0.0862
  134MOL     C842834   3.069   4.902   1.796 -0.8156 -0.0114  0.5516
  134MOL     C942835   3.002   4.677   1.604 -0.1421  0.0230 -0.4619
  134MOL    H1042836   3.176   4.814   1.566 -1.6976  0.1468  0.0105
  134MOL    H1142837   3.214   4.724   2.102  1.1029  0.5164  0.1519
  134MOL    H1242838   3.102   4.943   2.125  3.6186  0.7488  0.1663
  134MOL    H1342839   3.000   5.056   1.933  0.2420  0.5892 -0.5356
  134MOL    H1442840   3.039   4.964   1.713  0.6160  1.3284  1.0028
  134MOL    H1542841   2.937   4.760   1.635 -0.0439  0.2723 -0.9110
  134MOL    H1642842   2.986   4.578   1.647 -0.0091 -0.1992 -0.9221
  134MOL    H1742843   3.215   4.653   1.631 -1.0881 -1.2724  1.7495
  134MOL    C1842844   2.979   4.670   1.452  0.5339 -0.0546 -0.0419
  134MOL    C1942845   2.833   4.704   1.415 -0.5574  0.2024  0.8605
  134MOL    C2042846   2.800   4.790   1.309 -1.0892  0.9997 -0.4492
  134MOL   Cl2142847   2.914   4.873   1.212 -0.0224  0.2198 -0.0561
  134MOL    C2242848   2.665   4.814   1.279 -0.6175 -0.0428 -0.1088
  134MOL    C2342849   2.565   4.766   1.358 -0.5505  0.1173  0.0813
  134MOL    C2442850   2.595   4.688   1.472 -0.1975 -0.3134 -0.6659
  134MOL    C2542851   2.729   4.656   1.498  0.2635  0.0365 -0.4821
  134MOL    C2642852   3.010   4.533   1.396  0.0634 -0.4708  0.1835
  134MOL    H2742853   3.038   4.741   1.394  2.4262 -0.5607  1.2351
  134MOL    H2842854   2.643   4.869   1.189  0.0735  2.2453  1.0696
  134MOL    H2942855   2.462   4.774   1.326 -0.0552  2.7998 -0.9588
  134MOL    H3042856   2.518   4.650   1.537 -0.9991  0.7877 -0.9689
  134MOL    H3142857   2.748   4.610   1.594 -2.3256 -1.3367 -0.5882
  134MOL    H3242858   2.969   4.533   1.294 -1.0098  0.6923  0.6051
  134MOL    H3342859   2.939   4.465   1.445  1.6800 -2.0155  0.4265
  134MOL    C3442860   3.165   4.492   1.390  0.1039  0.3706  0.4502
  134MOL    C3542861   3.250   4.591   1.315 -0.4852 -0.1412  0.2345
  134MOL    C3642862   3.374   4.638   1.362 -0.2029 -0.0545  0.3916
  134MOL   Cl3742863   3.449   4.580   1.507 -0.0574  0.4888  0.3621
  134MOL    C3842864   3.450   4.730   1.284  0.2320  0.9564  0.2582
  134MOL    C3942865   3.401   4.777   1.160  0.1354 -0.4515 -0.5670
  134MOL    C4042866   3.277   4.729   1.111  0.3933  0.4133  0.2359
  134MOL    C4142867   3.204   4.643   1.191 -0.0449  0.3932  0.9630
  134MOL    C4242868   3.180   4.356   1.316 -0.1814 -0.1791 -0.4587
  134MOL    H4342869   3.197   4.484   1.494  0.3946 -0.7454  0.2875
  134MOL    H4442870   3.547   4.760   1.320  0.7503  1.2389 -1.3288
  134MOL    H4542871   3.461   4.851   1.110  1.0793  0.0995  1.3482
  134MOL    H4642872   3.249   4.749   1.009 -1.2433  0.4897  0.6904
  134MOL    H4742873   3.120   4.595   1.143  1.9665 -1.0785 -1.1450
  134MOL    H4842874   3.286   4.331   1.306 -0.1219 -0.1281  0.0176
  134MOL    H4942875   3.138   4.361   1.215 -2.6455 -2.6208  0.3737
  134MOL    C5042876   3.111   4.235   1.380  0.5290  0.8212  0.5650
  134MOL    C5142877   3.160   4.208   1.530 -0.5099 -0.9418 -0.9630
  134MOL    C5242878   3.065   4.219   1.636 -0.7691 -0.0493  0.1938
  134MOL   Cl5342879   2.904   4.268   1.594  0.0137 -0.2611  0.1474
  134MOL    C5442880   3.112   4.210   1.772 -0.1840 -0.5171 -0.7922
  134MOL    C5542881   3.245   4.183   1.799  0.2271  0.4421  0.3758
  134MOL    C5642882   3.332   4.163   1.693  0.5443 -0.7890  0.2139
  134MOL    C5742883   3.297   4.179   1.560 -0.1134  0.0044 -0.1432
  134MOL    C5842884   3.131   4.109   1.293 -0.2138 -0.9270  0.4384
  134MOL    H5942885   3.006   4.263   1.384  0.5376  0.7352  1.4258
  134MOL    H6042886   3.038   4.235   1.847 -0.6438 -0.9248 -1.1062
  134MOL    H6142887   3.279   4.173   1.901 -0.6874 -0.0039  0.6390
  134MOL    H6242888   3.437   4.149   1.712  0.8783  1.6091  0.2883
  134MOL    H6342889   3.378   4.171   1.489 -0.1750 -1.2641 -0.0889
  134MOL    H6442890   3.104   4.022   1.352  1.0319 -1.3981  0.3348
  134MOL    H6542891   3.238   4.093   1.280 -0.4052 -0.9915 -1.1566
  134MOL    C6642892   3.081   4.095   1.145  0.1377 -0.1622  0.0286
  134MOL    C6742893   2.934   4.098   1.137  0.2872 -0.1066 -0.0518
  134MOL    C6842894   2.875   4.164   1.020  0.9084  0.0444 -0.8169
  134MOL   Cl6942895   2.964   4.245   0.903  1.0357 -0.3212  0.3025
  134MOL    C7042896   2.737   4.152   0.995 -0.1648 -1.0589 -0.2033
  134MOL    C7142897   2.652   4.074   1.082 -0.0378  0.1825  0.6613
  134MOL    C7242898   2.707   4.022   1.202 -0.1036  0.4954  0.6368
  134MOL    C7342899   2.841   4.034   1.226 -0.5190  0.6353  0.2045
  134MOL    C7442900   3.123   3.957   1.090  0.0810 -0.1948 -0.3789
  134MOL    H7542901   3.124   4.176   1.086 -1.2925 -0.3453 -1.3094
  134MOL    H7642902   2.683   4.197   0.913 -1.4493  2.0197  2.2096
  134MOL    H7742903   2.548   4.058   1.060  0.3538 -0.9503 -0.4080
  134MOL    H7842904   2.643   3.961   1.265 -3.0833  0.5380 -2.1626
  134MOL    H7942905   2.876   3.981   1.313 -4.0456 -0.3593  1.0807
  134MOL    H8042906   3.059   3.931   1.006 -1.3173 -0.6251  0.7990
  134MOL    H8142907   3.104   3.875   1.158  2.0693 -0.1594  0.2524
  134MOL    C8242908   3.267   3.944   1.028 -0.4916 -0.1922  0.4593
  134MOL    C8342909   3.277   4.026   0.898 -0.1160 -0.2566  0.2668
  134MOL    C8442910   3.367   4.136   0.880  0.1774  0.0276 -0.2609
  134MOL   Cl8542911   3.479   4.177   1.000  0.1590 -0.2873 -0.2757
  134MOL    C8642912   3.369   4.208   0.757  0.0868  0.3675  0.1577
  134MOL    C8742913   3.282   4.172   0.652 -0.4440 -0.2951 -0.4851
  134MOL    C8842914   3.200   4.057   0.667 -0.7102  0.3980 -0.0190
  134MOL    C8942915   3.200   3.985   0.786 -0.3803 -0.0577 -0.3904
  134MOL    C9042916   3.302   3.785   0.996  0.2359  0.1616 -0.7918
  134MOL    H9142917   3.338   3.992   1.095 -1.0144  1.3162 -0.0448
  134MOL    H9242918   3.430   4.296   0.746  1.5625 -0.6456  0.1516
  134MOL    H9342919   3.285   4.224   0.557  1.6583  0.4378 -0.0573
  134MOL    H9442920   3.142   4.018   0.585 -1.1707  0.0966  0.4384
  134MOL    H9542921   3.127   3.907   0.798 -1.6125  1.1384  0.0108
  134MOL    H9642922   3.225   3.742   0.932  1.4230 -2.0002 -0.8122
  134MOL    H9742923   3.283   3.729   1.087  2.8248 -0.2382 -0.4364
  134MOL    C9842924   3.437   3.745   0.930 -0.5998  0.3628  0.2148
  134MOL    C9942925   3.435   3.600   0.864 -0.2433 -0.0923 -0.4641
  134MOL   C10042926   3.366   3.572   0.742  0.2059 -0.2739  0.0953
  134MOL  Cl10142927   3.299   3.691   0.635 -0.0361 -0.0854 -0.3449
  134MOL   C10242928   3.344   3.440   0.701 -0.1505  0.2295 -0.1463
  134MOL   C10342929   3.402   3.339   0.774  0.3092 -0.1682 -0.5816
  134MOL   C10442930   3.487   3.361   0.884  0.4397  0.0794 -0.0208
  134MOL   C10542931   3.501   3.493   0.930 -0.5393 -0.6453  0.1188
  134MOL   C10642932   3.558   3.765   1.031  0.0170 -0.5149 -0.1961
  134MOL   H10742933   3.454   3.814   0.847 -0.4180 -1.0411 -0.9374
  134MOL   H10842934   3.294   3.419   0.608 -0.9340 -1.2537  0.5950
  134MOL   H10942935   3.398   3.237   0.737  0.7225 -0.6888  0.7623
  134MOL   H11042936   3.544   3.284   0.935  0.3418  0.4651  0.6728
  134MOL   H11142937   3.582   3.509   1.000  0.4555 -1.1939 -0.8923
  134MOL   H11242938   3.583   3.870   1.013 -1.0855 -0.6594 -2.6139
  134MOL   H11342939   3.646   3.717   0.988  0.7381  0.7780 -0.1983
  134MOL   C11442940   3.543   3.751   1.181  0.8050 -0.2917  0.1314
  134MOL   C11542941   3.667   3.815   1.244 -0.9684  0.3501 -0.5879
  134MOL   C11642942   3.659   3.941   1.318 -0.0746 -0.3974  0.4881
  134MOL  Cl11742943   3.509   4.026   1.308  0.4159 -0.2527 -0.0288
  134MOL   C11842944   3.774   3.993   1.381 -0.4631 -0.2573 -0.5163
  134MOL   C11942945   3.895   3.928   1.372  0.8158 -0.1897 -0.4007
  134MOL   C12042946   3.910   3.808   1.304  0.3060 -0.3354  0.1730
  134MOL   C12142947   3.798   3.754   1.236  0.2917  0.2692  0.4550
  134MOL   C12242948   3.525   3.606   1.239 -0.3578 -0.6149 -0.4587
  134MOL   H12342949   3.455   3.809   1.209  1.4618  1.2340 -0.9190
  134MOL   H12442950   3.774   4.079   1.447 -0.9218 -1.4959  1.1281
  134MOL   H12542951   3.983   3.960   1.427  1.6266 -1.9152 -0.6765
  134MOL   H12642952   4.000   3.749   1.295  0.7482  0.0254  2.1667
  134MOL   H12742953   3.809   3.661   1.183  0.9932  0.7238 -0.2241
  134MOL   H12842954   3.609   3.538   1.223  1.1632  0.8390  1.1702
  134MOL   H12942955   3.447   3.556   1.182 -1.1406  1.8612 -1.6353
  134MOL   C13042956   3.501   3.594   1.390  0.4868 -0.5545  0.2880
  134MOL   C13142957   3.530   3.450   1.436 -0.1692  0.8550  0.3418
  134MOL   C13242958   3.653   3.415   1.495  0.1930  0.1642  0.2228
  134MOL  Cl13342959   3.774   3.536   1.527 -0.0069 -0.1860 -0.1120
  134MOL   C13442960   3.677   3.283   1.543 -0.9224  0.0880 -0.4612
  134MOL   C13542961   3.577   3.193   1.537  0.3383 -0.3927  0.0419
  134MOL   C13642962   3.453   3.224   1.476 -0.0186  0.5166  0.6413
  134MOL   C13742963   3.425   3.354   1.429  0.4482 -0.8231 -0.6151
  134MOL   C13842964   3.373   3.657   1.455  0.1506  1.0430  0.1248
  134MOL   H13942965   3.580   3.651   1.440  0.5237 -0.1367 -0.2461
  134MOL   H14042966   3.770   3.265   1.595 -0.5618 -0.2128 -1.1989
  134MOL   H14142967   3.593   3.092   1.572  0.2513 -1.7595 -3.6650
  134MOL   H14242968   3.383   3.142   1.469 -0.6006  0.9938  0.8038
  134MOL   H14342969   3.328   3.377   1.386  1.3090  1.3104 -1.4447
  134MOL   H14442970   3.288   3.594   1.427  0.1952  0.6711  0.8081
  134MOL   H14542971   3.358   3.753   1.405 -0.5438  0.3734 -0.9851
  134MOL   C14642972   3.370   3.670   1.614 -0.7196 -0.3557 -0.4617
  134MOL   C14742973   3.230   3.675   1.663 -0.4567  0.0621 -0.1690
  134MOL   C14842974   3.177   3.586   1.762 -0.4402  0.0949  0.1137
  134MOL  Cl14942975   3.280   3.447   1.817  0.0834  0.1898  0.1841
  134MOL   C15042976   3.040   3.595   1.789 -0.5220  0.3957  0.8916
  134MOL   C15142977   2.956   3.696   1.736 -0.2040 -0.6080 -0.0610
  134MOL   C15242978   3.012   3.786   1.643 -0.2406  0.0697  0.5640
  134MOL   C15342979   3.149   3.776   1.611 -0.6699  0.0999 -0.3865
  134MOL   C15442980   3.458   3.785   1.670 -0.4957  0.3996  0.3653
  134MOL   H15542981   3.419   3.582   1.656  2.1610  0.9971 -0.8863
  134MOL   H15642982   2.996   3.526   1.860 -1.4707  0.8685  0.7670
  134MOL   H15742983   2.855   3.714   1.768 -0.1556  0.5925 -0.5362
  134MOL   H15842984   2.958   3.869   1.599  1.3968  0.6706 -0.3384
  134MOL   H15942985   3.188   3.843   1.535  0.9608 -0.2546  0.1238
  134MOL   H16042986   3.395   3.874   1.663  1.8943  2.1287  0.0555
  134MOL   H16142987   3.541   3.801   1.601  0.1000 -1.5723  0.5881
  134MOL   C16242988   3.483   3.767   1.820 -0.3434  0.0462  0.0441
  134MOL   C16342989   3.534   3.900   1.869  0.4535  0.3729 -0.1989
  134MOL   C16442990   3.469   3.974   1.967 -0.6571 -0.5374 -0.0328
  134MOL  Cl16542991   3.320   3.916   2.039  0.0134  0.0944 -0.2360
  134MOL   C16642992   3.526   4.093   2.011 -0.1120  0.6412  0.4917
  134MOL   C16742993   3.657   4.127   1.972 -0.0429  0.0042  0.2583
  134MOL   C16842994   3.734   4.049   1.881  0.4123  0.0768 -0.3206
  134MOL   C16942995   3.660   3.945   1.821  0.5004  0.4699 -0.3885
  134MOL   C17042996   3.586   3.652   1.842 -1.0348  0.4328 -0.3334
  134MOL   H17142997   3.388   3.740   1.865 -0.2870 -0.8669 -0.3677
  134MOL   H17242998   3.469   4.166   2.067 -1.6666 -1.4557  1.7137
  134MOL   H17342999   3.703   4.215   2.014  2.1133 -1.7546  1.7033
  134MOL   H17443000   3.832   4.081   1.848  0.8417 -1.5239 -0.6075
  134MOL   H17543001   3.701   3.883   1.743  0.5841 -1.4028  1.1277
  134MOL   H17643002   3.662   3.663   1.765 -1.1502  2.3363 -0.2010
  134MOL   H17743003   3.538   3.558   1.815 -0.4448 -0.3340  1.1920
  134MOL   C17843004   3.671   3.634   1.973  0.0017  0.5403 -0.3694
  134MOL   C17943005   3.769   3.517   1.959 -0.1436  0.3985  0.0515
  134MOL   C18043006   3.903   3.529   2.004 -0.4293  0.3114 -0.5158
  134MOL  Cl18143007   3.965   3.676   2.071  0.6429  0.0981 -0.4287
  134MOL   C18243008   3.994   3.422   1.980  0.1276  0.0500  0.6681
  134MOL   C18343009   3.953   3.307   1.912 -0.3738  0.2406 -0.2847
  134MOL   C18443010   3.818   3.283   1.883 -0.0882  0.1462  0.6171
  134MOL   C18543011   3.728   3.392   1.912 -0.1156  0.1155  0.4295
  134MOL   C18643012   3.572   3.627   2.086 -0.5455 -0.0529 -0.2314
  134MOL   H18743013   3.725   3.724   2.003 -0.7910 -0.0316  2.9425
  134MOL   H18843014   4.100   3.434   1.991  0.2851  0.1723 -0.8616
  134MOL   H18943015   4.024   3.229   1.893 -0.1804 -0.5375  3.2546
  134MOL   H19043016   3.777   3.188   1.853  0.7373 -0.1142  0.3009
  134MOL   H19143017   3.623   3.372   1.897 -0.4194  0.6211  1.8226
  134MOL   H19243018   3.528   3.527   2.082  0.8121 -0.7017  0.6538
  134MOL   H19343019   3.487   3.691   2.063 -0.7647 -0.5435 -0.8162
  134MOL   C19443020   3.617   3.683   2.229 -0.0227  0.2009  0.3607
  134MOL   C19543021   3.522   3.633   2.344 -0.2812 -0.3015 -0.9335
  134MOL   C19643022   3.557   3.532   2.430  0.0105 -0.1555 -0.6153
  134MOL  Cl19743023   3.713   3.445   2.423 -0.5921  0.0237  0.0073
  134MOL   C19843024   3.471   3.512   2.539 -0.4202 -0.9379 -0.6345
  134MOL   C19943025   3.351   3.588   2.555  0.4690 -0.3468  0.8036
  134MOL   C20043026   3.314   3.679   2.451  0.1730  0.3393  0.2253
  134MOL   C20143027   3.405   3.709   2.351 -0.1255  0.1162  0.4285
  134MOL   C20243028   3.664   3.826   2.245 -0.0597 -0.1500 -0.0255
  134MOL   H20343029   3.707   3.622   2.236 -0.1849  0.0723  1.2924
  134MOL   H20443030   3.488   3.431   2.608 -3.1485 -1.4604 -0.5259
  134MOL   H20543031   3.286   3.553   2.633 -0.5262  2.1725  1.1256
  134MOL   H20643032   3.226   3.741   2.446  0.0325  0.0491 -1.0459
  134MOL   H20743033   3.381   3.783   2.276 -0.9948  0.0612  0.6519
  134MOL   H20843034   3.599   3.903   2.203 -0.3698  0.2466  1.1752
  134MOL   H20943035   3.756   3.836   2.187 -0.1267 -0.6184 -0.2071
  134MOL   C21043036   3.704   3.875   2.383  0.3982  0.2355  0.2310
  134MOL   C21143037   3.669   4.021   2.400 -0.0974 -0.1117  0.2805
  134MOL   C21243038   3.566   4.066   2.488 -0.9598 -0.3116 -0.5769
  134MOL  Cl21343039   3.466   3.963   2.583 -0.0716 -0.2697  0.2101
  134MOL   C21443040   3.539   4.203   2.507  0.8382 -0.1571  0.0492
  134MOL   C21543041   3.609   4.292   2.430  0.3570  0.1208 -0.1368
  134MOL   C21643042   3.703   4.247   2.334  0.1448  0.7430 -0.5385
  134MOL   C21743043   3.747   4.117   2.325 -0.1897  0.1472 -0.5865
  134MOL   C21843044   3.845   3.834   2.437  0.1877 -0.2190  0.8308
  134MOL   H21943045   3.636   3.827   2.453  0.2905  0.7922  0.5093
  134MOL   H22043046   3.461   4.235   2.575  0.2816 -0.8055 -0.2815
  134MOL   H22143047   3.574   4.395   2.428 -0.9391 -0.3129 -0.3975
  134MOL   H22243048   3.741   4.319   2.263 -0.6993  2.4858  0.7328
  134MOL   H22343049   3.820   4.098   2.249  3.3004  1.2250  2.3559
  134MOL   H22443050   3.930   3.859   2.374 -0.4442 -0.7228 -0.2175
  134MOL   H22543051   3.839   3.726   2.447 -2.1866 -0.0875  1.1284
  134MOL   C22643052   3.893   3.901   2.580  0.0009  0.4852  0.0496
  134MOL   C22743053   4.048   3.892   2.587  0.0770 -0.0114  0.1187
  134MOL   C22843054   4.128   4.005   2.560  0.1234  0.1887 -0.0159
  134MOL  Cl22943055   4.061   4.161   2.513 -0.4109  0.1457  0.0700
  134MOL   C23043056   4.264   3.996   2.580 -0.2720  0.0771 -0.0729
  134MOL   C23143057   4.326   3.875   2.622 -0.0940 -0.1144  0.5871
  134MOL   C23243058   4.242   3.758   2.650  0.5031  0.4565  0.3343
  134MOL   C23343059   4.107   3.763   2.617  0.2080 -0.5188  0.2077
  134MOL   C23443060   3.829   3.837   2.705 -0.3373 -0.2438  0.1305
  134MOL   H23543061   3.866   4.006   2.574 -0.7365  0.1693 -3.5393
  134MOL   H23643062   4.334   4.071   2.545 -1.1367  0.3286 -1.2755
  134MOL   H23743063   4.431   3.866   2.643  0.0587 -2.3906 -1.0073
  134MOL   H23843064   4.291   3.665   2.674  0.0948 -0.2003 -1.2955
  134MOL   H23943065   4.048   3.673   2.634 -1.7906  0.8664  0.8489
  134MOL   H24043066   3.855   3.733   2.723 -0.3133 -0.0724  1.1092
  134MOL   H24143067   3.721   3.839   2.686 -0.4176  0.6440  0.6621
  134MOL   C24243068   3.856   3.928   2.833  0.0289  0.2697 -0.0122
  134MOL   C24343069   3.830   3.846   2.956  0.6650  0.4943 -0.8524
  134MOL   C24443070   3.932   3.825   3.056 -0.4915 -0.6333  0.0360
  134MOL  Cl24543071   4.091   3.882   3.028  0.3442  0.2888 -0.0039
  134MOL   C24643072   3.902   3.760   3.176 -0.7198  0.2797  0.4704
  134MOL   C24743073   3.777   3.705   3.192 -0.3535 -0.1154  0.1494
  134MOL   C24843074   3.675   3.723   3.099  0.7925  1.1060  0.5330
  134MOL   C24943075   3.697   3.800   2.979  0.1821 -0.2239  0.0533
  134MOL   C25043076   3.766   4.055   2.825 -0.2850  0.4734  0.0701
  134MOL   H25143077   3.961   3.958   2.829  0.2729 -0.5641 -0.0778
  134MOL   H25243078   3.979   3.738   3.249 -0.3666 -0.8974 -0.2303
  134MOL   H25343079   3.761   3.647   3.281 -0.2529  0.9466  0.8615
  134MOL   H25443080   3.577   3.680   3.115  0.8809  0.3796 -0.8043
  134MOL   H25543081   3.627   3.808   2.897  1.0448  2.5274 -0.4833
  134MOL   H25643082   3.663   4.027   2.806  0.0120 -0.2752 -0.4384
  134MOL   H25743083   3.789   4.122   2.742  0.8140 -0.0954 -0.0881
  134MOL   C25843084   3.764   4.148   2.951 -0.4058 -0.1741 -0.7260
  134MOL   C25943085   3.637   4.233   2.956  0.0844 -0.9909  0.7276
  134MOL   C26043086   3.539   4.240   3.058  0.7115  0.3114  0.2076
  134MOL  Cl26143087   3.579   4.174   3.210  0.0673  0.1412 -0.0862
  134MOL   C26243088   3.412   4.303   3.038 -0.6809 -0.5075  0.3443
  134MOL   C26343089   3.390   4.376   2.920  0.4962 -0.4581 -0.7746
  134MOL   C26443090   3.490   4.382   2.826 -0.2084 -0.1425 -0.2392
  134MOL   C26543091   3.607   4.306   2.840 -0.0525  0.4697  0.6721
  134MOL   C26643092   3.898   4.232   2.970 -0.4337  0.2349  0.2531
  134MOL   H26743093   3.767   4.090   3.044  2.2301  1.1947  0.0974
  134MOL   H26843094   3.337   4.296   3.115 -1.6685 -1.8814 -0.7002
  134MOL   H26943095   3.300   4.435   2.907  2.0477  2.3012  0.4050
  134MOL   H27043096   3.473   4.440   2.736  1.6518 -1.3220 -1.3719
  134MOL   H27143097   3.680   4.308   2.761  1.2265 -2.1117  1.7479
  134MOL   H27243098   3.903   4.308   2.892 -0.4440  0.1630  0.1830
  134MOL   H27343099   3.980   4.169   2.935  0.6191  0.7400  1.7115
  134MOL   C27443100   3.935   4.278   3.109  0.4021  0.3059  0.7541
  134MOL   C27543101   4.014   4.409   3.112 -0.4333  0.2574  0.5618
  134MOL   C27643102   3.971   4.514   3.197  0.0136 -0.4026 -0.1799
  134MOL  Cl27743103   3.824   4.507   3.287  0.0242 -0.0340  0.1585
  134MOL   C27843104   4.042   4.633   3.203 -0.2732 -0.9457 -0.0809
  134MOL   C27943105   4.170   4.641   3.143  0.2030 -0.2016 -1.1989
  134MOL   C28043106   4.212   4.532   3.063 -0.3096 -0.6479 -0.6144
  134MOL   C28143107   4.130   4.423   3.037  0.1043  0.0279  0.5456
  134MOL   C28243108   4.025   4.167   3.191  0.6559 -0.0925  0.2288
  134MOL   H28343109   3.842   4.284   3.165  0.4900 -2.2963  1.2709
  134MOL   H28443110   3.999   4.720   3.251  0.7337 -1.8428  2.5278
  134MOL   H28543111   4.223   4.735   3.149  0.9567 -0.5853 -1.7892
  134MOL   H28643112   4.311   4.528   3.018 -0.9949 -0.9230 -2.1121
  134MOL   H28743113   4.174   4.341   2.983 -0.4033  0.2958 -0.2845
  134MOL   H28843114   4.127   4.164   3.154  0.0584  0.3240 -1.5087
  134MOL   H28943115   3.976   4.070   3.179  0.5725  0.0978 -1.0742
  134MOL   C29043116   4.033   4.192   3.341  0.1380  0.5226 -0.0977
  134MOL   C29143117   4.168   4.138   3.403  0.1442 -0.2179  0.2534
  134MOL   C29243118   4.284   4.216   3.406 -0.3900  0.0480  0.7260
  134MOL  Cl29343119   4.295   4.378   3.346  0.0484 -0.1370 -0.2868
  134MOL   C29443120   4.403   4.164   3.453 -0.5037 -0.4390 -0.5610
  134MOL   C29543121   4.411   4.022   3.483  0.7112 -0.3910 -1.0002
  134MOL   C29643122   4.292   3.939   3.480  0.5141 -0.2326 -0.2942
  134MOL   C29743123   4.173   3.999   3.443  0.1970  0.4421  0.1461
  134MOL   C29843124   3.901   4.156   3.420 -0.1242  0.0169 -0.0695
  134MOL   H29943125   4.046   4.300   3.353 -1.7573  1.1028 -2.7074
  134MOL   H30043126   4.490   4.228   3.454 -1.5466  0.9909  0.3439
  134MOL   H30143127   4.509   3.984   3.505  0.7689  1.3676  2.2661
  134MOL   H30243128   4.289   3.838   3.520  1.3353 -0.3964 -0.6554
  134MOL   H30343129   4.077   3.950   3.451 -0.0258  0.7338 -0.6736
  134MOL   H30443130   3.898   4.048   3.404 -0.9058  0.3240 -2.1116
  134MOL   H30543131   3.813   4.204   3.378 -0.1665 -0.7449 -0.8473
  134MOL   C30643132   3.908   4.189   3.572  0.2759  0.0601 -0.1685
  134MOL   C30743133   3.803   4.114   3.656  0.8258 -0.0097  0.1545
  134MOL   C30843134   3.832   3.993   3.723  0.3557 -0.2705  0.1582
  134MOL  Cl30943135   3.993   3.925   3.711  0.1206  0.1848 -0.5012
  134MOL   C31043136   3.728   3.921   3.784 -0.4925 -0.2118  0.0617
  134MOL   C31143137   3.599   3.977   3.801  0.3335 -0.6574  0.9628
  134MOL   C31243138   3.570   4.099   3.738 -0.2802  0.3532 -0.3867
  134MOL   C31343139   3.674   4.169   3.673 -0.2810 -0.0353  0.4546
  134MOL   C31443140   3.906   4.338   3.601  0.1547  0.3149  0.7737
  134MOL   H31543141   4.001   4.155   3.618  0.5031  0.0901 -0.6023
  134MOL   H31643142   3.747   3.825   3.829  3.6149  0.0166 -1.0727
  134MOL   H31743143   3.525   3.905   3.835 -0.7887 -1.0886 -2.2292
  134MOL   H31843144   3.469   4.137   3.729  0.3868  1.9482 -1.4256
  134MOL   H31943145   3.658   4.264   3.624  0.6843  0.2226  0.6268
  134MOL   H32043146   3.918   4.365   3.706 -1.6309 -2.2831  1.6798
  134MOL   H32143147   3.811   4.374   3.561 -0.7861 -1.3082  1.5127
  134MOL   H32243148   3.986   4.380   3.540 -1.6856  1.2448 -1.0661
  135MOL     C143149   3.635   8.110   8.057 -0.7243  0.4316  0.6032
  135MOL     C243150   3.780   8.142   8.088  0.2343 -0.0432 -0.0072
  135MOL     C343151   3.816   8.207   8.214  0.3557  0.4483 -0.3524
  135MOL    Cl443152   3.699   8.236   8.339  0.1000 -0.2028  0.2019
  135MOL     C543153   3.951   8.242   8.231  0.4182  0.3538  0.0751
  135MOL     C643154   4.047   8.211   8.133 -0.2278  0.0312  0.1230
  135MOL     C743155   4.013   8.151   8.013 -0.2953 -0.9008 -0.0466
  135MOL     C843156   3.877   8.122   7.986 -0.0050  0.0751  0.3095
  135MOL     C943157   3.555   8.244   8.032 -0.9927  0.3866  0.0560
  135MOL    H1043158   3.638   8.042   7.972  1.7142  0.3817  0.7198
  135MOL    H1143159   3.978   8.280   8.328  0.6234 -0.0678  0.1818
  135MOL    H1243160   4.153   8.228   8.149 -0.3158  2.4047 -1.6205
  135MOL    H1343161   4.091   8.139   7.938 -0.9075  1.3534 -1.1041
  135MOL    H1443162   3.835   8.078   7.897 -0.1642 -2.1584  1.4578
  135MOL    H1543163   3.584   8.285   7.935  2.8353 -0.2516  0.8255
  135MOL    H1643164   3.576   8.319   8.109  0.3487 -0.9117  0.9915
  135MOL    H1743165   3.593   8.057   8.143 -0.8098  1.7786  1.3927
  135MOL    C1843166   3.398   8.233   8.032  0.1535  0.4437  0.3401
  135MOL    C1943167   3.346   8.117   7.941  0.0564 -0.4081 -0.0434
  135MOL    C2043168   3.232   8.043   7.983 -0.3489  0.2449  0.7398
  135MOL   Cl2143169   3.135   8.088   8.123 -0.4228  0.1612  0.4150
  135MOL    C2243170   3.182   7.935   7.905  0.2282 -0.6706 -0.0205
  135MOL    C2343171   3.240   7.908   7.787  0.2308  0.0421 -0.2229
  135MOL    C2443172   3.347   7.982   7.737 -0.0355 -0.7746 -0.0042
  135MOL    C2543173   3.403   8.085   7.815  0.5730  0.3593  0.6527
  135MOL    C2643174   3.329   8.355   7.976 -0.1697  0.5915  0.2241
  135MOL    H2743175   3.363   8.227   8.135 -0.0670  1.9865  0.3715
  135MOL    H2843176   3.096   7.874   7.930  2.0279 -1.8272  3.7341
  135MOL    H2943177   3.196   7.825   7.734 -1.8389  0.9871  0.0088
  135MOL    H3043178   3.387   7.963   7.639  1.6439  1.3282  0.2360
  135MOL    H3143179   3.498   8.127   7.785  1.6381 -1.8509  0.8347
  135MOL    H3243180   3.223   8.332   7.982 -0.2901  0.8855 -0.6912
  135MOL    H3343181   3.339   8.369   7.868  2.6565  1.0955  0.5064
  135MOL    C3443182   3.346   0.068   8.049  0.6985 -0.1733  0.2121
  135MOL    C3543183   3.289   0.071   8.193 -0.0278 -0.1560 -0.4874
  135MOL    C3643184   3.364   0.108   8.307 -0.6981 -0.2551  0.0984
  135MOL   Cl3743185   3.526   0.167   8.297 -0.4397 -0.3569  0.4587
  135MOL    C3843186   3.312   0.100   0.011  0.5053 -0.1704  0.2011
  135MOL    C3943187   3.186   0.039   0.039 -0.2135 -0.2867  0.2432
  135MOL    C4043188   3.107   0.003   8.350 -0.5274 -0.0552 -0.3867
  135MOL    C4143189   3.156   0.020   8.215 -0.3173 -0.2109  0.0942
  135MOL    C4243190   3.284   0.182   7.961  0.0378 -0.4038  0.7895
  135MOL    H4343191   3.453   0.087   8.060  0.1263  3.7767 -0.1612
  135MOL    H4443192   3.379   0.131   0.090 -0.7071 -1.1584  1.6514
  135MOL    H4543193   3.151   0.014   0.137  1.4345 -1.2521  0.6079
  135MOL    H4643194   3.017   8.365   8.363 -0.6381  0.1787 -0.0872
  135MOL    H4743195   3.104   8.406   8.127  2.6154 -0.8976 -1.4592
  135MOL    H4843196   3.175   0.183   7.964  0.0051  0.6141 -0.5339
  135MOL    H4943197   3.299   0.159   7.855  1.6039  1.0958  0.6714
  135MOL    C5043198   3.333   0.324   7.975 -0.2819 -0.0859  0.1709
  135MOL    C5143199   3.226   0.420   7.920  0.2919 -0.8018  0.0651
  135MOL    C5243200   3.149   0.497   8.008  0.4925  0.2627  0.2212
  135MOL   Cl5343201   3.188   0.501   8.173  0.1461  0.0654 -0.3631
  135MOL    C5443202   3.039   0.569   7.968 -0.1057 -0.4891  0.0283
  135MOL    C5543203   2.999   0.573   7.832 -0.4865  0.1393  0.2096
  135MOL    C5643204   3.075   0.497   7.740 -0.1037  0.3316  0.1713
  135MOL    C5743205   3.191   0.423   7.781  0.4281  0.0797  0.3590
  135MOL    C5843206   3.469   0.350   7.902  0.2498  0.1500  0.2771
  135MOL    H5943207   3.351   0.336   8.081 -1.3588  0.7423  0.2588
  135MOL    H6043208   2.975   0.622   8.036  0.5049  2.6247 -1.7297
  135MOL    H6143209   2.900   0.610   7.809 -1.6042 -2.9388 -0.1221
  135MOL    H6243210   3.044   0.480   7.638  0.3783 -1.6144  0.3448
  135MOL    H6343211   3.243   0.363   7.708  0.5667  1.2270 -0.5002
  135MOL    H6443212   3.450   0.349   7.795 -0.9020 -0.6406  0.4809
  135MOL    H6543213   3.528   0.258   7.909 -1.7586 -1.1475  0.5149
  135MOL    C6643214   3.555   0.479   7.950 -0.1398  0.9664 -0.2827
  135MOL    C6743215   3.486   0.611   7.921 -0.0068  0.1745  0.7490
  135MOL    C6843216   3.461   0.706   8.021  0.1505  0.0986  0.1390
  135MOL   Cl6943217   3.487   0.677   8.187 -0.5036 -0.2216 -0.3951
  135MOL    C7043218   3.402   0.826   7.994  0.5602 -0.1114  0.1096
  135MOL    C7143219   3.372   0.861   7.859 -0.4982 -0.7878  0.2285
  135MOL    C7243220   3.397   0.772   7.755 -0.1155  0.0960 -0.2845
  135MOL    C7343221   3.452   0.646   7.787 -0.0908  0.1362 -0.1600
  135MOL    C7443222   3.686   0.477   7.866  0.0150 -0.1785 -0.3301
  135MOL    H7543223   3.569   0.472   8.058  1.3837  0.4558 -0.5059
  135MOL    H7643224   3.376   0.897   8.072 -0.3964 -1.6290  1.1855
  135MOL    H7743225   3.344   0.963   7.837  1.2612 -0.4620 -0.5995
  135MOL    H7843226   3.383   0.793   7.650 -0.5901  1.8731  0.1271
  135MOL    H7943227   3.469   0.578   7.705  0.9838  2.4988 -1.9388
  135MOL    H8043228   3.739   0.572   7.862  2.1857 -1.3467  0.3507
  135MOL    H8143229   3.657   0.460   7.762  1.1691 -1.4286 -0.4599
  135MOL    C8243230   3.786   0.372   7.925 -0.1905 -0.7848  0.7353
  135MOL    C8343231   3.806   0.386   8.074 -0.2295  0.2047 -0.4355
  135MOL    C8443232   3.819   0.270   8.153 -0.2098  0.1585 -0.8888
  135MOL   Cl8543233   3.798   0.112   8.092  0.1454 -0.3017  0.0347
  135MOL    C8643234   3.869   0.274   8.288  0.4298  0.8087  0.2192
  135MOL    C8743235   3.885   0.402   8.345  0.3476 -0.4153  0.4569
  135MOL    C8843236   3.867   0.521   8.270 -0.3022  0.5587  0.1538
  135MOL    C8943237   3.828   0.514   8.135 -0.3305  0.4129 -0.7014
  135MOL    C9043238   3.920   0.378   7.850  0.3242  0.3676  0.3324
  135MOL    H9143239   3.743   0.275   7.900 -0.1569 -0.7081  0.3867
  135MOL    H9243240   3.875   0.188   8.354 -0.9416  1.1165  0.7652
  135MOL    H9343241   3.913   0.403   0.029 -0.5825  0.4348  0.7013
  135MOL    H9443242   3.899   0.619   8.303 -1.1760  1.4406 -1.5097
  135MOL    H9543243   3.813   0.606   8.081 -2.0507 -0.7955 -2.3391
  135MOL    H9643244   3.991   0.319   7.908 -0.5386 -0.3765  0.6480
  135MOL    H9743245   3.966   0.477   7.853 -0.6125  0.7724  1.5048
  135MOL    C9843246   3.906   0.321   7.704  0.1870 -0.1828  1.0753
  135MOL    C9943247   3.844   0.176   7.705  0.6338  0.0052  0.4534
  135MOL   C10043248   3.710   0.145   7.658 -0.0932  0.3285  0.3037
  135MOL  Cl10143249   3.612   0.269   7.593  0.1725  0.2041  0.2430
  135MOL   C10243250   3.673   0.008   7.659 -0.0877  0.5671 -0.0750
  135MOL   C10343251   3.757   8.324   7.697  0.3782  0.4006 -0.5322
  135MOL   C10443252   3.887   8.361   7.746  0.2193 -0.2075 -0.7187
  135MOL   C10543253   3.930   0.074   7.746  0.8475 -0.4539  0.2989
  135MOL   C10643254   4.041   0.328   7.631 -0.3447 -0.6057 -0.0683
  135MOL   H10743255   3.832   0.382   7.652  2.0949  1.4166  0.2198
  135MOL   H10843256   3.574   8.396   7.627  0.4021  0.1572 -1.2029
  135MOL   H10943257   3.715   8.225   7.697  0.9831  0.1199  0.9243
  135MOL   H11043258   3.952   8.288   7.791  1.0509  0.3699 -0.9730
  135MOL   H11143259   4.032   0.085   7.778  1.0944  0.3461 -0.7431
  135MOL   H11243260   4.021   0.270   7.541 -1.9623 -0.4773  0.1869
  135MOL   H11343261   4.121   0.265   7.671 -1.1686 -1.3381  0.4540
  135MOL   C11443262   4.108   0.470   7.622  0.1568 -0.2524 -0.5056
  135MOL   C11543263   4.017   0.583   7.576  0.1557  0.0231  0.4208
  135MOL   C11643264   4.004   0.707   7.639 -0.8521 -0.1321 -0.5478
  135MOL  Cl11743265   4.095   0.748   7.785  0.0441  0.1237  0.3761
  135MOL   C11843266   3.934   0.811   7.582 -0.0895 -0.6001 -0.1474
  135MOL   C11943267   3.849   0.786   7.472  0.2844  0.6890 -0.0730
  135MOL   C12043268   3.858   0.661   7.405  0.0730 -0.3412  0.6260
  135MOL   C12143269   3.939   0.561   7.460  0.1721  0.7383 -0.1703
  135MOL   C12243270   4.231   0.471   7.520  0.1861  0.1361  0.8527
  135MOL   H12343271   4.143   0.503   7.720 -1.4607 -1.3656  0.4615
  135MOL   H12443272   3.933   0.904   7.637 -2.5087 -0.4825 -0.3013
  135MOL   H12543273   3.783   0.857   7.426  0.1733  0.4589 -0.2690
  135MOL   H12643274   3.796   0.646   7.318  0.9332  0.6774 -0.1804
  135MOL   H12743275   3.947   0.471   7.400 -1.1273 -0.6965  1.7270
  135MOL   H12843276   4.261   0.573   7.495  0.1567  0.0372  0.4167
  135MOL   H12943277   4.198   0.437   7.422  0.4398  1.6345  0.2358
  135MOL   C13043278   4.354   0.392   7.562 -0.1231  0.3724  0.4126
  135MOL   C13143279   4.408   0.424   7.699  0.2114 -0.2300  1.0836
  135MOL   C13243280   4.426   0.318   7.792  0.4480 -0.4017 -0.3730
  135MOL  Cl13343281   4.395   0.154   7.759  0.0740 -0.2588  0.2210
  135MOL   C13443282   4.454   0.353   7.924 -1.2276 -0.1348  0.1687
  135MOL   C13543283   4.479   0.484   7.960  0.2499 -0.2696  0.2688
  135MOL   C13643284   4.466   0.589   7.865 -0.1536 -0.2933 -0.0145
  135MOL   C13743285   4.436   0.555   7.734 -0.4271 -0.2945  0.1973
  135MOL   C13843286   4.467   0.398   7.459  0.1296  0.4179  0.0157
  135MOL   H13943287   4.312   0.292   7.558  0.6628  0.1133 -1.8536
  135MOL   H14043288   4.472   0.279   8.000  0.4966 -0.7335 -0.8025
  135MOL   H14143289   4.498   0.512   8.063  1.8608 -0.3716  0.0211
  135MOL   H14243290   4.479   0.688   7.905 -1.7892  0.2341 -0.7613
  135MOL   H14343291   4.421   0.638   7.666  0.8280  0.4778  0.8591
  135MOL   H14443292   4.564   0.385   7.508  0.6354 -0.0687 -1.0815
  135MOL   H14543293   4.483   0.503   7.433 -1.3304  0.8460  0.8311
  135MOL   C14643294   4.442   0.312   7.335  0.5746 -0.2336 -0.1507
  135MOL   C14743295   4.449   0.160   7.361 -0.2486  0.2682  0.7870
  135MOL   C14843296   4.335   0.082   7.350 -0.2580  0.6663  0.1196
  135MOL  Cl14943297   4.186   0.153   7.288 -0.1540 -0.1195  0.1586
  135MOL   C15043298   4.342   8.364   7.386  0.2771 -0.2013  0.7703
  135MOL   C15143299   4.466   8.312   7.414  0.8769 -0.3514  0.2412
  135MOL   C15243300   4.581   8.386   7.419 -0.4969 -0.4433 -0.4860
  135MOL   C15343301   4.575   0.103   7.389  0.1838  0.4552  0.0865
  135MOL   C15443302   4.533   0.340   7.206 -1.0938  0.2316 -0.2722
  135MOL   H15543303   4.345   0.344   7.299  1.3896  2.6260  0.0321
  135MOL   H15643304   4.252   8.305   7.379  0.3257 -0.3883  1.6268
  135MOL   H15743305   4.472   8.210   7.450 -0.8471 -0.4127  0.3786
  135MOL   H15843306   4.676   8.347   7.454 -0.8075 -1.8027 -1.0988
  135MOL   H15943307   4.655   0.174   7.399 -0.9879  1.6787  0.8249
  135MOL   H16043308   4.523   0.256   7.138  1.0335 -0.5387  0.3239
  135MOL   H16143309   4.637   0.357   7.234 -1.3082 -0.7543  1.1891
  135MOL   C16243310   4.490   0.463   7.123  0.5931  0.2170 -0.7883
  135MOL   C16343311   4.348   0.452   7.061 -0.1123  0.1528  0.3628
  135MOL   C16443312   4.246   0.541   7.096  0.0073  0.5552  0.2565
  135MOL  Cl16543313   4.267   0.661   7.213  0.0088  0.2250  0.1818
  135MOL   C16643314   4.116   0.520   7.047  0.3263  0.2166  0.1489
  135MOL   C16743315   4.093   0.420   6.952 -0.3569  0.2300  0.1644
  135MOL   C16843316   4.197   0.341   6.904  0.2355 -0.0239 -0.9774
  135MOL   C16943317   4.325   0.360   6.959 -0.3501  0.4102  0.0643
  135MOL   C17043318   4.588   0.503   7.009  0.2487 -0.5303 -0.8791
  135MOL   H17143319   4.490   0.546   7.194 -3.4529 -2.1400  2.1828
  135MOL   H17243320   4.036   0.578   7.090  0.2983  1.3082 -1.3254
  135MOL   H17343321   3.996   0.403   6.909 -0.6704 -1.4610  1.4714
  135MOL   H17443322   4.187   0.274   6.821  1.2062  0.6058 -1.6085
  135MOL   H17543323   4.408   0.303   6.919 -0.6825  0.7331 -1.1100
  135MOL   H17643324   4.540   0.566   6.935  0.9922 -1.6022 -2.2918
  135MOL   H17743325   4.609   0.419   6.943 -0.9841  0.0735 -2.0538
  135MOL   C17843326   4.710   0.587   7.054 -0.1264  0.2296  0.6297
  135MOL   C17943327   4.660   0.722   7.116 -0.4524  0.1753 -0.2572
  135MOL   C18043328   4.683   0.744   7.252 -0.1103  0.1358 -0.7745
  135MOL  Cl18143329   4.750   0.640   7.363 -0.2782 -0.2226 -0.2749
  135MOL   C18243330   4.655   0.873   7.302 -0.3689 -1.3091  0.2844
  135MOL   C18343331   4.601   0.982   7.223  0.4082 -0.6142 -0.3776
  135MOL   C18443332   4.558   0.947   7.093  0.2585 -0.5411  0.2641
  135MOL   C18543333   4.591   0.819   7.040 -0.1612  0.4190 -0.2458
  135MOL   C18643334   4.808   0.614   6.936  0.1727 -0.5943 -0.1452
  135MOL   H18743335   4.769   0.533   7.128  0.2852 -0.0621  0.0915
  135MOL   H18843336   4.652   0.892   7.408 -0.9258 -0.6879  0.1642
  135MOL   H18943337   4.558   1.072   7.263 -0.9558 -0.6381 -1.7553
  135MOL   H19043338   4.496   1.016   7.037 -0.4889  0.3453  2.1566
  135MOL   H19143339   4.570   0.801   6.936  2.5639  3.0128 -1.3321
  135MOL   H19243340   4.881   0.687   6.971  0.6393 -2.4337  2.9149
  135MOL   H19343341   4.763   0.663   6.850  0.2905 -2.2136 -1.1419
  135MOL   C19443342   4.880   0.493   6.883 -0.1034 -0.0609 -0.0427
  135MOL   C19543343   5.005   0.469   6.967 -0.1497  0.3671  0.3221
  135MOL   C19643344   5.005   0.366   7.068  0.0411  0.3653 -0.8017
  135MOL  Cl19743345   4.865   0.275   7.094 -0.0694 -0.1935  0.2907
  135MOL   C19843346   5.117   0.337   7.140  0.0260  0.8709 -0.3609
  135MOL   C19943347   5.232   0.410   7.119 -0.7017  0.0128 -0.2801
  135MOL   C20043348   5.238   0.510   7.019  0.1876 -0.0817  0.3338
  135MOL   C20143349   5.127   0.542   6.949 -0.2156  0.3214 -0.3674
  135MOL   C20243350   4.916   0.501   6.733 -0.3463 -0.1016 -0.4337
  135MOL   H20343351   4.808   0.412   6.875  0.7462 -1.1259  2.4827
  135MOL   H20443352   5.128   0.256   7.211  0.1213 -0.1916 -1.5642
  135MOL   H20543353   5.323   0.392   7.174 -1.3112  0.9501  1.0734
  135MOL   H20643354   5.329   0.568   7.008 -1.3652  2.3314 -0.2491
  135MOL   H20743355   5.138   0.627   6.882 -2.2373 -1.1862 -2.6820
  135MOL   H20843356   4.982   0.419   6.703  1.5368  1.1471  0.2002
  135MOL   H20943357   4.987   0.582   6.717 -0.2863  0.3950  2.1251
  135MOL   C21043358   4.796   0.510   6.635  0.1464  0.6535  0.3055
  135MOL   C21143359   4.728   0.373   6.621  0.7226 -0.8495 -0.2554
  135MOL   C21243360   4.591   0.355   6.639  0.0957  0.0318 -0.2675
  135MOL  Cl21343361   4.486   0.486   6.668 -0.2374  0.0151  0.0583
  135MOL   C21443362   4.531   0.230   6.624 -0.6805 -0.0427 -0.2984
  135MOL   C21543363   4.606   0.115   6.589  0.1409 -0.4155  0.3539
  135MOL   C21643364   4.744   0.134   6.563  0.3261 -0.8881 -0.7383
  135MOL   C21743365   4.806   0.263   6.581  0.2778  0.0572 -0.3724
  135MOL   C21843366   4.864   0.554   6.494  0.2509  0.3929  0.4996
  135MOL   H21943367   4.728   0.587   6.673 -1.4275  0.2626 -1.6112
  135MOL   H22043368   4.426   0.217   6.650 -0.9741 -1.0426 -1.9174
  135MOL   H22143369   4.565   0.018   6.566  2.1359 -0.8816 -1.3937
  135MOL   H22243370   4.805   0.050   6.534  0.5563 -0.3234 -1.9044
  135MOL   H22343371   4.912   0.271   6.558  0.1846 -0.5148 -1.0083
  135MOL   H22443372   4.782   0.540   6.424 -0.1005  1.6834  0.6473
  135MOL   H22543373   4.937   0.481   6.459  1.4473  2.2987 -1.0362
  135MOL   C22643374   4.901   0.695   6.490 -0.5557 -0.3375 -0.4841
  135MOL   C22743375   4.791   0.790   6.545  0.3181  0.4479 -0.7149
  135MOL   C22843376   4.806   0.884   6.650  0.4615  0.8474  0.4984
  135MOL  Cl22943377   4.963   0.902   6.721  0.0677 -0.1307  0.2629
  135MOL   C23043378   4.698   0.949   6.702  0.8823 -0.0059 -0.3089
  135MOL   C23143379   4.569   0.934   6.643 -0.4216 -0.3223 -0.0322
  135MOL   C23243380   4.545   0.837   6.536  0.7925 -0.1616  0.0379
  135MOL   C23343381   4.659   0.760   6.494  0.2625 -0.2268  0.3066
  135MOL   C23443382   4.941   0.726   6.344 -0.0051 -0.0735 -0.5538
  135MOL   H23543383   4.991   0.711   6.549 -2.5047  0.7554  2.3079
  135MOL   H23643384   4.712   1.016   6.786  1.9698 -0.5600 -0.0431
  135MOL   H23743385   4.492   0.989   6.695 -1.2782 -0.3786 -1.2366
  135MOL   H23843386   4.445   0.819   6.499  0.3494  3.3834 -0.7541
  135MOL   H23943387   4.639   0.691   6.413  1.4368  0.8722 -0.9403
  135MOL   H24043388   4.931   0.834   6.329  0.4162  0.4651  2.7457
  135MOL   H24143389   4.874   0.679   6.273  0.8219 -0.8503 -0.8183
  135MOL   C24243390   5.087   0.690   6.318 -0.4393 -0.2068  0.1438
  135MOL   C24343391   5.175   0.802   6.370 -0.0714 -0.3775  0.4870
  135MOL   C24443392   5.269   0.783   6.477 -0.7124  0.0678  0.0249
  135MOL  Cl24543393   5.291   0.634   6.563  0.0621 -0.3489 -0.0630
  135MOL   C24643394   5.362   0.886   6.507  0.0412 -0.5705 -0.2945
  135MOL   C24743395   5.358   1.007   6.439 -0.0467 -0.2891  0.7751
  135MOL   C24843396   5.261   1.028   6.343 -0.8207  0.2129  0.5763
  135MOL   C24943397   5.164   0.933   6.309 -0.0860  0.2829 -0.4816
  135MOL   C25043398   5.117   0.675   6.167 -0.0314  0.1861  0.1003
  135MOL   H25143399   5.118   0.595   6.361  0.7488  0.0141 -0.2109
  135MOL   H25243400   5.433   0.876   6.588 -0.6625 -0.1757  0.3683
  135MOL   H25343401   5.432   1.075   6.479  2.1189 -1.3394 -1.2817
  135MOL   H25443402   5.270   1.122   6.290  1.3353 -0.4461 -0.2725
  135MOL   H25543403   5.096   0.957   6.229 -0.7275 -0.3953 -0.1524
  135MOL   H25643404   5.223   0.649   6.154 -0.5004 -0.8225 -1.9933
  135MOL   H25743405   5.118   0.766   6.107  1.7769  1.0072  1.3281
  135MOL   C25843406   5.033   0.576   6.077 -0.8383 -0.3463 -0.9008
  135MOL   C25943407   4.998   0.446   6.147  0.1514 -0.6331 -0.4820
  135MOL   C26043408   4.874   0.377   6.126 -0.6828  0.3089  0.2710
  135MOL  Cl26143409   4.752   0.439   6.019  0.0721 -0.1429 -0.1000
  135MOL   C26243410   4.850   0.250   6.187 -0.0350  0.2570  0.1074
  135MOL   C26343411   4.946   0.188   6.270 -0.7165 -0.1421  0.1559
  135MOL   C26443412   5.070   0.255   6.291 -0.8610 -0.5336  0.0525
  135MOL   C26543413   5.096   0.379   6.222 -0.2416  0.5035 -0.6937
  135MOL   C26643414   5.084   0.548   5.934  0.0860  0.4099 -0.6502
  135MOL   H26743415   4.938   0.629   6.063 -1.6142 -1.6520 -0.6978
  135MOL   H26843416   4.753   0.204   6.174  0.6635 -0.7388 -1.7778
  135MOL   H26943417   4.924   0.087   6.301  1.0228  0.0053  1.9776
  135MOL   H27043418   5.145   0.205   6.350 -1.3821  0.8555  1.9440
  135MOL   H27143419   5.196   0.414   6.240 -1.0570  1.8598  1.5089
  135MOL   H27243420   5.018   0.469   5.899 -0.1853  0.3091  0.0824
  135MOL   H27343421   5.172   0.484   5.931  1.4940  2.3108 -1.0198
  135MOL   C27443422   5.115   0.669   5.837  0.5537  0.8495  0.0120
  135MOL   C27543423   5.003   0.776   5.834  0.1189  0.0299 -0.3346
  135MOL   C27643424   5.022   0.913   5.855 -0.7698 -0.4029  0.6293
  135MOL  Cl27743425   5.180   0.966   5.887  0.1722 -0.0970 -0.2792
  135MOL   C27843426   4.908   0.995   5.850  0.9850 -0.2676  0.1628
  135MOL   C27943427   4.780   0.949   5.826  0.4576 -0.7136 -0.0199
  135MOL   C28043428   4.763   0.811   5.806 -0.4279  0.2790 -0.9898
  135MOL   C28143429   4.873   0.726   5.812 -0.4477  0.8649 -0.4564
  135MOL   C28243430   5.157   0.606   5.702 -0.6038 -0.9115  0.2083
  135MOL   H28343431   5.205   0.720   5.872  1.3644  0.8757 -2.0597
  135MOL   H28443432   4.929   1.100   5.859 -3.0586  0.6809 -0.3433
  135MOL   H28543433   4.700   1.020   5.815 -0.0961 -1.3894 -0.4147
  135MOL   H28643434   4.668   0.763   5.784 -0.6690 -0.0450  0.6770
  135MOL   H28743435   4.860   0.621   5.796 -0.9430  1.1860 -2.2179
  135MOL   H28843436   5.132   0.676   5.622  0.2228  1.1439  1.7038
  135MOL   H28943437   5.086   0.527   5.675  0.0991 -1.5730  0.2754
  135MOL   C29043438   5.302   0.569   5.693  0.4587  0.6135  0.9393
  135MOL   C29143439   5.388   0.695   5.671 -0.1339 -0.0553 -0.7338
  135MOL   C29243440   5.486   0.732   5.761  0.0668  0.3788  0.2842
  135MOL  Cl29343441   5.527   0.638   5.893 -0.3112 -0.1485 -0.4981
  135MOL   C29443442   5.555   0.851   5.749 -0.4612  0.4495 -0.5116
  135MOL   C29543443   5.527   0.935   5.642  0.3303  0.7601  0.1709
  135MOL   C29643444   5.432   0.899   5.542 -0.3992 -0.1450  0.1865
  135MOL   C29743445   5.362   0.781   5.563 -0.1735  0.0417 -0.4575
  135MOL   C29843446   5.317   0.480   5.568 -0.1329 -0.3946 -0.3657
  135MOL   H29943447   5.335   0.504   5.774 -2.0137 -2.4999 -0.4440
  135MOL   H30043448   5.629   0.884   5.821 -2.6212  0.4336  1.7758
  135MOL   H30143449   5.586   1.024   5.627  0.6221  0.5887  0.3010
  135MOL   H30243450   5.408   0.965   5.460  1.6164 -0.0439 -0.3513
  135MOL   H30343451   5.293   0.756   5.483  0.3041 -1.9942 -0.2447
  135MOL   H30443452   5.421   0.447   5.574  0.4659  1.5811  0.6948
  135MOL   H30543453   5.287   0.530   5.477  0.7539 -0.2476 -0.5862
  135MOL   C30643454   5.237   0.347   5.569  0.3463 -0.7792  1.3494
  135MOL   C30743455   5.248   0.268   5.700  0.0305  0.1788  0.8280
  135MOL   C30843456   5.131   0.210   5.752 -0.2557  0.6790  0.1394
  135MOL  Cl30943457   4.968   0.219   5.685 -0.0618  0.0922 -0.2375
  135MOL   C31043458   5.142   0.129   5.868  0.2111  0.3626 -0.0350
  135MOL   C31143459   5.263   0.107   5.936  0.3177  0.1329  0.0226
  135MOL   C31243460   5.380   0.171   5.889  0.1308  0.3253 -0.2312
  135MOL   C31343461   5.369   0.250   5.771 -0.2534  0.3637 -0.7021
  135MOL   C31443462   5.286   0.271   5.439 -0.2503 -0.5779  0.4124
  135MOL   H31543463   5.133   0.374   5.550  0.8206  0.7675  0.8610
  135MOL   H31643464   5.062   0.062   5.897 -1.4709  1.9437 -0.9001
  135MOL   H31743465   5.249   0.049   6.026  0.0767  0.5735  0.2773
  135MOL   H31843466   5.471   0.168   5.947 -0.3649  1.3789  0.6107
  135MOL   H31943467   5.463   0.289   5.734  0.4365  1.0779  1.7248
  135MOL   H32043468   5.214   0.189   5.445 -0.8795 -0.2424 -2.2894
  135MOL   H32143469   5.389   0.236   5.442 -0.5635 -1.5952 -0.3821
  135MOL   H32243470   5.268   0.342   5.359 -0.3473 -1.4085 -0.3078
  136MOL     C143471   2.207   1.148   2.454  0.7002 -0.5640 -0.2689
  136MOL     C243472   2.329   1.193   2.373 -0.8150 -0.0375 -0.6939
  136MOL     C343473   2.317   1.300   2.278  0.3437 -0.0486  0.2152
  136MOL    Cl443474   2.168   1.368   2.250 -0.0907 -0.0054  0.0590
  136MOL     C543475   2.427   1.336   2.201  0.1883 -0.4460 -0.1748
  136MOL     C643476   2.552   1.276   2.213  1.6951 -0.2857  0.0904
  136MOL     C743477   2.571   1.167   2.306  0.9006 -0.3712  0.6914
  136MOL     C843478   2.460   1.131   2.384  0.3277 -0.1314  0.4169
  136MOL     C943479   2.235   1.031   2.555  0.1586  0.4227  0.3509
  136MOL    H1043480   2.171   1.233   2.511  1.2962 -0.0728 -0.6213
  136MOL    H1143481   2.405   1.416   2.132  3.9182  0.5521 -0.2777
  136MOL    H1243482   2.623   1.315   2.141  3.3086 -2.3419  0.5525
  136MOL    H1343483   2.662   1.109   2.316  1.8093  0.7403 -0.9379
  136MOL    H1443484   2.472   1.045   2.448 -1.4172 -2.3685 -2.1400
  136MOL    H1543485   2.306   1.066   2.630  0.7606 -1.3502  0.6208
  136MOL    H1643486   2.295   0.954   2.506 -0.0539  1.1663 -1.1366
  136MOL    H1743487   2.138   1.126   2.373 -0.5622  0.4269  0.5269
  136MOL    C1843488   2.112   0.965   2.623  0.6734 -0.5818 -0.2354
  136MOL    C1943489   2.088   0.834   2.551  0.6114  0.0647 -0.0559
  136MOL    C2043490   2.084   0.706   2.622 -0.2685 -0.3454  0.1261
  136MOL   Cl2143491   2.114   0.700   2.791 -0.0247 -0.0434 -0.0814
  136MOL    C2243492   2.067   0.592   2.555  1.1523  0.4932  0.1919
  136MOL    C2343493   2.047   0.588   2.420  0.0454  0.3364  0.3765
  136MOL    C2443494   2.032   0.711   2.349 -0.5340  1.3969 -0.4962
  136MOL    C2543495   2.059   0.832   2.413 -0.7477  0.6896  0.9437
  136MOL    C2643496   1.984   1.045   2.633  0.4208  0.2333 -0.0928
  136MOL    H2743497   2.145   0.949   2.725  0.6255 -1.2726 -0.3272
  136MOL    H2843498   2.063   0.500   2.611 -0.4795 -0.0537 -0.7832
  136MOL    H2943499   2.024   0.502   2.359 -0.8022  0.8678 -0.0533
  136MOL    H3043500   2.024   0.715   2.242 -0.5030 -0.7439 -0.6180
  136MOL    H3143501   2.051   0.924   2.357 -0.3521  0.1355 -0.0266
  136MOL    H3243502   1.956   1.088   2.537  0.2502 -0.8003 -0.5152
  136MOL    H3343503   2.010   1.143   2.672  0.8684  0.0462  0.0813
  136MOL    C3443504   1.864   0.974   2.701  0.0287 -0.7020  0.0208
  136MOL    C3543505   1.774   0.893   2.602  0.0911  0.8715  0.6158
  136MOL    C3643506   1.702   0.777   2.645 -0.1917 -0.2895 -0.2335
  136MOL   Cl3743507   1.690   0.744   2.812 -0.2127  0.4115  0.0371
  136MOL    C3843508   1.622   0.705   2.554 -0.1148 -0.2372 -0.4392
  136MOL    C3943509   1.601   0.751   2.423 -0.1692  0.3486 -0.0272
  136MOL    C4043510   1.674   0.865   2.381  0.0297 -0.6303 -0.6941
  136MOL    C4143511   1.758   0.939   2.468  0.1759  0.6396 -0.2759
  136MOL    C4243512   1.773   1.070   2.781 -0.1561  0.3093  0.2108
  136MOL    H4343513   1.904   0.898   2.769 -1.1762 -0.5276  0.9473
  136MOL    H4443514   1.579   0.609   2.579  1.2922 -0.9277 -0.6279
  136MOL    H4543515   1.541   0.694   2.353  0.4458  1.1783 -1.2426
  136MOL    H4643516   1.672   0.898   2.278 -2.0602  0.9342 -0.1958
  136MOL    H4743517   1.812   1.023   2.426  0.4989  0.9067  0.6529
  136MOL    H4843518   1.688   1.015   2.822 -0.6081 -0.8452 -2.2050
  136MOL    H4943519   1.728   1.143   2.713 -1.5845  0.8295  1.6755
  136MOL    C5043520   1.833   1.140   2.900 -0.0191  0.0134  0.6300
  136MOL    C5143521   1.880   1.038   3.007 -0.6660  0.7611 -0.0357
  136MOL    C5243522   2.013   1.021   3.058  0.3016 -0.5335 -0.2397
  136MOL   Cl5343523   2.154   1.096   3.001  0.3285 -0.2665  0.0423
  136MOL    C5443524   2.030   0.940   3.173 -0.0047  0.0589 -0.0656
  136MOL    C5543525   1.921   0.866   3.222  0.5372  0.5575  0.4314
  136MOL    C5643526   1.792   0.868   3.165  0.7137 -0.5010 -0.4170
  136MOL    C5743527   1.774   0.963   3.065  0.1967  0.2006  0.1233
  136MOL    C5843528   1.735   1.248   2.957 -0.2320  0.3679 -0.4579
  136MOL    H5943529   1.920   1.194   2.862 -0.3568  0.1955  0.1066
  136MOL    H6043530   2.131   0.928   3.209 -0.7709 -0.8812  1.8189
  136MOL    H6143531   1.933   0.803   3.309  1.8549 -0.1589 -0.2540
  136MOL    H6243532   1.707   0.814   3.204  1.3066 -0.3419  1.1549
  136MOL    H6343533   1.675   0.979   3.023 -0.0164 -1.3461  0.0132
  136MOL    H6443534   1.738   1.251   3.066 -1.2475 -2.9293 -0.2924
  136MOL    H6543535   1.637   1.208   2.930 -0.2310 -1.2925  1.8935
  136MOL    C6643536   1.759   1.383   2.897  0.4783  0.2250  0.0168
  136MOL    C6743537   1.859   1.479   2.977  0.0572 -0.4331  0.4506
  136MOL    C6843538   1.990   1.516   2.924  0.5195  0.3211 -0.1816
  136MOL   Cl6943539   2.054   1.455   2.783  0.3157  0.0725  0.3008
  136MOL    C7043540   2.072   1.606   2.998  0.3365 -0.2231 -0.6628
  136MOL    C7143541   2.024   1.660   3.123  0.1294 -0.0882  0.7746
  136MOL    C7243542   1.895   1.625   3.171  0.0546 -0.3682  0.1217
  136MOL    C7343543   1.813   1.538   3.096  0.3842 -1.3115  0.4954
  136MOL    C7443544   1.622   1.451   2.862  0.4410 -0.0917  0.1901
  136MOL    H7543545   1.798   1.374   2.795  1.7407  1.1311  0.4176
  136MOL    H7643546   2.165   1.637   2.954  1.6712 -0.0672  2.1927
  136MOL    H7743547   2.084   1.726   3.185 -0.0236  0.2921  0.5156
  136MOL    H7843548   1.859   1.664   3.265  1.7441 -0.6937  0.9087
  136MOL    H7943549   1.712   1.526   3.133 -1.1592  0.8648 -2.7655
  136MOL    H8043550   1.629   1.555   2.894  0.1370 -0.0479  0.1138
  136MOL    H8143551   1.537   1.424   2.924 -0.5907 -1.2012 -1.6682
  136MOL    C8243552   1.575   1.444   2.714 -1.2174  0.0397 -0.1923
  136MOL    C8343553   1.674   1.535   2.627  0.5552 -0.5863 -0.3575
  136MOL    C8443554   1.749   1.485   2.518 -0.6198 -0.6432  0.5810
  136MOL   Cl8543555   1.726   1.326   2.457 -0.4099  0.3007 -0.0848
  136MOL    C8643556   1.847   1.569   2.460  0.1214 -0.0207 -0.1951
  136MOL    C8743557   1.859   1.706   2.487  0.0693 -1.0561 -0.5779
  136MOL    C8843558   1.768   1.758   2.582 -0.0740  0.0493 -0.7158
  136MOL    C8943559   1.680   1.673   2.656  0.1274  0.1274 -0.0681
  136MOL    C9043560   1.428   1.486   2.686 -0.2563  0.5998 -0.0082
  136MOL    H9143561   1.589   1.340   2.684 -0.9838 -0.1198  0.4633
  136MOL    H9243562   1.928   1.532   2.398  2.2005  1.5481  1.5059
  136MOL    H9343563   1.942   1.764   2.449  1.3583 -3.8413 -2.1970
  136MOL    H9443564   1.777   1.864   2.600  1.3825 -0.1756 -0.0367
  136MOL    H9543565   1.610   1.715   2.727  0.4595 -0.0733  0.3735
  136MOL    H9643566   1.416   1.491   2.578 -0.0498  1.3874 -0.0038
  136MOL    H9743567   1.410   1.585   2.729 -0.1249  0.3596  0.6028
  136MOL    C9843568   1.312   1.397   2.723 -0.0246 -0.4012 -0.1385
  136MOL    C9943569   1.327   1.269   2.635  0.7263 -0.1220  0.0730
  136MOL   C10043570   1.377   1.149   2.693 -0.7256 -0.1619  0.0294
  136MOL  Cl10143571   1.407   1.139   2.861 -0.0120  0.4463  0.3172
  136MOL   C10243572   1.399   1.040   2.607 -0.0309  0.4533  0.7595
  136MOL   C10343573   1.375   1.058   2.463 -0.3087  0.7775  0.0969
  136MOL   C10443574   1.323   1.166   2.406 -1.3440 -0.0687 -0.5537
  136MOL   C10543575   1.295   1.274   2.497 -0.0604  0.3720 -0.5534
  136MOL   C10643576   1.180   1.465   2.722  0.2877  0.7075  0.0910
  136MOL   H10743577   1.331   1.377   2.828 -2.1269  1.3810  0.6102
  136MOL   H10843578   1.447   0.953   2.651 -1.4793 -2.1155 -2.5616
  136MOL   H10943579   1.401   0.971   2.404 -0.0335  0.1283  1.1714
  136MOL   H11043580   1.311   1.184   2.301 -1.9760 -2.4755 -0.9197
  136MOL   H11143581   1.252   1.366   2.462  0.1524  1.7672  2.6250
  136MOL   H11243582   1.152   1.490   2.619  0.3740 -0.9560 -0.3458
  136MOL   H11343583   1.191   1.560   2.773  1.3712  1.0329 -0.7289
  136MOL   C11443584   1.061   1.400   2.789 -0.1435  0.6461  0.4363
  136MOL   C11543585   1.038   1.249   2.752  0.0087  0.0037 -0.0897
  136MOL   C11643586   1.054   1.146   2.842 -0.3575  0.0635  0.8489
  136MOL  Cl11743587   1.095   1.172   3.009  0.2568 -0.0581  0.3094
  136MOL   C11843588   1.018   1.017   2.801  0.3356  0.1136 -0.8577
  136MOL   C11943589   0.972   0.983   2.673 -0.0113 -0.0132 -0.4671
  136MOL   C12043590   0.958   1.088   2.580 -0.5788 -0.1321  0.1630
  136MOL   C12143591   0.980   1.222   2.620 -0.3072  0.1090 -1.2035
  136MOL   C12243592   0.933   1.483   2.783 -0.5767  0.0582 -0.1427
  136MOL   H12343593   1.089   1.409   2.894 -2.9054  1.5728  1.1157
  136MOL   H12443594   1.027   0.931   2.866  0.7800  0.8853  0.1225
  136MOL   H12543595   0.940   0.883   2.646 -0.7361 -0.0810  0.5808
  136MOL   H12643596   0.927   1.062   2.480  0.2446 -0.8727  0.1011
  136MOL   H12743597   0.979   1.302   2.547 -0.2586 -0.1251 -1.4640
  136MOL   H12843598   0.846   1.422   2.808 -2.7983  2.1157 -2.6616
  136MOL   H12943599   0.925   1.512   2.679 -2.5150  0.4338  0.0986
  136MOL   C13043600   0.923   1.604   2.875  0.1198 -0.6365 -0.1060
  136MOL   C13143601   0.934   1.568   3.026 -0.5871  0.3519 -0.5813
  136MOL   C13243602   1.009   1.655   3.105 -0.0032  0.9112  0.6080
  136MOL  Cl13343603   1.103   1.787   3.042  0.0603  0.1059 -0.6220
  136MOL   C13443604   1.005   1.633   3.245  0.4872  0.2554 -1.1545
  136MOL   C13543605   0.919   1.533   3.301  0.4187 -0.6746  0.1458
  136MOL   C13643606   0.860   1.434   3.217  0.4769 -0.4994 -0.3967
  136MOL   C13743607   0.871   1.450   3.077  0.3585 -0.0447 -0.5865
  136MOL   C13843608   0.790   1.684   2.846  0.1135  0.5402 -0.0638
  136MOL   H13943609   1.002   1.672   2.842 -1.8304  1.1759 -1.2106
  136MOL   H14043610   1.065   1.694   3.311 -1.2958  2.2861 -1.3764
  136MOL   H14143611   0.909   1.513   3.406 -0.7973 -1.7609 -0.1676
  136MOL   H14243612   0.811   1.356   3.273 -1.1959  1.9987  1.7545
  136MOL   H14343613   0.812   1.384   3.013  0.0560 -0.2356 -0.1168
  136MOL   H14443614   0.794   1.769   2.915  0.5572  1.9765 -1.8042
  136MOL   H14543615   0.706   1.619   2.868  0.4281  0.8230  2.1306
  136MOL   C14643616   0.778   1.756   2.706  0.2690 -0.3108 -0.0276
  136MOL   C14743617   0.903   1.833   2.667  0.4575  0.7647  0.3386
  136MOL   C14843618   0.984   1.795   2.560 -0.6817  0.6449  0.0681
  136MOL  Cl14943619   0.948   1.652   2.463  0.1309  0.0641 -0.0341
  136MOL   C15043620   1.099   1.876   2.530 -0.3664 -0.2243  0.0440
  136MOL   C15143621   1.123   2.000   2.599 -0.6819 -0.1112 -0.5199
  136MOL   C15243622   1.035   2.038   2.703  0.0764 -0.3741 -0.3777
  136MOL   C15343623   0.928   1.954   2.734  0.3806 -0.6869 -0.6589
  136MOL   C15443624   0.655   1.847   2.700 -0.5589  0.0517  0.6493
  136MOL   H15543625   0.768   1.680   2.629 -0.6581  0.9159 -1.1455
  136MOL   H15643626   1.168   1.835   2.458  0.0042 -2.2022  1.4749
  136MOL   H15743627   1.210   2.061   2.580 -1.8216  1.5216 -0.5246
  136MOL   H15843628   1.055   2.120   2.771  2.2667 -0.3316 -1.0580
  136MOL   H15943629   0.862   1.987   2.812  0.0601 -1.6665 -0.5103
  136MOL   H16043630   0.649   1.877   2.595 -0.6985  0.3984  0.7569
  136MOL   H16143631   0.675   1.935   2.761 -0.2852 -0.4881  1.3504
  136MOL   C16243632   0.515   1.786   2.714  0.2984  0.6050 -0.2102
  136MOL   C16343633   0.469   1.691   2.599 -0.3251 -0.1856 -0.7980
  136MOL   C16443634   0.470   1.556   2.604 -0.0119  0.1046 -0.3179
  136MOL  Cl16543635   0.549   1.477   2.728 -0.0275 -0.3762  0.2458
  136MOL   C16643636   0.420   1.479   2.498 -0.1926  0.2045 -0.2561
  136MOL   C16743637   0.364   1.542   2.385 -0.2442  0.0656  0.5553
  136MOL   C16843638   0.374   1.681   2.371  0.1698 -0.4017 -0.1685
  136MOL   C16943639   0.424   1.751   2.480  0.3510 -0.7133 -0.7003
  136MOL   C17043640   0.404   1.892   2.756  0.3753  0.6189  0.1692
  136MOL   H17143641   0.536   1.722   2.800 -1.5827 -1.4234 -1.2075
  136MOL   H17243642   0.411   1.372   2.509  1.4568 -0.0685 -1.2894
  136MOL   H17343643   0.321   1.479   2.308 -0.5574 -0.9203  1.5357
  136MOL   H17443644   0.323   1.726   2.287  1.2871  0.8162 -0.2150
  136MOL   H17543645   0.419   1.859   2.481  1.2308 -0.6794 -0.1275
  136MOL   H17643646   0.307   1.842   2.762  0.3486  0.7932  1.3176
  136MOL   H17743647   0.390   1.960   2.672  1.5006 -0.8188 -1.2029
  136MOL   C17843648   0.437   1.983   2.885  0.3616 -0.1035 -0.0085
  136MOL   C17943649   0.505   1.906   3.000 -0.4395  0.6568 -0.4691
  136MOL   C18043650   0.624   1.961   3.059 -0.0190 -0.2757 -0.2734
  136MOL  Cl18143651   0.683   2.117   3.007 -0.4346 -0.0516 -0.1845
  136MOL   C18243652   0.701   1.891   3.156  0.1162  0.8563 -0.1033
  136MOL   C18343653   0.661   1.757   3.185  0.6414  0.2459 -0.0698
  136MOL   C18443654   0.544   1.705   3.128 -0.4677  0.6223  0.0105
  136MOL   C18543655   0.463   1.777   3.042  0.0174  0.0949 -0.2956
  136MOL   C18643656   0.304   2.044   2.938 -0.0506 -0.5096  0.8482
  136MOL   H18743657   0.503   2.064   2.852  1.6026 -0.4995  1.3982
  136MOL   H18843658   0.794   1.925   3.200 -0.2910  1.5353  0.2435
  136MOL   H18943659   0.728   1.704   3.251  2.1706  1.5107 -0.5846
  136MOL   H19043660   0.510   1.606   3.155  2.4447 -0.1906  0.9063
  136MOL   H19143661   0.372   1.733   3.005 -0.5512  0.2371  0.8844
  136MOL   H19243662   0.233   1.970   2.976 -0.7047 -1.6994 -2.5335
  136MOL   H19343663   0.267   2.082   2.843  2.6819  1.2615  0.4327
  136MOL   C19443664   0.313   2.177   3.011  0.2371 -0.0861  1.1218
  136MOL   C19543665   0.357   2.158   3.162  0.8761 -0.3837 -0.4736
  136MOL   C19643666   0.425   2.263   3.228 -0.4296  0.4277  0.2796
  136MOL  Cl19743667   0.485   2.401   3.140 -0.3472 -0.1850  0.5094
  136MOL   C19843668   0.453   2.250   3.365 -0.5576  0.2932 -0.0433
  136MOL   C19943669   0.386   2.147   3.440 -0.5603  0.3341 -0.4368
  136MOL   C20043670   0.319   2.041   3.376 -0.1252 -0.2593  0.0458
  136MOL   C20143671   0.300   2.053   3.239  0.2424  0.1233 -0.3037
  136MOL   C20243672   0.179   2.254   2.998  0.0604  0.1795  0.1859
  136MOL   H20343673   0.390   2.234   2.960 -0.2967  0.8004  1.2950
  136MOL   H20443674   0.510   2.321   3.423  0.5246  0.4815 -1.3051
  136MOL   H20543675   0.412   2.132   3.543  2.4016 -0.0539 -1.2060
  136MOL   H20643676   0.289   1.962   3.443 -1.4877 -1.0804 -1.5280
  136MOL   H20743677   0.239   1.977   3.191  1.6720 -0.4573 -1.2151
  136MOL   H20843678   0.197   2.329   3.075  1.8941  0.8184 -0.8531
  136MOL   H20943679   0.097   2.193   3.038  0.7982 -0.9056  0.0737
  136MOL   C21043680   0.139   2.314   2.865  0.6262 -0.0464  0.0981
  136MOL   C21143681   0.249   2.374   2.779 -0.2023  0.7021  0.2988
  136MOL   C21243682   0.277   2.343   2.645  0.2562  0.1724  0.1425
  136MOL  Cl21343683   0.191   2.220   2.564 -0.5545 -0.0908  0.2337
  136MOL   C21443684   0.388   2.397   2.571 -0.3506  0.6629 -0.0108
  136MOL   C21543685   0.465   2.490   2.639 -0.2583 -0.4506 -0.2859
  136MOL   C21643686   0.433   2.543   2.762 -0.0460  0.1218 -0.0651
  136MOL   C21743687   0.332   2.470   2.834 -0.7796  0.0882 -0.0701
  136MOL   C21843688   0.033   2.417   2.886  0.0230  0.0528 -0.5351
  136MOL   H21943689   0.099   2.236   2.799  0.8554  0.9126 -1.1904
  136MOL   H22043690   0.418   2.359   2.474  0.1219  1.5348 -0.2162
  136MOL   H22143691   0.545   2.535   2.582  0.5033 -2.7301 -1.0765
  136MOL   H22243692   0.492   2.619   2.811 -0.0550  0.1551 -0.1057
  136MOL   H22343693   0.316   2.498   2.937  0.5660  1.0320 -0.1085
  136MOL   H22443694   0.030   2.470   2.791  1.2318  2.9983  1.0054
  136MOL   H22543695   0.052   2.490   2.965 -0.8322 -0.6527  0.3308
  136MOL   C22643696   8.312   2.370   2.907 -0.3713 -0.1137 -0.5459
  136MOL   C22743697   8.252   2.279   2.796  0.3081  0.1912 -0.3306
  136MOL   C22843698   8.206   2.147   2.834 -0.0720 -0.5067 -0.0206
  136MOL  Cl22943699   8.172   2.111   2.996 -0.0863 -0.2211 -0.4960
  136MOL   C23043700   8.170   2.048   2.732 -0.4006 -1.0598  0.7080
  136MOL   C23143701   8.177   2.087   2.601 -0.8196  0.8789 -0.0827
  136MOL   C23243702   8.214   2.219   2.561 -0.1198 -0.2372  0.3557
  136MOL   C23343703   8.249   2.317   2.659  0.7080 -0.2484 -0.1455
  136MOL   C23443704   8.222   2.493   2.918 -0.5354  0.3668  0.4051
  136MOL   H23543705   8.320   2.322   3.004  0.2204 -0.9222 -0.9852
  136MOL   H23643706   8.137   1.949   2.757 -2.1801 -0.3056  1.3935
  136MOL   H23743707   8.154   2.002   2.538  1.0473 -0.2972  0.7828
  136MOL   H23843708   8.210   2.235   2.454  0.7846  2.1343  0.6620
  136MOL   H23943709   8.284   2.414   2.628 -1.3600 -0.5744 -3.7465
  136MOL   H24043710   8.116   2.474   2.899 -0.1253  0.0834 -1.7511
  136MOL   H24143711   8.247   2.557   2.833 -0.0611  1.4199  1.3311
  136MOL   C24243712   8.236   2.561   3.058 -0.2764 -0.0652 -0.4654
  136MOL   C24343713   8.230   2.467   3.179 -0.0665 -0.6782  0.0155
  136MOL   C24443714   8.333   2.476   3.278 -0.0704 -0.4062  0.1012
  136MOL  Cl24543715   0.031   2.597   3.288  0.4836 -0.0046  0.5092
  136MOL   C24643716   8.336   2.387   3.390  0.3145 -0.0720  0.0845
  136MOL   C24743717   8.235   2.289   3.403 -0.2630 -0.6191  0.2640
  136MOL   C24843718   8.136   2.282   3.304  0.4888 -0.4575  0.3596
  136MOL   C24943719   8.129   2.368   3.194 -0.6383 -0.1800  0.7556
  136MOL   C25043720   8.148   2.683   3.081 -0.0144 -0.0414 -0.2393
  136MOL   H25143721   8.334   2.608   3.062  0.6139 -2.0387  1.7961
  136MOL   H25243722   8.412   2.406   3.465  0.9259  1.4937 -0.9081
  136MOL   H25343723   8.231   2.211   3.477  1.2628 -1.2992 -0.3604
  136MOL   H25443724   8.063   2.202   3.312  1.2795 -1.3286 -1.0211
  136MOL   H25543725   8.051   2.362   3.120  1.5207 -2.9105 -1.4262
  136MOL   H25643726   8.188   2.721   3.175  1.3899 -0.4502 -0.6608
  136MOL   H25743727   8.045   2.649   3.092  0.2217 -0.6868  0.0072
  136MOL   C25843728   8.150   2.795   2.974 -0.0297  0.8891 -0.4444
  136MOL   C25943729   8.292   2.835   2.928  0.2644 -0.1668  0.3417
  136MOL   C26043730   8.325   2.846   2.793 -0.1034 -0.2628  0.1204
  136MOL  Cl26143731   8.215   2.801   2.664 -0.0262  0.0377  0.2725
  136MOL   C26243732   0.038   2.867   2.762 -0.2482 -0.3317 -0.3453
  136MOL   C26343733   0.129   2.887   2.866 -0.1842  0.4465 -0.1414
  136MOL   C26443734   0.095   2.910   2.998  0.0229  0.3347 -0.6474
  136MOL   C26543735   8.385   2.874   3.030 -0.2761  0.4341 -0.5190
  136MOL   C26643736   8.065   2.917   3.000  0.4406 -0.6445  1.2936
  136MOL   H26743737   8.101   2.753   2.886  1.3386  1.6128 -1.5538
  136MOL   H26843738   0.067   2.885   2.660  3.1896  0.7457  0.7535
  136MOL   H26943739   0.230   2.896   2.830 -0.4885  1.8274 -0.6772
  136MOL   H27043740   0.168   2.942   3.071 -0.8254  0.1311  0.3050
  136MOL   H27143741   8.353   2.874   3.133  2.6004 -0.9849  0.4283
  136MOL   H27243742   8.090   2.994   2.927  0.9913  0.7804  2.9375
  136MOL   H27343743   8.089   2.964   3.096 -2.4405  0.0386  1.7192
  136MOL   C27443744   7.915   2.883   2.993 -0.0781 -1.0954 -0.3515
  136MOL   C27543745   7.874   2.832   2.855 -0.9305 -0.1010 -0.6050
  136MOL   C27643746   7.820   2.706   2.827 -0.2122  0.1875  0.1241
  136MOL  Cl27743747   7.809   2.594   2.958  0.2436  0.3125 -0.4076
  136MOL   C27843748   7.792   2.668   2.695  0.0418 -0.1865 -0.3652
  136MOL   C27943749   7.809   2.763   2.589 -0.7603  0.8650 -0.3403
  136MOL   C28043750   7.857   2.890   2.612 -0.3228 -0.1433  0.7157
  136MOL   C28143751   7.889   2.927   2.748  0.1832 -0.7714  1.2588
  136MOL   C28243752   7.820   2.999   3.025  0.0426 -0.1276  0.3636
  136MOL   H28343753   7.892   2.807   3.068 -0.1483 -2.1412 -1.4263
  136MOL   H28443754   7.761   2.566   2.678  0.3952 -0.2309 -0.7505
  136MOL   H28543755   7.776   2.728   2.493 -1.2654 -0.2696  0.2351
  136MOL   H28643756   7.862   2.963   2.532  0.3067  0.3024  1.1550
  136MOL   H28743757   7.926   3.025   2.776 -0.3756  0.1538 -1.1085
  136MOL   H28843758   7.720   2.972   2.992  1.1946 -2.6106 -1.2125
  136MOL   H28943759   7.839   3.095   2.977 -0.2395 -1.3069 -2.1335
  136MOL   C29043760   7.801   3.039   3.176  0.0072  0.2976  0.1124
  136MOL   C29143761   7.757   2.921   3.272 -0.1240 -0.1867 -0.0938
  136MOL   C29243762   7.813   2.916   3.403  0.7261 -0.3506  0.2439
  136MOL  Cl29343763   7.935   3.018   3.453 -0.3570 -0.2656 -0.0184
  136MOL   C29443764   7.775   2.805   3.486 -0.2476 -0.4457 -0.4660
  136MOL   C29543765   7.679   2.712   3.444 -0.1933  0.9394 -0.0822
  136MOL   C29643766   7.617   2.728   3.316  0.7754  1.5338 -0.3910
  136MOL   C29743767   7.662   2.830   3.236  0.3129 -0.5201  0.1842
  136MOL   C29843768   7.700   3.149   3.199  0.5056 -0.4741 -0.1355
  136MOL   H29943769   7.896   3.064   3.223  1.0231 -1.3338 -1.0485
  136MOL   H30043770   7.818   2.789   3.584  0.0878  1.1712 -0.3350
  136MOL   H30143771   7.644   2.633   3.508  3.5023  0.2990  1.2686
  136MOL   H30243772   7.544   2.659   3.278  1.3606  0.8252 -0.2314
  136MOL   H30343773   7.627   2.833   3.133 -2.3385 -1.5297  1.0014
  136MOL   H30443774   7.691   3.167   3.306 -0.3477 -0.4437 -0.2129
  136MOL   H30543775   7.605   3.113   3.160 -0.3459 -0.8795  2.2481
  136MOL   C30643776   7.737   3.288   3.148 -0.2758 -0.2655  0.2989
  136MOL   C30743777   7.872   3.337   3.202  0.0620  0.6546  0.8368
  136MOL   C30843778   7.982   3.384   3.122  0.5174  0.3229  0.2960
  136MOL  Cl30943779   7.977   3.397   2.946 -0.4474  0.2453  0.2013
  136MOL   C31043780   8.098   3.434   3.181 -0.2072  0.6066 -0.2029
  136MOL   C31143781   8.114   3.437   3.323  0.3779  0.7685  0.0847
  136MOL   C31243782   8.011   3.390   3.403 -0.4297 -0.5881 -0.1163
  136MOL   C31343783   7.891   3.348   3.338 -0.1104  0.2334  0.2376
  136MOL   C31443784   7.625   3.398   3.172 -0.7344 -0.2327  0.4577
  136MOL   H31543785   7.742   3.273   3.041  0.4685  1.1204  0.1336
  136MOL   H31643786   8.179   3.470   3.119  0.2623  1.3417  0.8239
  136MOL   H31743787   8.210   3.469   3.362  0.1250  1.1117  0.4230
  136MOL   H31843788   8.009   3.370   3.510 -0.1659 -3.4411 -0.6106
  136MOL   H31943789   7.809   3.314   3.399 -0.9318  0.7297 -0.5871
  136MOL   H32043790   7.620   3.441   3.272 -2.1511 -1.0318  0.7410
  136MOL   H32143791   7.534   3.346   3.142 -1.0006 -0.1089  1.0539
  136MOL   H32243792   7.650   3.481   3.106 -3.3301  0.1732 -0.0914
  137MOL     C143793   1.797   4.494   4.222 -0.3776  0.3776  0.3569
  137MOL     C243794   1.829   4.438   4.362 -0.2488 -0.0103  0.1147
  137MOL     C343795   1.856   4.525   4.470 -0.6477 -0.1094  0.1381
  137MOL    Cl443796   1.857   4.698   4.449  0.0358  0.0370  0.1482
  137MOL     C543797   1.866   4.480   4.596  0.6258  0.1068 -0.8198
  137MOL     C643798   1.846   4.347   4.623 -0.0982 -0.0829 -0.1414
  137MOL     C743799   1.825   4.260   4.518  0.4132  0.5556 -0.2380
  137MOL     C843800   1.816   4.301   4.388 -0.2384  0.1465  0.2448
  137MOL     C943801   1.926   4.531   4.152  0.0282 -0.6241  0.5167
  137MOL    H1043802   1.759   4.413   4.159  1.4259 -0.6158  0.4996
  137MOL    H1143803   1.895   4.548   4.674 -1.7060  1.1866 -0.8581
  137MOL    H1243804   1.849   4.309   4.724  0.6570  0.5535  0.0826
  137MOL    H1343805   1.812   4.160   4.556  0.9203 -0.3656 -2.4269
  137MOL    H1443806   1.791   4.235   4.306  0.4466  0.9625 -0.6468
  137MOL    H1543807   1.979   4.436   4.149  1.4586  0.1678  0.2546
  137MOL    H1643808   1.983   4.613   4.197  0.1457 -0.0029 -0.7212
  137MOL    H1743809   1.724   4.575   4.227  1.0194  1.5932  1.5451
  137MOL    C1843810   1.905   4.587   4.006  0.4986 -0.6472 -0.9464
  137MOL    C1943811   2.041   4.570   3.937  0.0326 -0.1068  0.9922
  137MOL    C2043812   2.050   4.495   3.822  0.1538  0.2764 -0.3733
  137MOL   Cl2143813   1.922   4.440   3.736  0.0964 -0.0879  0.5941
  137MOL    C2243814   2.177   4.466   3.764  0.2349 -0.1878 -0.0592
  137MOL    C2343815   2.295   4.525   3.818  0.0751 -0.0869  0.4633
  137MOL    C2443816   2.284   4.604   3.936  0.2374  0.1824 -0.2158
  137MOL    C2543817   2.158   4.628   3.993  0.5556  0.0996 -0.1563
  137MOL    C2643818   1.844   4.726   4.017  0.2588  0.0449  0.1030
  137MOL    H2743819   1.839   4.527   3.944  0.8635 -1.6692 -0.3589
  137MOL    H2843820   2.186   4.425   3.665 -0.1904 -1.4859  0.4293
  137MOL    H2943821   2.391   4.517   3.769 -0.5371  0.5262 -0.8425
  137MOL    H3043822   2.371   4.651   3.978  0.9920 -2.2439  1.0392
  137MOL    H3143823   2.144   4.693   4.078  0.4988  0.6277 -0.5716
  137MOL    H3243824   1.886   4.779   4.102 -0.6508 -0.1035  0.6512
  137MOL    H3343825   1.738   4.718   4.038  0.2173  0.2879 -0.0205
  137MOL    C3443826   1.851   4.807   3.882 -1.2885 -0.1727 -0.1069
  137MOL    C3543827   1.982   4.877   3.872 -0.1672 -0.7274  0.8443
  137MOL    C3643828   2.051   4.881   3.744  0.2238 -0.4406 -0.6406
  137MOL   Cl3743829   1.999   4.795   3.611  0.2022  0.5211 -0.3330
  137MOL    C3843830   2.179   4.946   3.735  0.1432  0.5034 -0.1357
  137MOL    C3943831   2.231   5.004   3.852  0.2302 -0.7083 -0.3131
  137MOL    C4043832   2.167   5.012   3.970  0.6730 -0.1524 -0.1248
  137MOL    C4143833   2.040   4.954   3.982 -0.5545  0.0531  0.0050
  137MOL    C4243834   1.740   4.914   3.856 -0.8245  0.6904  0.6217
  137MOL    H4343835   1.831   4.745   3.795  2.5132 -0.8813 -0.5294
  137MOL    H4443836   2.232   4.950   3.641 -1.8336  2.9092 -1.1985
  137MOL    H4543837   2.332   5.043   3.849  0.0272 -0.0357  1.1071
  137MOL    H4643838   2.198   5.065   4.059  1.5427  0.3180 -0.6912
  137MOL    H4743839   1.987   4.972   4.074 -0.8774 -1.1443  0.0552
  137MOL    H4843840   1.763   4.956   3.758 -0.0812 -1.8114 -0.3135
  137MOL    H4943841   1.750   4.989   3.934 -2.9661  3.0064 -1.2765
  137MOL    C5043842   1.591   4.860   3.864  0.0493  0.7110 -0.4579
  137MOL    C5143843   1.580   4.748   3.758 -0.9516  0.1582 -0.0724
  137MOL    C5243844   1.553   4.618   3.806 -0.2741  0.1368 -0.1330
  137MOL   Cl5343845   1.512   4.580   3.974  0.1561  0.3170 -0.0941
  137MOL    C5443846   1.547   4.516   3.712 -0.3038 -0.4652  0.0503
  137MOL    C5543847   1.562   4.537   3.573 -0.8426 -0.6561  0.5645
  137MOL    C5643848   1.583   4.663   3.525  0.9557 -0.0508  0.0381
  137MOL    C5743849   1.598   4.772   3.614  0.1026  0.3910 -0.0396
  137MOL    C5843850   1.485   4.968   3.838 -0.3571  0.9542 -0.2689
  137MOL    H5943851   1.573   4.827   3.967  1.4536  1.6539  0.0979
  137MOL    H6043852   1.531   4.414   3.744 -1.7639 -0.3955 -0.4329
  137MOL    H6143853   1.559   4.453   3.504  1.7561 -1.2072  1.0823
  137MOL    H6243854   1.600   4.675   3.419 -0.2835  0.9657 -0.0685
  137MOL    H6343855   1.620   4.869   3.572  2.3875  0.8626  2.1838
  137MOL    H6443856   1.389   4.917   3.829 -1.2042  2.4196  0.3924
  137MOL    H6543857   1.511   5.008   3.740  1.0973  0.4247 -0.1117
  137MOL    C6643858   1.474   5.073   3.950 -0.1410 -0.1324 -0.4141
  137MOL    C6743859   1.407   5.011   4.071 -1.1594  0.4523 -0.2672
  137MOL    C6843860   1.478   4.953   4.179 -0.6070 -0.9421  0.0427
  137MOL   Cl6943861   1.649   4.961   4.188 -0.0308  0.0563  0.1414
  137MOL    C7043862   1.421   4.885   4.283  0.1758 -0.6620 -0.9732
  137MOL    C7143863   1.279   4.867   4.280  0.5508 -0.7021 -1.1641
  137MOL    C7243864   1.204   4.948   4.189  0.6849  0.2601  0.1668
  137MOL    C7343865   1.267   5.019   4.087  0.2231  0.9579 -0.7708
  137MOL    C7443866   1.414   5.215   3.914  0.1878 -0.5306 -0.7297
  137MOL    H7543867   1.573   5.097   3.987 -0.1413 -1.2344  0.3227
  137MOL    H7643868   1.477   4.853   4.370  1.0002  1.5735 -0.6271
  137MOL    H7743869   1.228   4.809   4.356  1.2515 -0.5199 -0.5466
  137MOL    H7843870   1.097   4.952   4.202  0.3055 -1.2237 -2.2393
  137MOL    H7943871   1.212   5.076   4.013 -2.5654  1.6460  1.7466
  137MOL    H8043872   1.376   5.261   4.005 -0.0431 -2.1316  0.0098
  137MOL    H8143873   1.326   5.202   3.850  1.2530  1.5142 -2.6722
  137MOL    C8243874   1.533   5.305   3.848  0.1630  0.1876 -0.0523
  137MOL    C8343875   1.658   5.334   3.934  0.4488 -0.1478 -0.5590
  137MOL    C8443876   1.789   5.286   3.889  0.0998  0.9143 -0.7666
  137MOL   Cl8543877   1.827   5.208   3.736 -0.3571  0.0270  0.0006
  137MOL    C8643878   1.901   5.321   3.963  0.0253 -0.1905  0.7065
  137MOL    C8743879   1.892   5.406   4.078  0.3703 -0.2318 -0.1899
  137MOL    C8843880   1.767   5.439   4.127 -0.3977 -0.1315 -0.2611
  137MOL    C8943881   1.648   5.396   4.061  0.5275 -0.3604  0.2338
  137MOL    C9043882   1.476   5.432   3.783  0.9370  0.2775 -0.7420
  137MOL    H9143883   1.568   5.240   3.768 -1.9826 -1.5869  0.4127
  137MOL    H9243884   1.999   5.281   3.942 -0.4153 -1.6205  1.3138
  137MOL    H9343885   1.976   5.434   4.140 -0.1148 -1.5989  1.1151
  137MOL    H9443886   1.768   5.493   4.220  0.4932  0.2999 -0.5177
  137MOL    H9543887   1.552   5.435   4.089  0.4470 -0.0051 -0.5136
  137MOL    H9643888   1.571   5.473   3.750 -0.3146  4.2474  0.3398
  137MOL    H9743889   1.440   5.495   3.865 -0.1837 -0.3672 -0.7336
  137MOL    C9843890   1.382   5.425   3.656 -0.7697  0.3812 -0.2354
  137MOL    C9943891   1.432   5.322   3.554 -0.1428 -0.0417  0.2032
  137MOL   C10043892   1.348   5.211   3.514  0.1840  0.2654  0.2938
  137MOL  Cl10143893   1.185   5.195   3.565  0.0876  0.5287 -0.0430
  137MOL   C10243894   1.398   5.116   3.426  0.0809  0.5787 -0.0771
  137MOL   C10343895   1.529   5.125   3.370  0.0645  0.3903  0.1066
  137MOL   C10443896   1.615   5.227   3.420  0.5974 -0.3549  0.4507
  137MOL   C10543897   1.568   5.328   3.508  0.1062 -0.4329 -0.7064
  137MOL   C10643898   1.363   5.560   3.583  0.6306 -0.0403 -0.2335
  137MOL   H10743899   1.283   5.388   3.682 -0.3926 -0.6039 -0.1539
  137MOL   H10843900   1.338   5.030   3.402  1.5737 -0.8446  1.1998
  137MOL   H10943901   1.568   5.044   3.311 -0.9728  0.0602 -0.1404
  137MOL   H11043902   1.718   5.226   3.386 -0.4205  0.4343 -2.7596
  137MOL   H11143903   1.637   5.400   3.550  0.0573 -1.4185  1.1465
  137MOL   H11243904   1.356   5.537   3.476 -2.5358  1.5785 -0.4416
  137MOL   H11343905   1.454   5.619   3.592  1.8126 -1.5325 -2.0313
  137MOL   C11443906   1.232   5.637   3.620 -0.5867  0.5920 -0.8727
  137MOL   C11543907   1.231   5.664   3.767  0.9855 -0.5140 -0.0512
  137MOL   C11643908   1.312   5.774   3.818 -0.4529  0.4215  0.4305
  137MOL  Cl11743909   1.428   5.861   3.722 -0.0952 -0.4771  0.2172
  137MOL   C11843910   1.284   5.824   3.948 -0.2918  0.0081  0.1224
  137MOL   C11943911   1.187   5.765   4.024 -0.5647 -0.0355 -0.2482
  137MOL   C12043912   1.115   5.653   3.983  0.0529  0.1970 -0.2903
  137MOL   C12143913   1.131   5.607   3.850  0.3539  0.5207  0.1180
  137MOL   C12243914   1.096   5.579   3.558  0.4060  0.4240  0.1098
  137MOL   H12343915   1.244   5.738   3.580  0.0055  1.5697  1.7055
  137MOL   H12443916   1.343   5.899   3.999 -2.0300  0.9057  0.8503
  137MOL   H12543917   1.179   5.806   4.124  0.3511 -2.6725  0.9672
  137MOL   H12643918   1.035   5.611   4.043 -0.9367  1.5209 -0.6696
  137MOL   H12743919   1.075   5.523   3.811  2.7078 -0.8518 -0.4047
  137MOL   H12843920   1.015   5.639   3.598 -0.7482 -0.9803 -0.0831
  137MOL   H12943921   1.060   5.484   3.597 -2.6251  1.6024  0.3004
  137MOL   C13043922   1.094   5.579   3.409  0.1014  0.2103  0.2082
  137MOL   C13143923   1.124   5.714   3.337  0.0192 -0.5246  0.2566
  137MOL   C13243924   1.225   5.725   3.237 -0.5445  0.3373 -0.3233
  137MOL  Cl13343925   1.322   5.596   3.182 -0.0466 -0.0398  0.1905
  137MOL   C13443926   1.243   5.845   3.169 -0.2778  0.4768  0.4950
  137MOL   C13543927   1.169   5.963   3.200 -0.0359  0.2699 -0.1877
  137MOL   C13643928   1.075   5.951   3.299  0.1476 -0.4177 -0.7402
  137MOL   C13743929   1.050   5.833   3.370  0.1657  0.1966  0.5659
  137MOL   C13843930   0.954   5.533   3.356 -0.1543 -0.1546  0.5254
  137MOL   H13943931   1.159   5.498   3.377  0.2253  1.3967 -2.7659
  137MOL   H14043932   1.317   5.846   3.091 -2.7122 -1.2829 -1.9314
  137MOL   H14143933   1.177   6.056   3.147  0.8437  0.6880  0.6670
  137MOL   H14243934   1.029   6.044   3.327  2.7132  0.8771 -0.7351
  137MOL   H14343935   0.979   5.821   3.451 -0.3282 -1.5008 -0.0908
  137MOL   H14443936   0.892   5.619   3.383  0.7630  0.2302  1.4481
  137MOL   H14543937   0.926   5.440   3.405 -2.3054 -0.0063 -0.3888
  137MOL   C14643938   0.948   5.504   3.205 -0.3821  0.8119  0.2663
  137MOL   C14743939   0.806   5.508   3.158  0.6459 -0.6350 -0.5902
  137MOL   C14843940   0.742   5.629   3.113  0.7485 -0.4203 -0.1343
  137MOL  Cl14943941   0.830   5.774   3.078  0.1256 -0.4234  0.1207
  137MOL   C15043942   0.606   5.626   3.067  0.5412  0.1753 -0.3016
  137MOL   C15143943   0.523   5.511   3.085  0.1922  0.3979 -0.2204
  137MOL   C15243944   0.581   5.403   3.148 -0.5970 -0.1162  0.1940
  137MOL   C15343945   0.723   5.397   3.182  0.4702  0.4331 -0.0419
  137MOL   C15443946   1.031   5.382   3.164  0.0344  0.1212 -0.2288
  137MOL   H15543947   0.983   5.594   3.154  1.2822 -0.2826 -0.5520
  137MOL   H15643948   0.554   5.714   3.032 -0.2028 -1.1265 -2.5751
  137MOL   H15743949   0.418   5.513   3.059 -0.2656 -0.8937  1.4164
  137MOL   H15843950   0.525   5.315   3.177 -0.6491  0.1360  0.8663
  137MOL   H15943951   0.772   5.310   3.221 -0.4175  0.2665  0.7183
  137MOL   H16043952   0.994   5.311   3.238  0.9952 -0.6258 -0.4503
  137MOL   H16143953   1.137   5.396   3.185 -0.1321 -0.5321  1.0766
  137MOL   C16243954   1.021   5.335   3.014  0.3950  0.3073  0.4300
  137MOL   C16343955   1.027   5.184   3.004  0.5361 -0.6317  0.1997
  137MOL   C16443956   0.918   5.097   2.964  0.4906 -0.1404 -0.1785
  137MOL  Cl16543957   0.772   5.166   2.898 -0.1209 -0.0080 -0.5073
  137MOL   C16643958   0.927   4.959   2.985 -0.1580 -0.5876  0.4167
  137MOL   C16743959   1.051   4.911   3.035  0.1971  0.0455 -0.3524
  137MOL   C16843960   1.160   4.993   3.068  0.8894  0.0263  0.3179
  137MOL   C16943961   1.148   5.132   3.050 -0.1966 -0.1429  0.1894
  137MOL   C17043962   1.125   5.409   2.926 -0.4879  0.3691 -0.4593
  137MOL   H17143963   0.928   5.374   2.973  0.8976 -0.5864 -1.6137
  137MOL   H17243964   0.856   4.881   2.963  1.0429 -1.6443  0.1912
  137MOL   H17343965   1.073   4.808   3.059  1.3304  0.2297 -0.5913
  137MOL   H17443966   1.256   4.954   3.102  1.9759  1.2775 -1.2358
  137MOL   H17543967   1.228   5.198   3.081 -0.6809  1.1957 -1.3095
  137MOL   H17643968   1.230   5.384   2.940  0.4802  2.3367 -3.7900
  137MOL   H17743969   1.111   5.507   2.972 -0.6440 -1.3534  3.3949
  137MOL   C17843970   1.099   5.439   2.773 -0.0111 -0.1714  0.3926
  137MOL   C17943971   0.971   5.514   2.748  0.5235 -0.3143  0.3248
  137MOL   C18043972   0.972   5.655   2.764  0.0966 -0.1208  0.9066
  137MOL  Cl18143973   1.117   5.739   2.786  0.0660  0.0877  0.1407
  137MOL   C18243974   0.854   5.723   2.767  0.0834  0.2062 -0.1642
  137MOL   C18343975   0.734   5.659   2.752 -0.4612 -0.3835  0.4724
  137MOL   C18443976   0.728   5.520   2.730  1.0269 -0.3216  0.0660
  137MOL   C18543977   0.848   5.446   2.726 -0.7175 -0.0432 -0.2241
  137MOL   C18643978   1.121   5.310   2.691 -0.3501  1.0579  0.9025
  137MOL   H18743979   1.184   5.497   2.738  0.0547 -1.0767 -0.9685
  137MOL   H18843980   0.839   5.830   2.776 -3.6556 -0.3050  0.6790
  137MOL   H18943981   0.646   5.722   2.755  1.3842  2.2793  0.2155
  137MOL   H19043982   0.637   5.466   2.707  1.8938 -1.1230 -1.5223
  137MOL   H19143983   0.842   5.339   2.711  1.1103 -0.4349  1.6357
  137MOL   H19243984   1.096   5.337   2.589  0.6679 -0.8744  0.1011
  137MOL   H19343985   1.051   5.230   2.715  0.2897  0.3437  0.4237
  137MOL   C19443986   1.259   5.232   2.694  0.7776  0.0038 -0.0484
  137MOL   C19543987   1.371   5.317   2.636  0.3933 -0.2178  0.3405
  137MOL   C19643988   1.490   5.332   2.706  0.0628 -0.8134  0.1522
  137MOL  Cl19743989   1.511   5.255   2.860  0.2087 -0.0809 -0.0136
  137MOL   C19843990   1.594   5.410   2.658 -0.3681 -0.2874 -0.5793
  137MOL   C19943991   1.575   5.486   2.545  0.1751  0.9837  0.0627
  137MOL   C20043992   1.456   5.476   2.469  0.2031 -0.2989  0.4294
  137MOL   C20143993   1.357   5.379   2.505 -0.6987 -0.3976  0.7017
  137MOL   C20243994   1.249   5.098   2.611 -0.0256  0.1732 -0.8840
  137MOL   H20343995   1.278   5.200   2.796  2.4715  0.1394 -0.3209
  137MOL   H20443996   1.692   5.417   2.702 -0.0013  2.7310 -1.7704
  137MOL   H20543997   1.651   5.557   2.515  0.5515 -0.3925 -2.3260
  137MOL   H20643998   1.447   5.535   2.379 -1.1856 -0.7548  0.2501
  137MOL   H20743999   1.272   5.367   2.440 -1.3966 -0.8601  1.6838
  137MOL   H20844000   1.248   5.118   2.504 -0.1926  1.2501 -0.6793
  137MOL   H20944001   1.152   5.051   2.628  0.5127 -0.6255  0.0376
  137MOL   C21044002   1.359   4.993   2.640  0.1231  0.4142 -0.0272
  137MOL   C21144003   1.367   4.884   2.526  0.2708  0.2039  0.0915
  137MOL   C21244004   1.475   4.864   2.442  0.1272 -0.9845 -0.8910
  137MOL  Cl21344005   1.606   4.976   2.446  0.2775  0.0239 -0.3656
  137MOL   C21444006   1.482   4.754   2.357  0.0575  1.0166 -0.4253
  137MOL   C21544007   1.367   4.672   2.349 -0.3892  0.4570  0.6046
  137MOL   C21644008   1.254   4.690   2.425  0.0204  0.0332  0.6083
  137MOL   C21744009   1.250   4.799   2.515 -0.0748  0.5137 -0.3062
  137MOL   C21844010   1.363   4.928   2.778  0.2043 -0.0873 -0.9271
  137MOL   H21944011   1.451   5.050   2.631 -0.3267  1.4301  1.6200
  137MOL   H22044012   1.566   4.739   2.291 -1.2424 -2.3069 -1.4274
  137MOL   H22144013   1.374   4.586   2.284  1.9081 -0.1683  1.6355
  137MOL   H22244014   1.178   4.615   2.410 -0.5821  0.9974 -1.2842
  137MOL   H22344015   1.163   4.800   2.580  1.2076 -0.2889  1.4615
  137MOL   H22444016   1.277   4.862   2.791  0.4042  0.0029  1.0112
  137MOL   H22544017   1.358   5.008   2.852  1.9258  0.6754 -1.6130
  137MOL   C22644018   1.487   4.834   2.813  0.0028 -0.0752 -1.0002
  137MOL   C22744019   1.434   4.734   2.919  0.4011 -1.0976 -0.1714
  137MOL   C22844020   1.392   4.606   2.883  0.4599  0.1442 -0.3539
  137MOL  Cl22944021   1.389   4.547   2.716 -0.2415 -0.0916  0.0797
  137MOL   C23044022   1.354   4.514   2.983  0.6148 -0.4906 -0.2615
  137MOL   C23144023   1.356   4.556   3.119 -0.3087  0.2922 -0.1154
  137MOL   C23244024   1.389   4.690   3.156  0.6952 -0.5539 -0.0674
  137MOL   C23344025   1.428   4.775   3.052 -0.3464 -0.2159  0.0993
  137MOL   C23444026   1.608   4.919   2.850 -0.1344  0.2750 -0.2613
  137MOL   H23544027   1.513   4.774   2.726  2.2616  1.2840 -1.2941
  137MOL   H23644028   1.330   4.409   2.971  0.7517 -0.5847  0.2864
  137MOL   H23744029   1.324   4.491   3.199 -0.2296 -0.5171 -0.7313
  137MOL   H23844030   1.373   4.726   3.256 -2.7765 -1.3602 -0.2332
  137MOL   H23944031   1.451   4.877   3.080  0.5889 -0.5628  0.6006
  137MOL   H24044032   1.581   4.963   2.946 -1.1475 -1.7471  0.4059
  137MOL   H24144033   1.616   4.993   2.770  0.3810  1.6937  1.0712
  137MOL   C24244034   1.747   4.839   2.846  0.4396  0.2156 -0.1568
  137MOL   C24344035   1.853   4.916   2.929 -0.1456 -0.0941  0.4688
  137MOL   C24444036   1.880   4.896   3.062 -0.6287 -0.9182 -0.0178
  137MOL  Cl24544037   1.790   4.781   3.149  0.1532 -0.0775  0.0942
  137MOL   C24644038   1.981   4.970   3.127  0.6967 -0.5185  0.1608
  137MOL   C24744039   2.045   5.075   3.067 -0.6091 -0.2890 -0.0638
  137MOL   C24844040   2.023   5.098   2.930  0.7166  0.1424  0.2716
  137MOL   C24944041   1.925   5.025   2.867  0.0851 -0.3904  0.5432
  137MOL   C25044042   1.794   4.809   2.700  0.4059 -0.0255  0.4572
  137MOL   H25144043   1.726   4.747   2.900 -2.6162  0.1613 -1.3239
  137MOL   H25244044   2.003   4.952   3.231  0.0426  1.4647  0.6583
  137MOL   H25344045   2.121   5.124   3.124  0.0191 -2.3077  0.8898
  137MOL   H25444046   2.067   5.181   2.877 -2.1134  0.3144 -1.9136
  137MOL   H25544047   1.906   5.056   2.766 -0.4724 -4.5998 -0.7263
  137MOL   H25644048   1.833   4.903   2.660  0.1566 -0.3661 -0.5929
  137MOL   H25744049   1.711   4.777   2.637  0.0959  0.0276  0.8379
  137MOL   C25844050   1.904   4.702   2.697  0.0690  0.6379  0.0029
  137MOL   C25944051   1.982   4.712   2.564  0.2296 -0.6394  0.1514
  137MOL   C26044052   2.119   4.725   2.557  0.1500  0.1316  0.0702
  137MOL  Cl26144053   2.217   4.717   2.699  0.0481  0.2773  0.2404
  137MOL   C26244054   2.186   4.725   2.433 -0.1178 -0.3445 -0.3551
  137MOL   C26344055   2.117   4.743   2.311 -0.0679  0.0405 -0.3181
  137MOL   C26444056   1.973   4.749   2.318  0.3620 -0.1697 -0.1385
  137MOL   C26544057   1.911   4.731   2.443 -0.2288 -0.1539 -0.1511
  137MOL   C26644058   1.841   4.560   2.710  0.2631 -0.0252  0.0191
  137MOL   H26744059   1.973   4.715   2.781 -2.2090 -2.9883  2.6301
  137MOL   H26844060   2.294   4.735   2.434 -0.2532  1.3909 -0.9289
  137MOL   H26944061   2.166   4.750   2.215  2.2491 -0.6136  0.7981
  137MOL   H27044062   1.904   4.754   2.235 -0.6254  0.2321  0.7034
  137MOL   H27144063   1.804   4.742   2.452 -0.3251 -0.8553 -0.3834
  137MOL   H27244064   1.823   4.526   2.608 -2.1833 -3.5198  1.5408
  137MOL   H27344065   1.746   4.566   2.763  0.8037 -2.8507  1.3750
  137MOL   C27444066   1.941   4.467   2.782 -0.0562  0.4207 -0.2937
  137MOL   C27544067   1.938   4.328   2.717 -0.0964 -0.8556  0.5315
  137MOL   C27644068   2.055   4.265   2.677  0.2245  0.0348  0.0389
  137MOL  Cl27744069   2.213   4.346   2.692 -0.1826 -0.5046  0.0763
  137MOL   C27844070   2.048   4.148   2.595 -0.1194 -0.5800  0.5133
  137MOL   C27944071   1.921   4.095   2.569  0.1456  0.0154 -0.8434
  137MOL   C28044072   1.805   4.147   2.622 -0.1274 -0.2019  0.1044
  137MOL   C28144073   1.813   4.271   2.694  0.0410 -0.0393  0.2821
  137MOL   C28244074   1.909   4.452   2.932  0.6206 -0.1866  0.3561
  137MOL   H28344075   2.045   4.496   2.768  0.5916 -0.7654  1.8111
  137MOL   H28444076   2.142   4.102   2.568  0.1041  0.6215 -0.8190
  137MOL   H28544077   1.903   4.007   2.509  0.9354 -0.4645 -0.3840
  137MOL   H28644078   1.709   4.102   2.602 -1.0165  1.7126 -0.0614
  137MOL   H28744079   1.725   4.313   2.740 -0.9853  1.3027 -2.8382
  137MOL   H28844080   1.820   4.394   2.957  0.5319  0.1661  0.8644
  137MOL   H28944081   1.878   4.552   2.964  0.2630 -0.8704  2.2087
  137MOL   C29044082   2.026   4.415   3.024  0.1245  0.1379  0.4222
  137MOL   C29144083   1.977   4.362   3.158  0.4191 -0.3326 -0.2066
  137MOL   C29244084   1.956   4.227   3.181  0.0773 -0.5268 -0.0288
  137MOL  Cl29344085   2.018   4.106   3.075 -0.0474  0.3675  0.3391
  137MOL   C29444086   1.898   4.185   3.301 -0.0736 -0.3206 -0.0289
  137MOL   C29544087   1.876   4.276   3.406  0.6153 -0.3791  0.8204
  137MOL   C29644088   1.901   4.411   3.385 -0.3066  0.1058  0.3908
  137MOL   C29744089   1.952   4.454   3.262  0.7872  0.4453  0.3450
  137MOL   C29844090   2.126   4.541   3.033 -0.1640 -0.2383 -0.1603
  137MOL   H29944091   2.082   4.328   2.992 -1.8850 -1.7774  1.9785
  137MOL   H30044092   1.887   4.080   3.325 -0.8456 -0.3350 -0.4164
  137MOL   H30144093   1.837   4.236   3.498  1.4188  0.2759  1.4520
  137MOL   H30244094   1.893   4.487   3.461 -1.6794 -1.4705  1.8582
  137MOL   H30344095   1.977   4.559   3.257  1.8799  0.2803  2.2108
  137MOL   H30444096   2.063   4.621   3.071 -1.4344 -1.0533 -0.5310
  137MOL   H30544097   2.133   4.572   2.929 -1.6218  1.5465  0.2558
  137MOL   C30644098   2.263   4.529   3.109 -0.3474 -0.6298  0.8306
  137MOL   C30744099   2.294   4.661   3.179 -0.1112 -0.2782  0.6456
  137MOL   C30844100   2.308   4.669   3.320  0.0015  0.1650 -0.1058
  137MOL  Cl30944101   2.272   4.532   3.418  0.3091 -0.0462 -0.2980
  137MOL   C31044102   2.339   4.792   3.385 -0.7525 -0.1019  0.1286
  137MOL   C31144103   2.375   4.908   3.306 -0.2621  0.0957  0.5871
  137MOL   C31244104   2.371   4.894   3.163 -0.0086 -0.8088 -0.3205
  137MOL   C31344105   2.315   4.778   3.101  0.2413  0.5260  0.3718
  137MOL   C31444106   2.377   4.498   3.000  0.6776 -0.1385  0.7033
  137MOL   H31544107   2.253   4.452   3.185 -1.4361 -0.3843  0.9563
  137MOL   H31644108   2.332   4.799   3.492  2.3577  1.6380  0.2603
  137MOL   H31744109   2.407   5.001   3.351  0.3066  1.5528 -2.6866
  137MOL   H31844110   2.398   4.983   3.109  2.7278 -1.7235 -0.5590
  137MOL   H31944111   2.307   4.763   2.995 -0.1458 -0.5611  0.5562
  137MOL   H32044112   2.474   4.472   3.041  1.5744 -0.4494 -1.5680
  137MOL   H32144113   2.400   4.579   2.932  1.8432  0.9093  2.3015
  137MOL   H32244114   2.347   4.404   2.954  1.2784 -1.1571  2.3296
  138MOL     C144115   6.224   1.689   7.336 -0.1180 -0.1101 -0.0669
  138MOL     C244116   6.244   1.539   7.318 -0.9100 -0.3365 -0.0381
  138MOL     C344117   6.132   1.463   7.283 -0.4636 -0.1976  0.5473
  138MOL    Cl444118   5.979   1.543   7.271 -0.4021 -0.1489 -0.0457
  138MOL     C544119   6.138   1.323   7.278  0.2226  0.0644  0.1056
  138MOL     C644120   6.252   1.252   7.307 -0.2389  0.4998  0.2273
  138MOL     C744121   6.361   1.323   7.353  0.9594 -0.1952 -0.0154
  138MOL     C844122   6.363   1.467   7.353  0.6309  0.4578  0.8502
  138MOL     C944123   6.346   1.772   7.379  0.1159  0.5263 -0.2756
  138MOL    H1044124   6.181   1.720   7.241  2.7232  1.0101 -1.0187
  138MOL    H1144125   6.054   1.260   7.251  0.9799 -0.9462  0.0719
  138MOL    H1244126   6.253   1.144   7.307  2.6237  0.4990  0.7905
  138MOL    H1344127   6.455   1.275   7.376  1.1819  0.5519  0.6575
  138MOL    H1444128   6.457   1.513   7.380  0.9423  1.0864 -1.2115
  138MOL    H1544129   6.426   1.761   7.306  0.4104 -0.8442  0.2324
  138MOL    H1644130   6.392   1.718   7.463  0.6938 -0.5166 -1.2440
  138MOL    H1744131   6.143   1.699   7.409 -0.2078  0.9174 -0.3131
  138MOL    C1844132   6.317   1.908   7.428  0.4445  0.3223  0.5563
  138MOL    C1944133   6.257   1.986   7.314 -0.4549 -0.4746  0.5430
  138MOL    C2044134   6.117   1.994   7.295 -0.5539  0.1846  0.7012
  138MOL   Cl2144135   6.000   1.924   7.408 -0.2163  0.2021 -0.3501
  138MOL    C2244136   6.067   2.064   7.180  0.0882  0.0064  0.6210
  138MOL    C2344137   6.155   2.123   7.093  0.5210 -0.0353  0.0551
  138MOL    C2444138   6.286   2.120   7.118 -0.0619  1.0680  0.1343
  138MOL    C2544139   6.344   2.049   7.222 -0.1587  0.6057 -0.1185
  138MOL    C2644140   6.442   1.984   7.486  0.2219 -0.9647 -0.0079
  138MOL    H2744141   6.246   1.896   7.509  1.1384  2.1157  1.4444
  138MOL    H2844142   5.961   2.068   7.157  0.1693  1.9919  0.5958
  138MOL    H2944143   6.124   2.177   7.005  1.7475  0.1923 -0.2493
  138MOL    H3044144   6.362   2.165   7.055  2.3246 -2.2333  0.4990
  138MOL    H3144145   6.452   2.054   7.225 -0.2172  2.7990 -1.1417
  138MOL    H3244146   6.519   1.972   7.409  0.1852 -3.8924  0.3825
  138MOL    H3344147   6.503   1.945   7.567  1.0144 -0.5106 -0.3701
  138MOL    C3444148   6.410   2.121   7.543 -0.6847 -0.4210 -0.4795
  138MOL    C3544149   6.540   2.200   7.541 -0.1418 -0.2842 -0.2257
  138MOL    C3644150   6.555   2.309   7.447  0.1481 -1.3140 -0.0802
  138MOL   Cl3744151   6.449   2.349   7.325  0.3647 -0.0197 -0.3850
  138MOL    C3844152   6.673   2.382   7.446  0.1309 -0.2566 -0.4677
  138MOL    C3944153   6.774   2.350   7.535  0.3893  0.6128 -0.4787
  138MOL    C4044154   6.768   2.234   7.616  0.0974  0.3186  0.5833
  138MOL    C4144155   6.650   2.160   7.625 -0.0112 -0.2856 -0.7450
  138MOL    C4244156   6.362   2.118   7.693  0.5603  0.3135  0.1401
  138MOL    H4344157   6.338   2.181   7.487 -1.5751 -1.3403 -0.3280
  138MOL    H4444158   6.684   2.456   7.368 -1.9275  0.8706  0.2700
  138MOL    H4544159   6.866   2.406   7.535  0.9099 -0.2448 -1.1660
  138MOL    H4644160   6.858   2.210   7.672 -0.2087  2.2388  1.9337
  138MOL    H4744161   6.649   2.075   7.691 -0.4065 -0.2593 -0.7126
  138MOL    H4844162   6.441   2.085   7.760 -1.0324 -1.3662  1.2510
  138MOL    H4944163   6.283   2.043   7.704  0.4552  0.3530 -0.3327
  138MOL    C5044164   6.294   2.248   7.746  0.0104 -0.3340 -0.0233
  138MOL    C5144165   6.303   2.240   7.901 -0.0428 -1.1310  0.2841
  138MOL    C5244166   6.368   2.336   7.982 -0.2592  0.1430 -0.2627
  138MOL   Cl5344167   6.443   2.473   7.919 -0.0670 -0.2790  0.6799
  138MOL    C5444168   6.377   2.326   8.122 -0.0836 -0.0355  0.0375
  138MOL    C5544169   6.326   2.211   8.185  0.0940  0.4147  0.7625
  138MOL    C5644170   6.263   2.110   8.108 -0.1049  0.1782 -0.1087
  138MOL    C5744171   6.245   2.127   7.970 -0.4761  0.3203 -0.0770
  138MOL    C5844172   6.151   2.276   7.690  0.0225  0.1622 -0.1090
  138MOL    H5944173   6.353   2.334   7.714 -0.7550 -0.7267 -2.5895
  138MOL    H6044174   6.417   2.410   8.177  0.2588  1.1485 -1.9741
  138MOL    H6144175   6.343   2.199   8.291 -1.9202  1.4746  1.2323
  138MOL    H6244176   6.211   2.026   8.153 -1.5304  2.4101  2.6328
  138MOL    H6344177   6.186   2.048   7.925  1.7962 -1.1102 -0.6211
  138MOL    H6444178   6.098   2.186   7.719  0.8763 -0.0170  0.9047
  138MOL    H6544179   6.149   2.291   7.582  0.8746 -1.3229 -0.3524
  138MOL    C6644180   6.087   2.401   7.756  0.9245  0.0326 -0.1993
  138MOL    C6744181   5.939   2.368   7.787  0.0832 -0.3071 -0.1553
  138MOL    C6844182   5.867   2.414   7.901 -0.0925  0.2690  0.4397
  138MOL   Cl6944183   5.937   2.514   8.017  0.3306  0.5608 -0.1521
  138MOL    C7044184   5.737   2.374   7.931  0.1700  0.8481 -0.3904
  138MOL    C7144185   5.658   2.308   7.836  0.0387 -0.4491  0.2822
  138MOL    C7244186   5.720   2.266   7.717 -0.5246 -0.5978  0.0244
  138MOL    C7344187   5.862   2.293   7.695  0.3338 -0.8226 -0.3562
  138MOL    C7444188   6.096   2.523   7.650  0.3863  0.0485  0.3464
  138MOL    H7544189   6.122   2.439   7.852  0.4115 -0.7144  0.2893
  138MOL    H7644190   5.689   2.394   8.025  0.3768 -0.6509  0.0584
  138MOL    H7744191   5.553   2.301   7.860 -0.1222  2.8814  0.8679
  138MOL    H7844192   5.663   2.211   7.644 -3.6497 -0.3944  2.1999
  138MOL    H7944193   5.898   2.261   7.598  1.0333 -0.7555 -0.1173
  138MOL    H8044194   6.035   2.508   7.560 -1.0818 -0.4032  1.3876
  138MOL    H8144195   6.198   2.532   7.612  1.6215 -0.3303  3.4314
  138MOL    C8244196   6.056   2.656   7.715 -0.1245  0.3157  0.4977
  138MOL    C8344197   6.009   2.742   7.598  0.0713 -0.0354  0.0584
  138MOL    C8444198   5.884   2.813   7.602  0.6104  0.3778  0.3477
  138MOL   Cl8544199   5.771   2.782   7.718 -0.2667  0.1239 -0.3520
  138MOL    C8644200   5.850   2.904   7.496  0.7471 -0.1714 -0.1806
  138MOL    C8744201   5.939   2.932   7.396  0.0145 -0.4533 -0.3952
  138MOL    C8844202   6.061   2.852   7.390  0.4500 -0.6284  0.3867
  138MOL    C8944203   6.102   2.767   7.493 -0.2702  0.9223 -0.1201
  138MOL    C9044204   6.174   2.730   7.789  0.9026  0.3372 -0.1864
  138MOL    H9144205   5.976   2.649   7.789  0.4555 -0.4236  1.0593
  138MOL    H9244206   5.759   2.961   7.507  1.4209  0.7675  0.5586
  138MOL    H9344207   5.911   2.998   7.315 -0.8456  0.0482  0.3085
  138MOL    H9444208   6.127   2.867   7.305 -0.3289 -0.7454 -0.2504
  138MOL    H9544209   6.198   2.717   7.492 -1.0372 -0.6726  1.8620
  138MOL    H9644210   6.262   2.720   7.726  0.6246 -0.0971 -0.5043
  138MOL    H9744211   6.200   2.676   7.880 -2.6103  0.4902  0.9943
  138MOL    C9844212   6.152   2.876   7.839  0.8671  0.1438 -0.2607
  138MOL    C9944213   6.281   2.938   7.881  0.1207  0.6033  0.4379
  138MOL   C10044214   6.341   3.033   7.797  0.6687 -0.3589 -0.2990
  138MOL  Cl10144215   6.269   3.082   7.651 -0.1916 -0.1068  0.2398
  138MOL   C10244216   6.462   3.085   7.837  0.4034 -0.9278 -0.0443
  138MOL   C10344217   6.519   3.045   7.955 -0.6575  0.0882 -0.3802
  138MOL   C10444218   6.466   2.943   8.033  0.2092 -0.1072 -0.7028
  138MOL   C10544219   6.343   2.889   8.000 -0.4718 -0.3329 -0.0609
  138MOL   C10644220   6.044   2.880   7.961 -0.2979  0.4456 -0.8168
  138MOL   H10744221   6.106   2.922   7.752 -2.8727  0.4769  1.7792
  138MOL   H10844222   6.514   3.168   7.792 -2.3062  0.6890 -0.3490
  138MOL   H10944223   6.616   3.086   7.975 -0.1290 -1.1464 -0.3803
  138MOL   H11044224   6.511   2.908   8.125 -0.4891  0.0549 -0.2893
  138MOL   H11144225   6.311   2.801   8.054  1.4550 -0.7591  0.4286
  138MOL   H11244226   6.080   2.812   8.038  0.5402  2.9451  1.0711
  138MOL   H11344227   5.947   2.837   7.937 -0.3711 -0.5561  1.1656
  138MOL   C11444228   6.012   3.015   8.028  0.0939  0.1601 -0.0865
  138MOL   C11544229   5.956   2.998   8.170 -0.3273  0.0268  0.1276
  138MOL   C11644230   6.014   3.073   8.273 -0.2391  0.4793  0.8122
  138MOL  Cl11744231   6.136   3.191   8.248  0.1244 -0.3740  0.0405
  138MOL   C11844232   5.972   3.057   8.408 -0.3325 -0.7245  0.0775
  138MOL   C11944233   5.878   2.954   0.010  0.1737  0.0660 -0.1831
  138MOL   C12044234   5.822   2.877   8.327 -0.1166  0.5467  0.1227
  138MOL   C12144235   5.867   2.896   8.196  0.1332  0.9533 -0.2893
  138MOL   C12244236   5.938   3.114   7.941  0.3251  0.9146  0.2160
  138MOL   H12344237   6.117   3.046   8.025  0.1804 -0.2254 -1.5477
  138MOL   H12444238   6.018   3.102   0.074 -2.5231  0.8290  0.4746
  138MOL   H12544239   5.836   2.943   0.109  1.6307 -0.1752  0.4128
  138MOL   H12644240   5.751   2.800   8.355  1.1621 -0.7920 -0.2769
  138MOL   H12744241   5.816   2.835   8.122  0.2958 -0.9901  1.1650
  138MOL   H12844242   5.831   3.096   7.949  0.2019  0.6582 -1.7984
  138MOL   H12944243   5.972   3.090   7.841  2.7661  3.2464  0.4290
  138MOL   C13044244   5.967   3.267   7.949  0.1586 -0.6415 -0.4832
  138MOL   C13144245   5.875   3.346   7.854 -0.6524  0.2987 -0.0641
  138MOL   C13244246   5.797   3.454   7.899 -0.2465  0.3386 -0.5962
  138MOL  Cl13344247   5.798   3.513   8.064 -0.2471 -0.1883 -0.2334
  138MOL   C13444248   5.706   3.522   7.814  0.2133 -0.0059  0.4481
  138MOL   C13544249   5.696   3.493   7.677  0.5641 -0.1403  0.2064
  138MOL   C13644250   5.778   3.391   7.628 -0.3421 -1.1672 -0.2795
  138MOL   C13744251   5.857   3.314   7.720 -0.2838 -0.3108 -0.1642
  138MOL   C13844252   6.113   3.302   7.915 -0.6821  0.4061 -0.2149
  138MOL   H13944253   5.953   3.303   8.051 -4.7195  0.9955 -1.5967
  138MOL   H14044254   5.648   3.605   7.851  0.1407  0.3284 -0.4212
  138MOL   H14144255   5.631   3.549   7.612  0.7127 -2.2401 -1.8216
  138MOL   H14244256   5.776   3.369   7.522  1.5840 -0.3955 -0.4974
  138MOL   H14344257   5.907   3.234   7.668  0.0196  0.7174 -1.4728
  138MOL   H14444258   6.116   3.284   7.808 -0.7045  2.1342 -0.5118
  138MOL   H14544259   6.176   3.233   7.973 -1.6660  1.0283  1.6536
  138MOL   C14644260   6.157   3.453   7.943 -0.2829 -0.1030 -0.1514
  138MOL   C14744261   6.298   3.471   7.865  0.3533  0.4587 -0.9205
  138MOL   C14844262   6.300   3.504   7.728 -0.2346 -0.1525 -0.0629
  138MOL  Cl14944263   6.153   3.515   7.640 -0.0101 -0.0036 -0.0341
  138MOL   C15044264   6.423   3.521   7.659 -0.0005 -0.6168  0.1507
  138MOL   C15144265   6.542   3.506   7.724 -0.0945 -0.2990  0.1324
  138MOL   C15244266   6.547   3.474   7.864  0.3039  0.2658 -0.0946
  138MOL   C15344267   6.424   3.443   7.930 -0.1001  0.5383  0.8789
  138MOL   C15444268   6.169   3.493   8.094  0.4308  0.0662  0.0106
  138MOL   H15544269   6.082   3.526   7.911  0.9667  1.8496  1.2955
  138MOL   H15644270   6.424   3.559   7.558  0.9614  2.2001  1.1811
  138MOL   H15744271   6.633   3.525   7.669 -1.5152  0.5755 -1.9847
  138MOL   H15844272   6.639   3.460   7.919  0.1784 -0.6768 -0.1118
  138MOL   H15944273   6.428   3.406   8.031 -1.1831 -1.3579  0.2449
  138MOL   H16044274   6.249   3.427   8.127  1.7935  1.5870 -0.1855
  138MOL   H16144275   6.076   3.468   8.146  0.2133 -1.8806 -1.3060
  138MOL   C16244276   6.209   3.642   8.113  0.4274 -0.0466 -0.0108
  138MOL   C16344277   6.242   3.658   8.256 -0.4227 -0.1320 -0.3395
  138MOL   C16444278   6.373   3.671   8.299 -0.6357 -0.4469 -0.0283
  138MOL  Cl16544279   6.506   3.641   8.196 -0.0805 -0.2284  0.1148
  138MOL   C16644280   6.416   3.683   0.012  0.1167 -1.2277 -0.0630
  138MOL   C16744281   6.319   3.680   0.111 -0.7090 -0.0362  0.0224
  138MOL   C16844282   6.183   3.666   0.076  0.4294  0.0979 -0.1462
  138MOL   C16944283   6.145   3.656   8.361  0.0778  0.8643 -0.4045
  138MOL   C17044284   6.097   3.741   8.063  0.6953  0.9570  0.5020
  138MOL   H17144285   6.287   3.665   8.041  1.1812 -1.2079  0.4202
  138MOL   H17244286   6.520   3.694   0.040 -0.9528  0.0400  3.7398
  138MOL   H17344287   6.354   3.680   0.213 -2.1909  1.2753  0.5551
  138MOL   H17444288   6.115   3.667   0.160  2.9719  3.0922  2.0068
  138MOL   H17544289   6.044   3.644   8.325  1.1808 -2.3055 -2.7309
  138MOL   H17644290   6.011   3.743   8.131 -0.6510  0.0551 -1.1323
  138MOL   H17744291   6.053   3.713   7.967  0.3036 -0.7065  1.1363
  138MOL   C17844292   6.147   3.882   8.048  0.1286  0.2609 -0.3726
  138MOL   C17944293   6.166   3.955   8.180  0.1358 -0.4821  0.9548
  138MOL   C18044294   6.297   4.003   8.222  0.0855  0.1306 -0.5631
  138MOL  Cl18144295   6.442   3.992   8.128  0.2406  0.2450  0.1153
  138MOL   C18244296   6.306   4.088   8.336  1.3855  0.1264 -0.1460
  138MOL   C18344297   6.188   4.133   8.410 -0.0494 -0.2810 -0.3430
  138MOL   C18444298   6.061   4.081   8.367  0.2371 -0.0260  0.1629
  138MOL   C18544299   6.052   3.993   8.257 -0.0351 -0.3896 -0.0499
  138MOL   C18644300   6.051   3.959   7.953 -0.3192 -0.1409 -0.2145
  138MOL   H18744301   6.247   3.867   8.007  0.6688 -0.0371  1.0301
  138MOL   H18844302   6.397   4.139   8.361  1.2991 -0.1729  0.7763
  138MOL   H18944303   6.207   4.197   0.074  1.4340  0.3567 -1.1506
  138MOL   H19044304   5.978   4.111   0.009 -1.0724 -1.2369 -0.9579
  138MOL   H19144305   5.962   3.945   8.222  0.2509  0.2962 -1.7509
  138MOL   H19244306   5.949   3.947   7.990 -0.0875  0.8385  0.7544
  138MOL   H19344307   6.053   3.903   7.860  1.1425 -0.1810 -0.1740
  138MOL   C19444308   6.085   4.112   7.929 -0.4981  0.1383  0.1122
  138MOL   C19544309   5.973   4.173   7.848 -0.3277  0.5796 -0.1996
  138MOL   C19644310   5.876   4.261   7.914 -0.3271  0.7770  0.2509
  138MOL  Cl19744311   5.903   4.318   8.080 -0.2499  0.1612  0.2826
  138MOL   C19844312   5.764   4.297   7.842 -0.7678  0.2128  0.0676
  138MOL   C19944313   5.749   4.272   7.707 -0.5204 -0.7444 -0.1496
  138MOL   C20044314   5.845   4.190   7.645 -0.5156 -0.1364 -0.3550
  138MOL   C20144315   5.963   4.144   7.711 -0.3516  0.4412 -0.0810
  138MOL   C20244316   6.218   4.146   7.873 -0.6682  0.8062 -0.5867
  138MOL   H20344317   6.092   4.147   8.032  1.9540  0.4917 -0.1583
  138MOL   H20444318   5.686   4.356   7.888 -0.8781 -0.3719  0.6159
  138MOL   H20544319   5.655   4.297   7.659 -0.7693 -1.8941 -0.2659
  138MOL   H20644320   5.818   4.171   7.541 -1.2404  0.8763 -0.3582
  138MOL   H20744321   6.033   4.079   7.660 -1.5782 -0.4468 -0.6596
  138MOL   H20844322   6.227   4.108   7.771  1.1151 -0.5665  0.0475
  138MOL   H20944323   6.298   4.092   7.924 -1.6552 -2.4218 -2.3134
  138MOL   C21044324   6.263   4.297   7.870 -0.0400  0.2348  0.7822
  138MOL   C21144325   6.379   4.316   7.774 -0.1832 -0.2841 -0.5915
  138MOL   C21244326   6.369   4.390   7.654  0.6174 -0.3067  0.1323
  138MOL  Cl21344327   6.215   4.459   7.605 -0.2011  0.0443  0.1615
  138MOL   C21444328   6.482   4.405   7.570  0.4007 -0.0211 -0.4031
  138MOL   C21544329   6.608   4.345   7.612 -0.0336 -0.3949  0.1289
  138MOL   C21644330   6.620   4.268   7.728 -0.1992 -0.1272 -0.1227
  138MOL   C21744331   6.502   4.253   7.809 -0.3528 -0.6243 -0.0360
  138MOL   C21844332   6.289   4.346   8.017 -0.4102  0.1406 -0.0467
  138MOL   H21944333   6.177   4.348   7.826  0.2378 -0.4805 -0.6398
  138MOL   H22044334   6.470   4.467   7.483  1.2078  0.1242 -0.4152
  138MOL   H22144335   6.694   4.370   7.551 -0.7278 -0.6908 -0.9860
  138MOL   H22244336   6.717   4.239   7.766 -0.3389 -2.5204 -1.4718
  138MOL   H22344337   6.508   4.190   7.896  0.3976 -1.4602 -0.6787
  138MOL   H22444338   6.374   4.290   8.057  0.6774 -0.1381 -2.6340
  138MOL   H22544339   6.202   4.315   8.075 -1.1888 -2.1074 -2.3369
  138MOL   C22644340   6.310   4.500   8.042  0.2318 -0.1662  0.2978
  138MOL   C22744341   6.432   4.556   7.975 -0.3391 -0.0833  0.1597
  138MOL   C22844342   6.424   4.660   7.873 -0.1035  0.1889  0.0612
  138MOL  Cl22944343   6.279   4.732   7.827 -0.2433  0.1623  0.0552
  138MOL   C23044344   6.547   4.710   7.822  0.2420  0.2656 -0.4006
  138MOL   C23144345   6.668   4.666   7.870  0.6764 -0.0557  0.7259
  138MOL   C23244346   6.679   4.561   7.960  0.1434 -1.1548  0.0781
  138MOL   C23344347   6.558   4.512   8.014 -0.9910 -0.3035 -0.3789
  138MOL   C23444348   6.306   4.537   8.194 -0.7394  0.1533  0.3944
  138MOL   H23544349   6.228   4.551   7.992 -0.9553 -0.7553  1.5976
  138MOL   H23644350   6.541   4.791   7.750 -2.9117 -0.5872 -1.1496
  138MOL   H23744351   6.759   4.714   7.835  1.5888 -2.1295  0.1525
  138MOL   H23844352   6.776   4.520   7.985  0.7625  0.3452  0.1630
  138MOL   H23944353   6.570   4.430   8.084 -1.4876 -0.8309 -0.9055
  138MOL   H24044354   6.381   4.480   8.248  1.0893  1.2977 -0.8866
  138MOL   H24144355   6.212   4.512   8.244  0.0495 -0.8495  1.4031
  138MOL   C24244356   6.331   4.681   8.230  0.1745  0.2501 -0.1153
  138MOL   C24344357   6.372   4.696   8.378  0.0862 -0.4021  0.4433
  138MOL   C24444358   6.505   4.734   8.417  0.2932 -0.3262 -0.1569
  138MOL  Cl24544359   6.632   4.775   8.298 -0.5619 -0.0607  0.0070
  138MOL   C24644360   6.534   4.741   0.129 -0.0888  0.2486 -0.1006
  138MOL   C24744361   6.437   4.721   0.225  0.9117  0.1906  0.0925
  138MOL   C24844362   6.305   4.692   0.193  0.5148  0.5242 -0.0511
  138MOL   C24944363   6.276   4.668   0.057 -0.4174 -0.1758  0.0316
  138MOL   C25044364   6.204   4.766   8.190 -0.1713  1.1157  0.2547
  138MOL   H25144365   6.415   4.713   8.169  0.3201  1.2333  0.5956
  138MOL   H25244366   6.630   4.776   0.167  0.6414 -1.3842 -0.4026
  138MOL   H25344367   6.467   4.734   0.328 -1.6806  1.7755  0.6843
  138MOL   H25444368   6.229   4.690   0.269  0.7692  0.0674  0.1979
  138MOL   H25544369   6.173   4.639   0.043 -0.7632  0.2141  1.6327
  138MOL   H25644370   6.114   4.734   8.242 -1.6873  1.6836 -1.9470
  138MOL   H25744371   6.171   4.743   8.089  2.1283 -4.0788  0.5576
  138MOL   C25844372   6.221   4.918   8.198  0.6380  0.1623  0.1955
  138MOL   C25944373   6.101   4.990   8.141 -0.8722 -0.1548  0.7817
  138MOL   C26044374   6.018   5.080   8.221  0.0000  0.3794 -0.1224
  138MOL  Cl26144375   6.052   5.115   8.386 -0.1166 -0.2859  0.1541
  138MOL   C26244376   5.900   5.140   8.172  0.2024  0.3105  0.8980
  138MOL   C26344377   5.869   5.128   8.037 -0.4207  0.5455  0.6793
  138MOL   C26444378   5.946   5.037   7.955  0.3101 -0.9605 -0.1099
  138MOL   C26544379   6.055   4.967   8.011 -0.2700  1.0401  0.6267
  138MOL   C26644380   6.355   4.950   8.127 -0.1881  0.3661  0.6790
  138MOL   H26744381   6.228   4.953   8.301 -1.5785  1.7359 -0.1502
  138MOL   H26844382   5.852   5.220   8.226  0.1207  0.5566  0.4607
  138MOL   H26944383   5.791   5.185   7.987 -1.6182 -1.5636  0.0930
  138MOL   H27044384   5.921   5.012   7.853 -1.7870  0.2164  0.0872
  138MOL   H27144385   6.118   4.905   7.949 -1.2180  0.8205 -0.1272
  138MOL   H27244386   6.381   4.885   8.043 -1.5364 -0.9471  1.2411
  138MOL   H27344387   6.431   4.946   8.205  1.2906 -0.3142 -0.7720
  138MOL   C27444388   6.366   5.096   8.072  0.2484  0.2471 -0.0364
  138MOL   C27544389   6.498   5.126   7.994  0.1120  1.0815 -0.7042
  138MOL   C27644390   6.510   5.145   7.856 -0.0613  0.7944 -0.5011
  138MOL  Cl27744391   6.379   5.141   7.752  0.4075 -0.1675 -0.4778
  138MOL   C27844392   6.638   5.171   7.795  0.3033  0.4324 -0.4772
  138MOL   C27944393   6.753   5.179   7.872 -0.6055 -0.3993 -0.1585
  138MOL   C28044394   6.741   5.152   8.009 -0.7574  0.5682 -0.1880
  138MOL   C28144395   6.618   5.132   8.072 -0.2625 -0.3459  0.3208
  138MOL   C28244396   6.346   5.214   8.177  0.6968 -0.6417 -0.0901
  138MOL   H28344397   6.279   5.102   8.006 -0.2932  2.8118  0.8435
  138MOL   H28444398   6.639   5.196   7.690 -1.0877  3.2357  0.1183
  138MOL   H28544399   6.850   5.196   7.828 -1.2608  0.4569 -1.3041
  138MOL   H28644400   6.826   5.154   8.075 -0.8896  0.7390 -0.0209
  138MOL   H28744401   6.622   5.115   8.178 -0.0249  1.0781  0.5502
  138MOL   H28844402   6.441   5.259   8.207  0.6090  0.6215 -1.6419
  138MOL   H28944403   6.297   5.187   8.270  2.3855 -1.1757  0.6798
  138MOL   C29044404   6.259   5.342   8.129  0.1557  0.0206  0.8212
  138MOL   C29144405   6.331   5.426   8.022 -0.3138  0.1943 -0.4424
  138MOL   C29244406   6.277   5.427   7.892  0.2889 -0.1115  0.4679
  138MOL  Cl29344407   6.129   5.349   7.851 -0.2381 -0.1198  0.0994
  138MOL   C29444408   6.354   5.480   7.787 -0.3051 -0.1631  0.1590
  138MOL   C29544409   6.477   5.537   7.803 -0.0254 -0.2980  0.1093
  138MOL   C29644410   6.532   5.553   7.937  0.5589  0.2892  0.6638
  138MOL   C29744411   6.456   5.498   8.045  0.3304 -0.5532  0.3984
  138MOL   C29844412   6.212   5.435   8.244 -0.3743  0.2107  0.1929
  138MOL   H29944413   6.169   5.290   8.096 -0.9127  2.2673  0.0836
  138MOL   H30044414   6.319   5.467   7.685 -0.7280  3.0042 -0.1549
  138MOL   H30144415   6.530   5.574   7.717  0.6571  1.6699  1.3322
  138MOL   H30244416   6.631   5.594   7.955  0.0838  2.2327 -0.9189
  138MOL   H30344417   6.491   5.507   8.147  1.1280  1.6660 -0.0507
  138MOL   H30444418   6.296   5.477   8.300 -1.5846 -0.5644  2.6426
  138MOL   H30544419   6.179   5.359   8.316 -0.3932 -2.4884 -2.5476
  138MOL   C30644420   6.113   5.544   8.212 -0.3229  0.2340 -0.1169
  138MOL   C30744421   6.169   5.666   8.135  0.0802  0.0272  0.3582
  138MOL   C30844422   6.269   5.750   8.193  0.2031  0.7296  0.2184
  138MOL  Cl30944423   6.327   5.752   8.365 -0.0355  0.0691 -0.0878
  138MOL   C31044424   6.328   5.852   8.107  0.4612  0.0524  0.3345
  138MOL   C31144425   6.283   5.873   7.970  0.1442  0.2409 -0.3887
  138MOL   C31244426   6.185   5.793   7.921  0.0776 -0.1222  0.1057
  138MOL   C31344427   6.132   5.691   8.000 -0.1447  0.3697  0.4217
  138MOL   C31444428   6.024   5.581   8.328  0.8311  0.1568  0.0423
  138MOL   H31544429   6.044   5.490   8.147  0.3315  0.3087 -0.8926
  138MOL   H31644430   6.413   5.910   8.141  0.5205  1.7101 -2.5195
  138MOL   H31744431   6.337   5.948   7.914 -0.4737  1.2538  0.3513
  138MOL   H31844432   6.158   5.791   7.817  0.0183  0.5831  0.1073
  138MOL   H31944433   6.066   5.622   7.949 -0.6216  1.9245 -1.0925
  138MOL   H32044434   5.991   5.491   8.380 -1.1226  0.6869 -0.2514
  138MOL   H32144435   5.935   5.634   8.296  0.4468 -0.1408  0.6090
  138MOL   H32244436   6.084   5.632   8.404 -0.8663  0.7662  1.0045
  139MOL     C144437   4.421   3.601   0.316  0.8948  0.0904 -0.0249
  139MOL     C244438   4.280   3.577   0.364 -0.4292 -0.5547 -0.2808
  139MOL     C344439   4.161   3.614   0.288 -0.2372  0.8827 -0.0457
  139MOL    Cl444440   4.179   3.709   0.141 -0.5637 -0.0158  0.0184
  139MOL     C544441   4.032   3.579   0.335  0.1222 -0.1736  0.4752
  139MOL     C644442   4.024   3.515   0.463 -0.8559 -0.0548 -0.6870
  139MOL     C744443   4.138   3.473   0.534 -0.0106 -0.1696  0.0957
  139MOL     C844444   4.268   3.508   0.489  0.2759  0.1379 -0.0627
  139MOL     C944445   4.488   3.735   0.341  0.9139  0.4754  0.1261
  139MOL    H1044446   4.484   3.517   0.343 -2.3107 -1.1977  3.8407
  139MOL    H1144447   3.945   3.616   0.283  0.8376 -1.8004 -1.9433
  139MOL    H1244448   3.927   3.478   0.494 -0.1822 -1.5919 -0.3655
  139MOL    H1344449   4.127   3.404   0.617  1.1163 -0.0553  0.3473
  139MOL    H1444450   4.359   3.481   0.541 -0.4170 -1.1517  0.4976
  139MOL    H1544451   4.454   3.764   0.440 -1.4909 -0.9942 -0.2320
  139MOL    H1644452   4.435   3.801   0.272 -0.4469 -0.0640  0.6428
  139MOL    H1744453   4.421   3.591   0.207  0.7928  0.2595 -0.0407
  139MOL    C1844454   4.642   3.738   0.320  0.7888  0.4326  0.2562
  139MOL    C1944455   4.712   3.648   0.416 -0.3856 -0.4239 -0.3718
  139MOL    C2044456   4.793   3.538   0.368 -0.0982  0.1220 -0.0905
  139MOL   Cl2144457   4.826   3.500   0.204 -0.2833  0.4711  0.5629
  139MOL    C2244458   4.858   3.459   0.471 -0.1861 -0.8845 -0.4770
  139MOL    C2344459   4.842   3.493   0.607 -0.2926  0.2126 -0.4707
  139MOL    C2444460   4.770   3.600   0.650 -0.2146  0.2456  0.4644
  139MOL    C2544461   4.704   3.679   0.550 -0.3613 -0.0809 -0.2882
  139MOL    C2644462   4.705   3.878   0.334  0.8257  0.2882  0.0444
  139MOL    H2744463   4.666   3.705   0.218 -0.4460 -2.0261  0.7219
  139MOL    H2844464   4.922   3.375   0.447  1.0655 -0.4845  1.3017
  139MOL    H2944465   4.896   3.430   0.676  0.4874  0.5711 -0.7491
  139MOL    H3044466   4.774   3.630   0.754  1.0838 -1.8227  1.0335
  139MOL    H3144467   4.652   3.764   0.590  0.0753  0.0572 -0.0109
  139MOL    H3244468   4.809   3.865   0.361  1.0473  1.5258 -0.1846
  139MOL    H3344469   4.652   3.920   0.419  1.7656  1.2404  0.1612
  139MOL    C3444470   4.694   3.978   0.213  0.6782  0.0483 -0.1299
  139MOL    C3544471   4.712   3.907   0.074 -1.0607  0.1481 -0.5594
  139MOL    C3644472   4.607   3.889   8.405 -0.7656 -0.3593 -0.3375
  139MOL   Cl3744473   4.443   3.935   0.017  0.1335 -0.5198  0.1596
  139MOL    C3844474   4.638   3.826   8.283 -0.3091  0.2483 -0.4173
  139MOL    C3944475   4.767   3.777   8.251 -0.1146  0.3162 -0.2307
  139MOL    C4044476   4.866   3.780   8.349 -0.0089  0.4801  0.7390
  139MOL    C4144477   4.833   3.840   0.049 -0.8682  0.2722 -0.0947
  139MOL    C4244478   4.775   4.109   0.229  0.5892 -0.9204 -0.4768
  139MOL    H4344479   4.589   4.008   0.220  0.0376 -2.3450  1.1797
  139MOL    H4444480   4.561   3.820   8.208 -0.3202  0.1181 -0.3961
  139MOL    H4544481   4.788   3.731   8.156 -0.8141  1.0267 -0.7334
  139MOL    H4644482   4.955   3.720   8.336  0.0145  0.9617 -1.5794
  139MOL    H4744483   4.906   3.836   0.129 -0.6712  0.9472 -0.2395
  139MOL    H4844484   4.767   4.168   0.137  2.2183 -0.9496 -0.6447
  139MOL    H4944485   4.881   4.087   0.239  0.5438 -1.3611 -0.9499
  139MOL    C5044486   4.731   4.196   0.345 -0.4103 -0.1172  0.0232
  139MOL    C5144487   4.582   4.227   0.344 -0.2565  0.6216 -0.7493
  139MOL    C5244488   4.494   4.184   0.448 -0.4181  0.1409  0.2168
  139MOL   Cl5344489   4.543   4.118   0.604  0.0522  0.2749  0.2759
  139MOL    C5444490   4.357   4.198   0.433 -0.3605  0.3495  0.6217
  139MOL    C5544491   4.297   4.246   0.316 -0.4630 -0.1345 -0.3013
  139MOL    C5644492   4.386   4.294   0.220  0.2194  0.4448 -0.0445
  139MOL    C5744493   4.523   4.289   0.235 -0.2505  0.5424  0.1496
  139MOL    C5844494   4.816   4.327   0.356  0.3825  0.4565  0.3987
  139MOL    H5944495   4.744   4.146   0.441 -0.3450 -0.0619  0.0423
  139MOL    H6044496   4.294   4.163   0.514 -1.3754  0.8942  0.0722
  139MOL    H6144497   4.189   4.257   0.310 -0.6644 -1.0581  1.2838
  139MOL    H6244498   4.354   4.340   0.128 -0.4820  1.6592  0.7899
  139MOL    H6344499   4.593   4.329   0.163  2.3995 -0.6205  2.0387
  139MOL    H6444500   4.749   4.401   0.401  0.5412  1.7219 -1.4234
  139MOL    H6544501   4.836   4.364   0.256 -0.8899  0.2278  0.0526
  139MOL    C6644502   4.951   4.319   0.427  0.2348 -0.2210  0.1076
  139MOL    C6744503   4.941   4.251   0.564  0.4530  0.3189 -0.5471
  139MOL    C6844504   4.987   4.118   0.586 -0.3179  0.3744 -0.5444
  139MOL   Cl6944505   5.080   4.041   0.467  0.0841  0.0182 -0.1452
  139MOL    C7044506   4.945   4.048   0.697 -0.0498  0.2398 -0.8472
  139MOL    C7144507   4.875   4.105   0.801  0.2547  0.2530 -0.2004
  139MOL    C7244508   4.840   4.241   0.790 -0.1950  0.7763 -0.0613
  139MOL    C7344509   4.863   4.312   0.669  0.4317 -0.4666  0.7783
  139MOL    C7444510   5.031   4.448   0.445  1.1755 -0.2159  0.2267
  139MOL    H7544511   5.004   4.257   0.355 -1.3809 -0.4283 -0.9249
  139MOL    H7644512   4.973   3.945   0.712 -1.4957  0.2006  1.8451
  139MOL    H7744513   4.833   4.041   0.877  2.0841 -1.0136 -0.2208
  139MOL    H7844514   4.780   4.290   0.865 -0.0188 -0.0236  0.6218
  139MOL    H7944515   4.834   4.415   0.658 -0.1207 -0.7499 -0.5645
  139MOL    H8044516   5.126   4.441   0.498  0.6335 -0.6389  1.1534
  139MOL    H8144517   4.972   4.521   0.498 -1.0605 -1.5204 -0.4006
  139MOL    C8244518   5.065   4.514   0.310 -0.0612 -0.8597 -0.7474
  139MOL    C8344519   5.127   4.424   0.205  0.9404  1.0042  0.1501
  139MOL    C8444520   5.061   4.402   0.083  0.4296  0.0207 -0.5162
  139MOL   Cl8544521   4.935   4.506   0.038  0.0732 -0.7221  0.0432
  139MOL    C8644522   5.097   4.303   8.408 -0.5588 -0.2535  0.0433
  139MOL    C8744523   5.199   4.215   0.027 -0.5016 -1.1069 -0.2433
  139MOL    C8844524   5.273   4.233   0.145  0.8729 -0.1805 -0.3077
  139MOL    C8944525   5.238   4.336   0.236  0.3789  0.2842 -0.1222
  139MOL    C9044526   5.154   4.639   0.324  0.0930 -0.1569 -0.0381
  139MOL    H9144527   4.967   4.549   0.277 -0.4076 -1.4014 -0.3194
  139MOL    H9244528   5.055   4.290   8.310 -1.3511  2.5641 -0.0473
  139MOL    H9344529   5.238   4.140   8.381  0.8853 -2.1485  1.7070
  139MOL    H9444530   5.359   4.172   0.166  0.6678 -0.2331  0.3701
  139MOL    H9544531   5.289   4.351   0.330  1.8615 -0.6060 -0.7717
  139MOL    H9644532   5.162   4.687   0.226 -1.1222  0.5910  0.2186
  139MOL    H9744533   5.255   4.614   0.355  0.0684  2.1356  2.0887
  139MOL    C9844534   5.114   4.755   0.435 -0.2396  0.2298  0.4248
  139MOL    C9944535   4.968   4.808   0.407 -0.3466 -0.9159  0.0322
  139MOL   C10044536   4.886   4.842   0.522  0.2893 -0.7655 -0.6716
  139MOL  Cl10144537   4.932   4.801   0.686 -0.3571 -0.3739  0.0417
  139MOL   C10244538   4.760   4.905   0.504  0.4411 -0.5057  0.7794
  139MOL   C10344539   4.718   4.934   0.371 -0.4920  0.4564  0.6148
  139MOL   C10444540   4.801   4.901   0.258 -0.2948 -0.6610  0.6828
  139MOL   C10544541   4.924   4.835   0.276 -0.4370 -0.6633  0.0862
  139MOL   C10644542   5.218   4.871   0.428 -0.2171 -0.2694 -0.1459
  139MOL   H10744543   5.123   4.706   0.532 -0.1673 -0.8968 -0.1360
  139MOL   H10844544   4.698   4.932   0.589 -0.8269 -1.5433  0.1874
  139MOL   H10944545   4.616   4.969   0.357 -0.8756 -1.1106 -0.7637
  139MOL   H11044546   4.766   4.927   0.159  0.2870  1.2758  0.9795
  139MOL   H11144547   4.994   4.829   0.193  1.1929 -0.7448  1.4324
  139MOL   H11244548   5.221   4.913   0.327  0.0847 -0.4283 -0.2051
  139MOL   H11344549   5.313   4.820   0.443 -0.8696 -0.8781  2.0387
  139MOL   C11444550   5.218   4.983   0.530 -0.2661 -0.0880 -0.3237
  139MOL   C11544551   5.264   5.118   0.469 -0.5415 -0.4938 -0.0505
  139MOL   C11644552   5.181   5.236   0.477 -0.5173 -0.2878  0.6274
  139MOL  Cl11744553   5.018   5.241   0.538 -0.0884  0.1234  0.0640
  139MOL   C11844554   5.239   5.352   0.418 -0.7218 -0.2904 -0.5354
  139MOL   C11944555   5.364   5.352   0.355  0.7047 -0.1733 -0.4137
  139MOL   C12044556   5.439   5.239   0.345  0.4223  0.1392 -0.4988
  139MOL   C12144557   5.392   5.120   0.407 -0.0728 -0.2238 -0.2124
  139MOL   C12244558   5.286   4.933   0.662  0.2965 -0.2281  0.1659
  139MOL   H12344559   5.114   5.001   0.557 -0.0141  0.2806  0.4063
  139MOL   H12444560   5.181   5.440   0.441  2.8659  2.1091 -0.2188
  139MOL   H12544561   5.400   5.449   0.325 -0.1068  0.9692  2.1511
  139MOL   H12644562   5.539   5.254   0.308  0.2642  2.8891  0.0516
  139MOL   H12744563   5.454   5.032   0.402  0.1013 -0.0615 -1.0229
  139MOL   H12844564   5.390   4.904   0.648  0.3704  0.9074 -1.7411
  139MOL   H12944565   5.237   4.850   0.712 -0.8409 -0.0827 -0.6999
  139MOL   C13044566   5.297   5.053   0.775  0.0077 -0.0718  0.4534
  139MOL   C13144567   5.418   5.025   0.857 -0.3303 -0.0100 -0.1452
  139MOL   C13244568   5.529   5.113   0.851  0.1540 -0.0832  0.7355
  139MOL  Cl13344569   5.533   5.250   0.745  0.1644  0.0365  0.0477
  139MOL   C13444570   5.650   5.093   0.924 -0.1128 -0.0485 -0.2282
  139MOL   C13544571   5.651   4.970   1.001 -0.0982  0.5678 -0.4248
  139MOL   C13644572   5.540   4.885   1.013 -0.5924 -0.2498 -0.6087
  139MOL   C13744573   5.423   4.913   0.942 -0.5409  0.6529  0.1991
  139MOL   C13844574   5.163   5.072   0.850  0.2876 -1.0375 -0.2681
  139MOL   H13944575   5.302   5.151   0.726 -0.5911 -0.6695 -0.8311
  139MOL   H14044576   5.745   5.137   0.898 -0.2231  2.5201  3.4074
  139MOL   H14144577   5.745   4.932   1.039 -1.3992 -1.1690  1.0945
  139MOL   H14244578   5.550   4.791   1.066 -1.6641  0.1667  0.3310
  139MOL   H14344579   5.340   4.844   0.937 -0.8036  0.9142  0.9163
  139MOL   H14444580   5.144   4.985   0.913 -0.4585  0.6294  1.8733
  139MOL   H14544581   5.082   5.079   0.778  0.3974 -0.2378 -0.3179
  139MOL   C14644582   5.157   5.205   0.936 -0.7361  0.3050 -0.0649
  139MOL   C14744583   5.056   5.194   1.050  0.6401 -0.3770 -0.0781
  139MOL   C14844584   5.091   5.183   1.184 -0.4889  0.2662  0.1330
  139MOL  Cl14944585   5.253   5.223   1.237  0.0259  0.4174  0.0154
  139MOL   C15044586   4.993   5.152   1.280  0.6489  0.1760  0.1774
  139MOL   C15144587   4.855   5.136   1.245  0.3023 -0.0522 -0.1175
  139MOL   C15244588   4.822   5.150   1.104 -0.0638 -0.5595  0.3077
  139MOL   C15344589   4.921   5.183   1.011  0.2065  0.4728  0.0630
  139MOL   C15444590   5.129   5.332   0.847  0.4095  0.4229  0.0002
  139MOL   H15544591   5.255   5.201   0.985 -1.4049  0.5093  1.3079
  139MOL   H15644592   5.018   5.150   1.385 -2.6116  0.7516  1.0268
  139MOL   H15744593   4.786   5.102   1.320  1.9267 -1.4508  0.7822
  139MOL   H15844594   4.721   5.124   1.076 -0.1498  0.8707 -0.7932
  139MOL   H15944595   4.895   5.201   0.908  2.2653  2.2217 -0.1796
  139MOL   H16044596   5.038   5.308   0.791  0.7489 -3.1222  0.8517
  139MOL   H16144597   5.202   5.337   0.767 -0.2401  2.1959 -0.5265
  139MOL   C16244598   5.127   5.469   0.914 -1.0448  0.5216 -0.1825
  139MOL   C16344599   5.089   5.571   0.803  0.1027 -0.1773  1.1283
  139MOL   C16444600   4.952   5.622   0.794  0.1386  0.0588 -0.6620
  139MOL  Cl16544601   4.836   5.587   0.917 -0.2470  0.0061 -0.0075
  139MOL   C16644602   4.921   5.712   0.686  1.4679  0.3865  0.2186
  139MOL   C16744603   5.019   5.745   0.592  0.0912  0.8537  0.2376
  139MOL   C16844604   5.153   5.701   0.606  0.3499 -0.0097 -0.7013
  139MOL   C16944605   5.183   5.606   0.705  0.2585 -0.1346  0.0534
  139MOL   C17044606   5.262   5.500   0.982  0.5035  0.2389  0.7233
  139MOL   H17144607   5.055   5.478   0.996 -1.7571  0.3299 -0.7874
  139MOL   H17244608   4.824   5.757   0.677  0.6434 -1.4195 -0.1595
  139MOL   H17344609   4.998   5.818   0.515  1.1714 -0.2821 -1.1681
  139MOL   H17444610   5.221   5.730   0.527  1.0185  1.1053  0.2623
  139MOL   H17544611   5.284   5.567   0.707 -0.2934 -1.5250  2.2274
  139MOL   H17644612   5.346   5.481   0.916  0.2588 -0.7395  0.6735
  139MOL   H17744613   5.294   5.426   1.055 -2.0962 -0.1975  1.4896
  139MOL   C17844614   5.275   5.641   1.041 -0.5533 -0.0936  0.6877
  139MOL   C17944615   5.418   5.652   1.107  0.0289 -0.3226  0.7861
  139MOL   C18044616   5.528   5.728   1.059  0.1095 -0.2470 -0.7006
  139MOL  Cl18144617   5.520   5.798   0.908  0.2214  0.4423  0.2877
  139MOL   C18244618   5.646   5.743   1.129 -0.6292 -0.2433  0.7125
  139MOL   C18344619   5.663   5.673   1.246  0.0841 -0.3962 -0.1755
  139MOL   C18444620   5.560   5.593   1.293 -0.0670  0.1397  0.4758
  139MOL   C18544621   5.431   5.586   1.234  0.3344  0.2011 -0.0622
  139MOL   C18644622   5.156   5.688   1.135 -0.9028  0.3675  0.2716
  139MOL   H18744623   5.283   5.714   0.961 -0.8679 -0.7718  0.0394
  139MOL   H18844624   5.724   5.804   1.086 -2.3628  2.6387  1.4531
  139MOL   H18944625   5.760   5.672   1.294  0.1180  0.7258 -0.2171
  139MOL   H19044626   5.579   5.533   1.381  0.8727 -1.6676 -0.9178
  139MOL   H19144627   5.346   5.536   1.277  2.3470  0.2576  4.1699
  139MOL   H19244628   5.146   5.606   1.206 -1.9253  0.4194  0.1880
  139MOL   H19344629   5.062   5.682   1.080  0.4022  2.9064 -2.3905
  139MOL   C19444630   5.175   5.824   1.212 -0.5879  0.0033  0.4415
  139MOL   C19544631   5.052   5.830   1.307  0.1646 -0.3959  0.0632
  139MOL   C19644632   5.061   5.817   1.443 -0.4042 -0.1456 -0.4308
  139MOL  Cl19744633   5.217   5.795   1.516 -0.3439 -0.0899  0.2394
  139MOL   C19844634   4.950   5.806   1.532  0.1711 -0.0825  0.4368
  139MOL   C19944635   4.818   5.820   1.475 -0.1506  0.8262  0.3939
  139MOL   C20044636   4.802   5.839   1.337 -0.2838 -0.3933 -0.6220
  139MOL   C20144637   4.920   5.848   1.253 -0.3604 -0.4385 -0.1253
  139MOL   C20244638   5.189   5.941   1.110  0.5567  0.4477  0.0793
  139MOL   H20344639   5.271   5.840   1.259 -0.4943 -1.1765  0.6872
  139MOL   H20444640   4.955   5.788   1.639 -0.9717  0.1858  0.5385
  139MOL   H20544641   4.734   5.808   1.542 -0.0662 -2.0499  0.0355
  139MOL   H20644642   4.705   5.847   1.290 -1.2279  0.3172  1.3761
  139MOL   H20744643   4.895   5.861   1.148  3.5716 -0.9999 -1.2057
  139MOL   H20844644   5.096   5.950   1.053 -0.1956 -0.6662  1.0952
  139MOL   H20944645   5.268   5.909   1.042 -0.5524 -0.8470 -0.6356
  139MOL   C21044646   5.238   6.078   1.155 -0.5953 -0.4742  1.0372
  139MOL   C21144647   5.143   6.149   1.249  0.5548 -0.0010 -0.1556
  139MOL   C21244648   5.174   6.169   1.381 -0.3605 -0.0682  0.4002
  139MOL  Cl21344649   5.327   6.126   1.437  0.1834  0.1744  0.5202
  139MOL   C21444650   5.084   6.231   1.466  0.4574  0.1113  0.1906
  139MOL   C21544651   4.957   6.276   1.419 -0.0376  0.1117 -0.2334
  139MOL   C21644652   4.922   6.256   1.283  0.0842 -0.9897  0.4113
  139MOL   C21744653   5.015   6.190   1.198  0.0698  0.3235 -1.2093
  139MOL   C21844654   5.278   6.179   1.040  0.3543  0.9338 -0.6151
  139MOL   H21944655   5.333   6.052   1.202 -0.1154 -0.2581  0.1932
  139MOL   H22044656   5.112   6.241   1.570 -0.1943 -0.3118  0.4081
  139MOL   H22144657   4.885   6.319   1.488  1.0984 -0.2391  1.2026
  139MOL   H22244658   4.822   6.285   1.254  0.1739  0.1329  1.1918
  139MOL   H22344659   4.985   6.163   1.098  1.5599 -0.3047 -1.5115
  139MOL   H22444660   5.222   6.272   1.051  1.3979  1.5792 -0.7292
  139MOL   H22544661   5.232   6.135   0.951  0.8880 -1.1321  0.0990
  139MOL   C22644662   5.427   6.205   1.023  0.4548  0.0348 -0.6770
  139MOL   C22744663   5.488   6.290   1.133 -0.0276  0.3088 -0.5089
  139MOL   C22844664   5.580   6.237   1.230  0.7204  0.7420 -0.6936
  139MOL  Cl22944665   5.643   6.081   1.218 -0.2574 -0.0771 -0.0686
  139MOL   C23044666   5.618   6.316   1.342 -0.5936 -0.5298 -0.0711
  139MOL   C23144667   5.568   6.451   1.353  0.0117 -0.2670  0.1200
  139MOL   C23244668   5.476   6.503   1.259 -0.4405 -0.3376  0.7522
  139MOL   C23344669   5.437   6.423   1.152  0.3535  0.0062  0.1311
  139MOL   C23444670   5.449   6.255   0.879  0.2387 -0.9596 -0.0725
  139MOL   H23544671   5.470   6.105   1.022 -1.3021 -0.7541 -0.4535
  139MOL   H23644672   5.680   6.276   1.421 -1.3592 -2.6935 -0.5415
  139MOL   H23744673   5.615   6.510   1.430 -1.0230 -0.8468  1.2094
  139MOL   H23844674   5.433   6.602   1.264  0.9022  0.2336  1.2009
  139MOL   H23944675   5.355   6.460   1.092  0.0137  1.1485  1.2772
  139MOL   H24044676   5.400   6.351   0.860  3.6060  0.4966 -1.6408
  139MOL   H24144677   5.386   6.191   0.816  1.2965 -1.8424 -0.2421
  139MOL   C24244678   5.596   6.268   0.832  0.2893  0.3485  0.2333
  139MOL   C24344679   5.610   6.348   0.707  0.4020 -0.3350 -0.2606
  139MOL   C24444680   5.704   6.450   0.693 -0.7098  0.2112 -0.9150
  139MOL  Cl24544681   5.816   6.485   0.818 -0.2943 -0.0377  0.0804
  139MOL   C24644682   5.720   6.511   0.564 -0.5380 -0.3272  0.0626
  139MOL   C24744683   5.632   6.479   0.458  0.4130  0.3670  0.3409
  139MOL   C24844684   5.538   6.375   0.470  0.4915 -0.7582  0.0293
  139MOL   C24944685   5.536   6.313   0.595 -0.5903 -0.0851  0.1937
  139MOL   C25044686   5.660   6.125   0.813 -0.0833 -0.1438 -0.1815
  139MOL   H25144687   5.651   6.313   0.915  0.5502  1.0670 -0.3275
  139MOL   H25244688   5.794   6.588   0.551 -0.5059 -0.6682 -1.9695
  139MOL   H25344689   5.635   6.546   0.373 -0.5435  0.3051  0.2465
  139MOL   H25444690   5.459   6.346   0.402 -0.0195 -2.0884  1.1610
  139MOL   H25544691   5.456   6.241   0.600  0.5531 -1.3372  0.6307
  139MOL   H25644692   5.628   6.080   0.720  0.9578  0.1333 -0.6858
  139MOL   H25744693   5.640   6.055   0.894 -3.0767  0.0531 -0.7155
  139MOL   C25844694   5.810   6.129   0.813 -0.2710 -0.4288  0.2949
  139MOL   C25944695   5.870   6.006   0.745  0.1904  0.0150  0.8701
  139MOL   C26044696   5.935   6.017   0.619  0.4534 -0.2518  0.6618
  139MOL  Cl26144697   5.954   6.170   0.546  0.0617  0.2399  0.1384
  139MOL   C26244698   6.003   5.909   0.557 -0.1983 -0.0371 -0.2766
  139MOL   C26344699   6.000   5.784   0.624 -0.9855 -0.1382  0.1493
  139MOL   C26444700   5.922   5.766   0.742 -0.8755  0.4748  0.0564
  139MOL   C26544701   5.872   5.880   0.804  1.2281 -0.3049  0.2048
  139MOL   C26644702   5.862   6.150   0.956 -0.3562  0.1259 -0.3925
  139MOL   H26744703   5.846   6.222   0.768  3.1791 -1.7868  0.0991
  139MOL   H26844704   6.057   5.926   0.466 -0.4553  1.4716 -0.1642
  139MOL   H26944705   6.057   5.699   0.587 -0.6995 -1.1512  2.7719
  139MOL   H27044706   5.929   5.668   0.786  2.1141  1.3875  1.7564
  139MOL   H27144707   5.822   5.871   0.900 -0.6594  2.4984 -0.4614
  139MOL   H27244708   5.816   6.079   1.026  2.1529 -0.4343  0.7277
  139MOL   H27344709   5.824   6.245   0.994 -0.0653  0.2168 -0.3308
  139MOL   C27444710   6.009   6.128   0.988 -0.0873  0.5002  0.0639
  139MOL   C27544711   6.021   6.149   1.133 -0.7032  0.5169  0.3096
  139MOL   C27644712   6.054   6.040   1.226 -0.1503  0.3883 -0.2591
  139MOL  Cl27744713   6.093   5.881   1.164  0.3147 -0.0396  0.3471
  139MOL   C27844714   6.059   6.069   1.363  0.1505  0.0402 -0.5023
  139MOL   C27944715   6.038   6.195   1.414  0.6967 -0.5274 -0.5823
  139MOL   C28044716   6.002   6.300   1.324 -0.0890  0.1685  0.7048
  139MOL   C28144717   6.003   6.274   1.188 -0.1950  0.0748  0.3110
  139MOL   C28244718   6.097   6.237   0.912  0.2763  0.3384 -1.2115
  139MOL   H28344719   6.036   6.026   0.960 -1.0656  0.6743 -1.5514
  139MOL   H28444720   6.104   5.988   1.419 -0.6272 -0.9828 -1.3390
  139MOL   H28544721   6.048   6.222   1.519 -1.7869  0.5739 -0.6025
  139MOL   H28644722   5.986   6.398   1.366  0.2808  0.6783 -0.3022
  139MOL   H28744723   5.977   6.359   1.126  0.5304 -0.1516 -0.2975
  139MOL   H28844724   6.076   6.342   0.933 -1.3996  0.1992 -2.1252
  139MOL   H28944725   6.076   6.223   0.806 -0.7524  0.5471 -1.0430
  139MOL   C29044726   6.254   6.220   0.937  0.9998 -0.5669  0.0296
  139MOL   C29144727   6.337   6.341   0.885  1.8795 -0.0828 -0.0014
  139MOL   C29244728   6.406   6.423   0.977  0.1643 -0.2628 -0.0649
  139MOL  Cl29344729   6.425   6.386   1.142  0.2671  0.3479  0.1055
  139MOL   C29444730   6.473   6.533   0.929 -0.4275  0.2785  0.4066
  139MOL   C29544731   6.489   6.554   0.793  1.0204 -0.3147  0.1983
  139MOL   C29644732   6.426   6.470   0.699  0.4266 -0.5501 -0.4080
  139MOL   C29744733   6.344   6.365   0.748 -1.1577  0.7081  0.7751
  139MOL   C29844734   6.301   6.090   0.871  0.0140 -0.1844  0.5217
  139MOL   H29944735   6.271   6.219   1.045  1.9531  1.4516 -0.0653
  139MOL   H30044736   6.534   6.591   0.997 -0.5536  2.7650 -1.5409
  139MOL   H30144737   6.564   6.629   0.771 -1.6009  2.0061 -1.1812
  139MOL   H30244738   6.429   6.486   0.592 -4.5559  1.1042 -0.4190
  139MOL   H30344739   6.292   6.307   0.672  1.9992 -1.1493 -0.0688
  139MOL   H30444740   6.268   6.095   0.767  0.0452  0.1758  0.5284
  139MOL   H30544741   6.248   6.006   0.915  0.1332 -2.0025 -2.6333
  139MOL   C30644742   6.448   6.058   0.862 -0.1212 -0.1859 -0.5660
  139MOL   C30744743   6.474   5.949   0.761  0.4133  0.4041  0.1128
  139MOL   C30844744   6.413   5.815   0.760 -0.1337 -0.0163  0.3471
  139MOL  Cl30944745   6.326   5.757   0.901 -0.5789 -0.0814 -0.0871
  139MOL   C31044746   6.420   5.731   0.651 -0.0904  0.3228  0.4732
  139MOL   C31144747   6.507   5.767   0.547 -0.2041 -0.9642 -0.0319
  139MOL   C31244748   6.571   5.893   0.546 -0.1671  0.6120 -0.6078
  139MOL   C31344749   6.557   5.986   0.648  0.2535 -0.2396 -1.2044
  139MOL   C31444750   6.520   6.028   0.989 -0.3410 -0.1007  0.1171
  139MOL   H31544751   6.503   6.146   0.829  0.1538 -0.8232 -1.8312
  139MOL   H31644752   6.365   5.638   0.656 -0.1100  0.2213 -1.4149
  139MOL   H31744753   6.529   5.696   0.469 -0.6935 -0.9687 -0.1661
  139MOL   H31844754   6.630   5.917   0.459 -0.2052 -0.7152 -1.0025
  139MOL   H31944755   6.608   6.081   0.644  1.4748 -0.8392 -0.2581
  139MOL   H32044756   6.502   6.098   1.071  1.0917  0.5149 -0.0728
  139MOL   H32144757   6.625   6.016   0.961  0.0906 -0.2938  1.7659
  139MOL   H32244758   6.504   5.926   1.026 -0.3459 -0.1478 -0.0173
  140MOL     C144759   7.942   7.106   5.963 -0.0704  1.0184  0.6031
  140MOL     C244760   7.893   7.070   6.108 -0.0789  0.0434  0.1092
  140MOL     C344761   7.757   7.093   6.147  0.4338  0.7464  0.0274
  140MOL    Cl444762   7.637   7.150   6.025  0.2361  0.6903  0.2837
  140MOL     C544763   7.714   7.056   6.276  0.0753 -0.2580  0.1222
  140MOL     C644764   7.807   7.018   6.366 -0.5887  0.5510  0.5846
  140MOL     C744765   7.944   6.984   6.330  0.4296 -0.2032  0.0184
  140MOL     C844766   7.983   7.018   6.198 -0.1287 -0.2076 -0.0530
  140MOL     C944767   8.023   7.235   5.954  1.0049  0.6734  0.1956
  140MOL    H1044768   7.999   7.019   5.930  0.0606  1.7745 -1.2262
  140MOL    H1144769   7.609   7.057   6.301 -0.0122  0.3225 -0.2565
  140MOL    H1244770   7.780   7.002   6.470 -1.0816  0.0894  0.3895
  140MOL    H1344771   8.014   6.950   6.405 -0.0541 -0.1176  0.5154
  140MOL    H1444772   8.086   7.011   6.167 -0.1086 -1.3910  0.2357
  140MOL    H1544773   8.121   7.229   6.002  0.9058  0.7362  0.4065
  140MOL    H1644774   7.970   7.317   6.002  0.4666 -0.7557  2.1177
  140MOL    H1744775   7.858   7.107   5.894  2.8680 -2.0195 -3.2970
  140MOL    C1844776   8.041   7.284   5.808 -0.8706 -0.8269 -0.0317
  140MOL    C1944777   8.150   7.207   5.737  0.0371 -0.6697 -0.0649
  140MOL    C2044778   8.130   7.113   5.628  0.6169 -0.3520  0.2373
  140MOL   Cl2144779   7.968   7.096   5.561 -0.2141  0.2259  0.2440
  140MOL    C2244780   8.237   7.039   5.576 -0.3517  0.0883 -0.1868
  140MOL    C2344781   8.367   7.058   5.619 -0.2899 -0.4524  0.5530
  140MOL    C2444782   8.390   7.153   5.720  0.5505 -0.4045 -0.4544
  140MOL    C2544783   8.283   7.217   5.787  0.1258 -0.3224 -0.4245
  140MOL    C2644784   8.064   7.436   5.800  0.6403  0.1329 -0.7037
  140MOL    H2744785   7.951   7.269   5.748 -0.6564 -0.9889 -0.3144
  140MOL    H2844786   8.216   6.972   5.493  0.0019 -0.7477  0.3966
  140MOL    H2944787   0.019   6.988   5.580  1.0646 -0.5232  3.0698
  140MOL    H3044788   0.066   7.175   5.762 -0.2366 -1.1641  1.8254
  140MOL    H3144789   8.303   7.274   5.876  1.8355 -1.2010 -0.2270
  140MOL    H3244790   8.163   7.450   5.844  0.6405 -2.2947  0.1706
  140MOL    H3344791   7.989   7.480   5.865 -0.5869  0.3457 -2.2383
  140MOL    C3444792   8.032   7.500   5.661 -0.3025  0.3229  0.4820
  140MOL    C3544793   8.137   7.474   5.546  0.0754 -0.4600 -0.6320
  140MOL    C3644794   8.104   7.398   5.432  0.5369 -0.1448 -0.2532
  140MOL   Cl3744795   7.943   7.343   5.400 -0.1443 -0.2352  0.0482
  140MOL    C3844796   8.196   7.376   5.327 -0.1910  0.0699 -0.6153
  140MOL    C3944797   8.323   7.428   5.341 -0.2115  0.6247 -0.1800
  140MOL    C4044798   8.363   7.502   5.452 -0.1350 -0.1080  0.2361
  140MOL    C4144799   8.268   7.525   5.562  0.1300 -0.1128 -0.7060
  140MOL    C4244800   8.003   7.656   5.672 -0.2228 -0.6566 -0.3987
  140MOL    H4344801   7.937   7.456   5.632  0.4307 -0.7186 -0.3866
  140MOL    H4444802   8.170   7.321   5.238 -1.0388 -0.5639  0.0184
  140MOL    H4544803   8.391   7.413   5.259 -0.9694  1.0392 -0.8905
  140MOL    H4644804   0.039   7.549   5.452 -0.7534  1.2304 -1.4350
  140MOL    H4744805   8.294   7.581   5.650  2.8393 -0.9241 -0.9684
  140MOL    H4844806   8.097   7.696   5.711 -0.3810  0.7004 -1.3673
  140MOL    H4944807   7.926   7.673   5.747  1.6752  3.7919  0.7025
  140MOL    C5044808   7.972   7.731   5.541  0.7778  0.6914  0.2553
  140MOL    C5144809   7.985   7.888   5.577  0.3789  0.5103  0.4403
  140MOL    C5244810   8.086   7.973   5.524 -0.4979 -0.5803 -0.4722
  140MOL   Cl5344811   8.199   7.916   5.414 -0.2841 -0.3175 -0.2695
  140MOL    C5444812   8.074   8.110   5.546  1.1239 -0.6231  0.0100
  140MOL    C5544813   7.984   8.165   5.637 -0.4378  0.0134 -0.0122
  140MOL    C5644814   7.890   8.081   5.697  0.1448  0.2066 -0.1610
  140MOL    C5744815   7.890   7.941   5.668  0.6938 -0.2110  0.2181
  140MOL    C5844816   7.834   7.695   5.477 -0.5675  0.0830 -0.6470
  140MOL    H5944817   8.051   7.713   5.469  0.5560  0.4636  0.0698
  140MOL    H6044818   8.130   8.176   5.481  0.9021  0.5367  0.9678
  140MOL    H6144819   7.992   8.272   5.653  0.2661 -0.1312  0.6250
  140MOL    H6244820   7.825   8.114   5.776 -0.2090 -1.3091  0.2015
  140MOL    H6344821   7.813   7.877   5.708  1.3590 -1.0645  0.1564
  140MOL    H6444822   7.761   7.770   5.508  0.1219  0.0917  0.9614
  140MOL    H6544823   7.806   7.601   5.524 -0.2684  0.9297  1.2635
  140MOL    C6644824   7.829   7.685   5.332 -0.3565  0.4336  0.8698
  140MOL    C6744825   7.856   7.818   5.264  0.2792  0.1665 -0.3664
  140MOL    C6844826   7.960   7.835   5.167  0.0587  0.5683  0.1398
  140MOL   Cl6944827   8.072   7.704   5.133  0.1111 -0.2959  0.1241
  140MOL    C7044828   7.987   7.957   5.102 -0.7750  0.1025 -0.4592
  140MOL    C7144829   7.922   8.072   5.142 -0.6117  0.3139 -0.1844
  140MOL    C7244830   7.821   8.061   5.237 -0.4563  0.9850  0.3106
  140MOL    C7344831   7.791   7.941   5.299 -0.4641 -0.4414 -0.6613
  140MOL    C7444832   7.699   7.619   5.281 -0.4148 -0.1775 -0.2573
  140MOL    H7544833   7.904   7.610   5.306 -0.1054  1.9248 -2.8985
  140MOL    H7644834   8.068   7.984   5.036  0.3379 -1.6983  0.1502
  140MOL    H7744835   7.942   8.167   5.094  0.6250  0.0660 -0.1732
  140MOL    H7844836   7.763   8.149   5.262 -1.1580  0.9013 -0.9590
  140MOL    H7944837   7.718   7.937   5.379 -2.0425 -0.8330 -2.0706
  140MOL    H8044838   7.613   7.685   5.297 -0.9413 -0.8889 -0.1548
  140MOL    H8144839   7.677   7.534   5.346 -0.0304  0.0762  0.2065
  140MOL    C8244840   7.706   7.561   5.130  0.5308  0.6462 -0.3551
  140MOL    C8344841   7.703   7.669   5.022  0.4769 -0.4465  0.3180
  140MOL    C8444842   7.797   7.667   4.914  0.3364  0.1696  1.1499
  140MOL   Cl8544843   7.912   7.542   4.895 -0.4712  0.2619  0.0472
  140MOL    C8644844   7.801   7.773   4.820  0.0747  0.2188  0.5486
  140MOL    C8744845   7.706   7.875   4.828  0.9210 -0.2447  0.0811
  140MOL    C8844846   7.607   7.875   4.932  0.0422 -0.2670  0.0693
  140MOL    C8944847   7.604   7.762   5.017  0.6567  0.1194 -1.0623
  140MOL    C9044848   7.593   7.455   5.110  0.5255 -0.6910 -0.6974
  140MOL    H9144849   7.806   7.516   5.123  0.4541  0.8041 -2.6539
  140MOL    H9244850   7.873   7.765   4.740  1.5932 -1.8368  2.0612
  140MOL    H9344851   7.700   7.953   4.754 -1.3232 -0.4228  0.0192
  140MOL    H9444852   7.529   7.949   4.926 -1.0322 -1.2610  1.5861
  140MOL    H9544853   7.522   7.761   5.086  1.1696  0.1545 -0.4535
  140MOL    H9644854   7.499   7.507   5.091  1.1883  1.7011  2.0753
  140MOL    H9744855   7.571   7.403   5.203 -0.8499  1.8126  0.4186
  140MOL    C9844856   7.605   7.349   4.992  0.3853  0.7487  0.6384
  140MOL    C9944857   7.467   7.293   4.971  0.1930 -0.4590  0.2277
  140MOL   C10044858   7.383   7.338   4.863  0.1389  0.2709 -0.6044
  140MOL  Cl10144859   7.428   7.454   4.742 -0.1825 -0.0069  0.2752
  140MOL   C10244860   7.257   7.275   4.848  1.0087 -0.0078 -0.0347
  140MOL   C10344861   7.224   7.165   4.927  0.1838  0.2946 -0.1553
  140MOL   C10444862   7.305   7.117   5.025 -0.1692 -0.0292  0.0406
  140MOL   C10544863   7.423   7.187   5.049  0.7704 -0.4705  0.2871
  140MOL   C10644864   7.718   7.245   5.010  0.3343 -0.1252 -0.4073
  140MOL   H10744865   7.635   7.413   4.909 -2.6572  2.1018  0.4951
  140MOL   H10844866   7.202   7.285   4.756 -0.9702  1.3539  1.2581
  140MOL   H10944867   7.137   7.109   4.897  0.2446  0.8504 -1.3856
  140MOL   H11044868   7.282   7.030   5.085  2.9038  0.9006  2.6694
  140MOL   H11144869   7.496   7.162   5.124  1.7567  0.1247 -0.4555
  140MOL   H11244870   7.731   7.210   5.112 -0.1808  2.0078  0.4271
  140MOL   H11344871   7.804   7.312   5.000 -0.1444  1.0027  2.4616
  140MOL   C11444872   7.716   7.129   4.910 -0.6764 -0.1656 -0.4993
  140MOL   C11544873   7.675   6.996   4.980  0.2679  0.3643  0.3280
  140MOL   C11644874   7.567   6.917   4.933 -0.1346  0.6794 -0.0290
  140MOL  Cl11744875   7.488   6.966   4.788 -0.1542 -0.3130 -0.4237
  140MOL   C11844876   7.535   6.787   4.981 -0.5228 -1.3315  0.6999
  140MOL   C11944877   7.593   6.742   5.105  0.1840 -0.0619  0.2236
  140MOL   C12044878   7.688   6.832   5.159  0.2512 -0.4878 -0.4833
  140MOL   C12144879   7.734   6.948   5.103 -0.7777 -0.2925 -0.2377
  140MOL   C12244880   7.856   7.098   4.847  0.1174 -0.4206  0.1951
  140MOL   H12344881   7.653   7.155   4.824  0.9429  0.6650 -1.4514
  140MOL   H12444882   7.460   6.725   4.935  0.2481 -1.2133 -0.7635
  140MOL   H12544883   7.567   6.645   5.143 -0.1645 -1.4616 -3.4164
  140MOL   H12644884   7.745   6.812   5.249 -1.2167 -1.9219  0.1653
  140MOL   H12744885   7.822   6.987   5.151 -0.4217 -1.2918 -0.0567
  140MOL   H12844886   7.854   6.992   4.821 -0.3302 -0.3549 -0.0375
  140MOL   H12944887   7.942   7.097   4.913  0.7232  0.8486 -0.5549
  140MOL   C13044888   7.891   7.189   4.717  0.5393  0.9392 -0.1156
  140MOL   C13144889   7.785   7.196   4.613  0.2502  0.2269 -0.0556
  140MOL   C13244890   7.738   7.315   4.544  0.0551  0.2071 -0.0875
  140MOL  Cl13344891   7.821   7.465   4.546  0.1552 -0.8632 -0.1538
  140MOL   C13444892   7.634   7.310   4.450  0.2343 -0.0309 -0.3400
  140MOL   C13544893   7.564   7.189   4.428 -0.0415  0.1333  0.3130
  140MOL   C13644894   7.619   7.070   4.484  0.3244 -0.3484  0.0611
  140MOL   C13744895   7.728   7.076   4.570  0.0733 -0.4105 -0.8659
  140MOL   C13844896   8.022   7.131   4.655  0.2461  0.1518  0.0331
  140MOL   H13944897   7.904   7.293   4.747  1.0419  1.0620 -0.7491
  140MOL   H14044898   7.602   7.395   4.392 -0.0921  0.5755  0.7134
  140MOL   H14144899   7.496   7.193   4.344  1.1790  2.3179 -0.6263
  140MOL   H14244900   7.584   6.972   4.457 -0.5338 -0.0709  0.1472
  140MOL   H14344901   7.752   6.983   4.619  0.2496 -0.1594 -0.4760
  140MOL   H14444902   8.039   7.178   4.558 -0.0665  1.0546  0.4153
  140MOL   H14544903   8.010   7.024   4.640 -3.8833  0.4934  0.4865
  140MOL   C14644904   8.148   7.158   4.730  0.1646 -0.1886  0.5841
  140MOL   C14744905   8.190   7.306   4.710 -0.2475 -0.3122 -0.1442
  140MOL   C14844906   8.202   7.398   4.818 -0.7963  0.0819  0.0405
  140MOL  Cl14944907   8.190   7.343   4.978  0.1089 -0.0207 -0.3843
  140MOL   C15044908   8.241   7.530   4.795 -0.4381  0.0031 -0.3950
  140MOL   C15144909   8.267   7.573   4.659  0.3078 -0.3599  0.0354
  140MOL   C15244910   8.245   7.490   4.548 -0.5260  0.1585  0.6401
  140MOL   C15344911   8.217   7.352   4.574 -0.9780  0.5976  0.3210
  140MOL   C15444912   8.262   7.071   4.680  0.0672  0.0560 -0.2240
  140MOL   H15544913   8.155   7.147   4.838  1.6201  0.4282  0.5718
  140MOL   H15644914   8.268   7.598   4.874 -0.8681  1.6578 -1.6441
  140MOL   H15744915   8.289   7.677   4.639 -1.7335  0.3187  1.0744
  140MOL   H15844916   8.270   7.511   4.445  1.7850  0.8139  1.3114
  140MOL   H15944917   8.225   7.286   4.489 -2.5518  0.4475  0.2775
  140MOL   H16044918   8.354   7.107   4.725 -0.0518  1.0204 -0.7333
  140MOL   H16144919   8.288   7.080   4.574 -0.1686 -1.2304 -0.3975
  140MOL   C16244920   8.268   6.923   4.716  0.0813  0.4100 -0.3429
  140MOL   C16344921   8.265   6.900   4.867  0.6952  0.2673 -0.8047
  140MOL   C16444922   8.162   6.819   4.929 -0.0076  0.4033  0.0143
  140MOL  Cl16544923   8.038   6.746   4.835  0.1028  0.0502  0.3014
  140MOL   C16644924   8.165   6.790   5.065  0.2026  0.7683  0.5758
  140MOL   C16744925   8.266   6.847   5.147 -0.3075 -0.1075 -0.0174
  140MOL   C16844926   8.367   6.919   5.081 -0.6365  0.4686  0.4499
  140MOL   C16944927   8.372   6.945   4.943 -0.0450 -0.1690 -0.3394
  140MOL   C17044928   8.388   6.841   4.657  0.1486  0.9998 -1.0375
  140MOL   H17144929   8.180   6.877   4.671  0.5605 -1.7610  0.8610
  140MOL   H17244930   8.088   6.730   5.111  0.5179 -1.6366 -1.9209
  140MOL   H17344931   8.253   6.831   5.253  0.2267 -0.0035  0.0627
  140MOL   H17444932   0.013   6.965   5.152  1.5921 -1.8034 -0.0702
  140MOL   H17544933   0.031   7.009   4.908  0.7971 -0.8888  0.2230
  140MOL   H17644934   8.375   6.739   4.693 -0.1363  1.1505 -0.7072
  140MOL   H17744935   0.064   6.872   4.695 -0.0445  0.6044 -0.2172
  140MOL   C17844936   8.396   6.840   4.500  0.3434 -0.1961 -0.7633
  140MOL   C17944937   8.259   6.807   4.440  0.8083  0.3469  0.1092
  140MOL   C18044938   8.187   6.903   4.356  0.0188 -0.1585  0.3030
  140MOL  Cl18144939   8.256   7.063   4.317  0.1060 -0.4997 -0.4433
  140MOL   C18244940   8.062   6.861   4.301 -0.3249 -0.6295 -0.3085
  140MOL   C18344941   8.002   6.729   4.321 -0.4532  0.2795 -0.2758
  140MOL   C18444942   8.081   6.644   4.398  0.0841  0.1844  0.4668
  140MOL   C18544943   8.202   6.678   4.460 -0.3759 -0.2951 -0.1916
  140MOL   C18644944   0.070   6.737   4.434 -0.3497  0.0803 -0.0526
  140MOL   H18744945   0.010   6.936   4.461 -1.0314  1.6591  2.3979
  140MOL   H18844946   8.010   6.940   4.247  0.9724 -0.5960 -1.5373
  140MOL   H18944947   7.906   6.694   4.287  0.0098 -1.4646  0.1901
  140MOL   H19044948   8.045   6.543   4.408 -0.2009  0.4345  2.1196
  140MOL   H19144949   8.250   6.607   4.525 -1.3446  0.2303  1.1311
  140MOL   H19244950   0.049   6.728   4.327 -1.6392  0.7244  0.1432
  140MOL   H19344951   0.050   6.639   4.477 -1.4397  0.2634 -0.1131
  140MOL   C19444952   0.222   6.777   4.458 -0.7729  0.5467 -0.1434
  140MOL   C19544953   0.267   6.910   4.394  0.0954  0.3324  0.0958
  140MOL   C19644954   0.293   7.033   4.462  0.2825 -0.3001  0.1623
  140MOL  Cl19744955   0.269   7.053   4.626  0.1651  0.4374 -0.0711
  140MOL   C19844956   0.330   7.146   4.388 -0.1770  0.3212  0.0843
  140MOL   C19944957   0.320   7.146   4.249  0.1084 -0.3378  0.3917
  140MOL   C20044958   0.300   7.028   4.176 -0.5160  0.4301 -0.1394
  140MOL   C20144959   0.283   6.913   4.253 -0.8102 -0.0052  0.1131
  140MOL   C20244960   0.310   6.655   4.423 -0.0563 -0.9897  0.1563
  140MOL   H20344961   0.239   6.795   4.564 -0.7147  0.1466 -0.0804
  140MOL   H20444962   0.333   7.240   4.439 -0.7821  0.7170 -0.5852
  140MOL   H20544963   0.334   7.236   4.191 -1.4212 -1.3697 -1.6607
  140MOL   H20644964   0.291   7.020   4.068 -3.7394 -0.1084  0.1099
  140MOL   H20744965   0.269   6.817   4.205 -1.4172 -0.3891  1.0461
  140MOL   H20844966   0.409   6.696   4.406 -0.5567 -0.0092 -0.4377
  140MOL   H20944967   0.271   6.614   4.330  1.6892 -1.6617 -0.2943
  140MOL   C21044968   0.312   6.538   4.525 -0.7609 -0.4226 -0.3641
  140MOL   C21144969   0.361   6.569   4.668 -0.0677 -0.2405 -0.2051
  140MOL   C21244970   0.290   6.550   4.784  0.4344  0.1436 -0.4244
  140MOL  Cl21344971   0.137   6.479   4.774 -0.0618  0.1871  0.5416
  140MOL   C21444972   0.334   6.579   4.906 -0.1412  0.6330 -0.3470
  140MOL   C21544973   0.460   6.648   4.923  0.6000  0.3790 -0.2215
  140MOL   C21644974   0.533   6.672   4.810  0.1809  0.6340 -0.1098
  140MOL   C21744975   0.490   6.633   4.680 -0.5970 -0.0559 -0.1396
  140MOL   C21844976   0.394   6.415   4.465 -0.2135  0.5385 -1.0594
  140MOL   H21944977   0.208   6.506   4.532 -1.2527  1.1733 -0.0875
  140MOL   H22044978   0.275   6.560   4.994 -1.1561  1.4483 -0.8459
  140MOL   H22144979   0.507   6.674   5.016  1.5657 -0.3171 -0.5086
  140MOL   H22244980   0.635   6.705   4.822 -0.2133  2.0653 -0.7210
  140MOL   H22344981   0.538   6.660   4.587  2.8076  2.3427  2.2079
  140MOL   H22444982   0.411   6.347   4.548 -1.2364 -0.0261 -1.3072
  140MOL   H22544983   0.494   6.448   4.437  0.6206 -0.7204  0.3595
  140MOL   C22644984   0.336   6.334   4.337  0.0301  0.5215 -0.8629
  140MOL   C22744985   0.222   6.246   4.397 -0.4089 -0.3327 -0.3381
  140MOL   C22844986   0.082   6.264   4.373 -0.4011  0.5676  0.8996
  140MOL  Cl22944987   0.022   6.384   4.264 -0.2743  0.3623  0.1333
  140MOL   C23044988   8.407   6.185   4.443 -0.1165  0.0582 -0.2718
  140MOL   C23144989   0.026   6.096   4.542 -0.0710  0.5271  0.0044
  140MOL   C23244990   0.163   6.072   4.567  0.7893  0.0022  0.3231
  140MOL   C23344991   0.254   6.146   4.490 -0.3706  0.3791 -0.5228
  140MOL   C23444992   0.453   6.256   4.275  0.0184  0.6841  0.0418
  140MOL   H23544993   0.290   6.402   4.266  0.1485 -0.2214 -1.6539
  140MOL   H23644994   8.302   6.203   4.431  0.0916 -0.5257 -3.3508
  140MOL   H23744995   8.377   6.032   4.594 -1.6896  0.6378 -1.9533
  140MOL   H23844996   0.199   6.017   4.653  0.8865  1.3078  1.1306
  140MOL   H23944997   0.359   6.126   4.505 -0.7427  0.2916  2.3711
  140MOL   H24044998   0.504   6.195   4.350  0.5775  1.5746  0.3986
  140MOL   H24144999   0.528   6.328   4.241 -0.1938  0.7210 -0.3542
  140MOL   C24245000   0.420   6.179   4.145  0.0250  0.7721  0.0116
  140MOL   C24345001   0.554   6.134   4.084 -0.2606 -0.4561  0.3390
  140MOL   C24445002   0.613   6.013   4.121 -0.5114 -0.5326 -0.0481
  140MOL  Cl24545003   0.528   5.891   4.215  0.3450  0.1153  0.3622
  140MOL   C24645004   0.746   5.986   4.078  0.1209  0.7887  0.6820
  140MOL   C24745005   0.809   6.076   3.991 -0.1276  0.7905  0.1145
  140MOL   C24845006   0.754   6.199   3.952  0.0955 -0.0031 -0.6825
  140MOL   C24945007   0.624   6.226   4.002 -1.0439  0.3364 -0.0126
  140MOL   C25045008   0.333   6.259   4.045 -0.6178  0.4919 -1.5820
  140MOL   H25145009   0.358   6.091   4.164  1.1708  0.1820  1.0435
  140MOL   H25245010   0.798   5.894   4.101  1.7069  0.7741 -2.5792
  140MOL   H25345011   0.913   6.054   3.970 -0.1032  0.5209  0.5244
  140MOL   H25445012   0.803   6.275   3.894 -0.5917  0.8863 -0.1135
  140MOL   H25545013   0.576   6.313   3.960 -0.3655  1.8028  2.2092
  140MOL   H25645014   0.360   6.364   4.048  0.5364  0.1897 -0.7741
  140MOL   H25745015   0.233   6.261   4.088  0.1380 -0.9322  0.3590
  140MOL   C25845016   0.327   6.207   3.900  0.2287 -0.0106 -0.1188
  140MOL   C25945017   0.227   6.292   3.825 -0.4928 -0.6568  0.1607
  140MOL   C26045018   0.258   6.369   3.709  0.5226 -0.9231  0.8268
  140MOL  Cl26145019   0.414   6.392   3.645  0.0549 -0.2545 -0.7061
  140MOL   C26245020   0.162   6.442   3.643 -0.5244  0.4039  0.0734
  140MOL   C26345021   0.033   6.454   3.690 -0.6407  0.0766  0.5087
  140MOL   C26445022   8.418   6.363   3.792 -0.0455  0.0541  0.0915
  140MOL   C26545023   0.087   6.284   3.861  0.0042  0.3474  0.0117
  140MOL   C26645024   0.319   6.057   3.874  0.0434  0.3484  0.5352
  140MOL   H26745025   0.416   6.245   3.851  0.5315 -1.0045 -0.3420
  140MOL   H26845026   0.186   6.500   3.555  1.4990  0.0030  0.3199
  140MOL   H26945027   8.385   6.515   3.634 -0.6448  1.3165  1.8473
  140MOL   H27045028   8.316   6.368   3.828  0.0759  0.7200  0.3404
  140MOL   H27145029   0.056   6.225   3.947 -0.0879  1.1877  0.5667
  140MOL   H27245030   0.214   6.031   3.890 -0.0062  0.3340  0.1997
  140MOL   H27345031   0.363   5.992   3.950  0.7690  1.1669  0.8184
  140MOL   C27445032   0.381   6.020   3.735  0.3276  0.4033  0.6516
  140MOL   C27545033   0.327   5.878   3.694  0.4121  0.1323 -0.7654
  140MOL   C27645034   0.218   5.853   3.609  0.2766  0.2555  0.4021
  140MOL  Cl27745035   0.137   5.992   3.535  0.4587  0.4670 -0.2332
  140MOL   C27845036   0.168   5.724   3.582 -0.0693 -0.1964 -1.0403
  140MOL   C27945037   0.221   5.616   3.645  0.3491 -0.0533  0.1565
  140MOL   C28045038   0.326   5.635   3.734 -0.3562  0.0085  0.0580
  140MOL   C28145039   0.375   5.764   3.765 -0.3002  0.1083 -0.3327
  140MOL   C28245040   0.534   6.025   3.741  0.8307 -0.1229  0.9554
  140MOL   H28345041   0.339   6.089   3.662  0.7017 -2.5697 -2.5544
  140MOL   H28445042   0.085   5.708   3.515 -1.9197 -0.4644  1.2616
  140MOL   H28545043   0.178   5.518   3.632 -0.2406  0.1729  0.4102
  140MOL   H28645044   0.359   5.547   3.787  1.0813 -0.4224 -1.5199
  140MOL   H28745045   0.445   5.774   3.847 -0.2317 -0.1536 -0.3577
  140MOL   H28845046   0.562   5.954   3.818  0.3713 -0.8049  0.5017
  140MOL   H28945047   0.563   6.123   3.778  2.0434 -0.5640  1.1780
  140MOL   C29045048   0.600   5.994   3.606  1.0563  0.6212 -0.1075
  140MOL   C29145049   0.756   6.005   3.627 -0.5095 -0.3617  0.7386
  140MOL   C29245050   0.831   5.904   3.691 -0.4606  0.5476  0.3637
  140MOL  Cl29345051   0.752   5.768   3.745 -0.2152  0.0378 -0.0299
  140MOL   C29445052   0.972   5.921   3.714  0.1920  0.0652 -0.4087
  140MOL   C29545053   1.032   6.046   3.690  0.2982 -0.0628 -0.1943
  140MOL   C29645054   0.958   6.146   3.630 -0.4081  0.4987 -0.1330
  140MOL   C29745055   0.823   6.129   3.603  0.1503  0.8515  0.1707
  140MOL   C29845056   0.546   6.095   3.494 -0.0723 -0.1296 -0.1202
  140MOL   H29945057   0.572   5.891   3.583  1.5691  0.3018  0.6899
  140MOL   H30045058   1.024   5.842   3.767  0.7536  2.2101  2.3611
  140MOL   H30145059   1.135   6.065   3.715 -0.4673  0.9947  2.3457
  140MOL   H30245060   1.005   6.242   3.616 -0.3744  0.5860  0.5453
  140MOL   H30345061   0.778   6.213   3.553 -0.7375 -0.1522 -0.7202
  140MOL   H30445062   0.588   6.190   3.526 -2.1078 -0.1711  2.8784
  140MOL   H30545063   0.438   6.103   3.480 -0.0834  1.2837  0.7525
  140MOL   C30645064   0.606   6.060   3.356  0.0005 -0.1312  0.3213
  140MOL   C30745065   0.558   6.169   3.259  0.0606 -0.1062 -0.5903
  140MOL   C30845066   0.644   6.271   3.210  0.0610 -0.0841  0.0060
  140MOL  Cl30945067   0.805   6.296   3.265  0.2074  0.1042  0.0203
  140MOL   C31045068   0.597   6.356   3.108  0.1838 -0.3138 -0.4910
  140MOL   C31145069   0.469   6.355   3.052  0.7171  0.4433  0.7149
  140MOL   C31245070   0.381   6.266   3.119  0.6516 -0.2250  0.2806
  140MOL   C31345071   0.427   6.164   3.205  1.0508 -0.2003  0.7907
  140MOL   C31445072   0.560   5.914   3.305  0.1052  0.3318  0.4645
  140MOL   H31545073   0.715   6.061   3.360 -0.0483  0.8960  1.5511
  140MOL   H31645074   0.655   6.441   3.074 -0.4386  0.0867 -0.5549
  140MOL   H31745075   0.431   6.424   2.977  1.8731  0.6584  0.3179
  140MOL   H31845076   0.279   6.275   3.086 -0.0586 -1.6939  2.0544
  140MOL   H31945077   0.362   6.089   3.249  0.2188  0.5499  0.8445
  140MOL   H32045078   0.455   5.903   3.331  0.3740  0.3314  1.6002
  140MOL   H32145079   0.600   5.835   3.370 -1.9916 -1.2474 -0.1198
  140MOL   H32245080   0.575   5.890   3.200 -1.5187 -0.1938  0.3459
  141MOL     C145081   8.121   8.228   7.618  0.6299 -0.3399 -0.3166
  141MOL     C245082   8.069   8.266   7.761 -0.5361 -0.4512 -0.3756
  141MOL     C345083   8.154   8.234   7.870 -1.4419  0.6184  0.6701
  141MOL    Cl445084   8.318   8.176   7.836  0.3974 -0.4830 -0.3298
  141MOL     C545085   8.107   8.247   8.000  0.4100  0.6938 -0.7053
  141MOL     C645086   7.975   8.284   8.029 -0.0778  0.4235  0.0027
  141MOL     C745087   7.892   8.315   7.917  0.0787 -0.3724  0.9258
  141MOL     C845088   7.940   8.310   7.787  0.6742  0.3610 -0.8307
  141MOL     C945089   8.013   8.249   7.506 -0.2863  0.4678 -0.2740
  141MOL    H1045090   8.201   8.296   7.587  0.1240  0.5329  0.2578
  141MOL    H1145091   8.168   8.216   8.083 -0.6072 -0.9901 -0.5689
  141MOL    H1245092   7.932   8.284   8.128 -0.9619  0.5668 -0.3693
  141MOL    H1345093   7.790   8.351   7.928  0.0282 -0.4665  0.7818
  141MOL    H1445094   7.877   8.323   7.700  1.1566 -0.1648 -1.2667
  141MOL    H1545095   7.980   8.352   7.510  0.0960  0.5055  2.4410
  141MOL    H1645096   7.933   8.179   7.530  1.4733 -2.2757 -2.0019
  141MOL    H1745097   8.164   8.128   7.614  1.0831 -0.0681 -3.2671
  141MOL    C1845098   8.077   8.222   7.368  0.0139  1.4349  0.1046
  141MOL    C1945099   7.978   8.276   7.261  0.0378  0.1301 -0.3000
  141MOL    C2045100   8.009   8.398   7.195 -0.3303  0.4192 -0.3847
  141MOL   Cl2145101   8.159   0.063   7.223  0.1686 -0.0675 -0.0437
  141MOL    C2245102   7.920   0.024   7.097 -0.3170 -0.2046 -0.0797
  141MOL    C2345103   7.796   8.381   7.077  0.2912 -0.4334  0.8795
  141MOL    C2445104   7.761   8.268   7.151 -0.2988 -0.4543 -0.3851
  141MOL    C2545105   7.857   8.214   7.236  0.3210 -0.2620 -0.2362
  141MOL    C2645106   8.127   8.075   7.352  1.0080  0.2956 -0.7475
  141MOL    H2745107   8.169   8.278   7.354  0.6213  0.4299  0.0325
  141MOL    H2845108   7.939   0.110   7.034 -0.9790 -0.9702 -1.3446
  141MOL    H2945109   7.722   0.001   7.011  0.3974 -1.8076 -0.1114
  141MOL    H3045110   7.665   8.218   7.150 -1.5172  1.6597  3.2325
  141MOL    H3145111   7.842   8.117   7.282  1.3566 -1.1908 -1.7752
  141MOL    H3245112   8.059   8.006   7.401 -0.4496  1.5929 -0.9075
  141MOL    H3345113   8.219   8.074   7.411  1.4114  0.7748 -1.3582
  141MOL    C3445114   8.154   8.019   7.214  0.7993  0.2698 -0.0451
  141MOL    C3545115   8.186   7.873   7.236 -0.3285  0.5284 -0.1711
  141MOL    C3645116   8.084   7.776   7.220  0.1791  0.2236 -1.0150
  141MOL   Cl3745117   7.920   7.814   7.165  0.0183  0.0326 -0.0746
  141MOL    C3845118   8.108   7.641   7.252  0.3047  0.3533 -0.5350
  141MOL    C3945119   8.236   7.600   7.298  0.1289  0.0841 -0.7330
  141MOL    C4045120   8.346   7.689   7.308 -0.0993  0.1265 -0.0503
  141MOL    C4145121   8.321   7.826   7.278 -0.3375  0.1231  0.4762
  141MOL    C4245122   8.262   8.106   7.144  0.0894 -0.4468 -0.2080
  141MOL    H4345123   8.058   8.025   7.163  1.3777 -1.7969 -1.4182
  141MOL    H4445124   8.030   7.566   7.248  1.2664 -0.6425 -0.9577
  141MOL    H4545125   8.249   7.494   7.312  0.9586  0.4667  1.6554
  141MOL    H4645126   0.023   7.653   7.339 -0.4292 -3.0933 -2.5010
  141MOL    H4745127   8.402   7.896   7.275 -1.0879  0.9518 -0.7752
  141MOL    H4845128   8.347   8.132   7.207 -0.2330  1.0938 -0.3741
  141MOL    H4945129   8.226   8.205   7.114  0.5443  0.1417  1.1506
  141MOL    C5045130   8.318   8.050   7.013  0.5819 -0.6196  0.3108
  141MOL    C5145131   0.032   8.109   6.980  0.1105  0.5845 -0.2471
  141MOL    C5245132   0.151   8.037   6.982  0.4482 -0.3947 -0.1832
  141MOL   Cl5345133   0.150   7.874   7.024 -0.0020  0.2218 -0.1425
  141MOL    C5445134   0.274   8.099   6.951 -0.0450  0.3437 -0.5651
  141MOL    C5545135   0.282   8.231   6.919  0.6485 -0.1834 -0.0187
  141MOL    C5645136   0.164   8.307   6.915 -0.0904  0.0457  0.7202
  141MOL    C5745137   0.037   8.248   6.943 -0.1872 -0.8168 -0.0415
  141MOL    C5845138   8.206   8.062   6.902 -0.5007 -0.2912 -0.1429
  141MOL    H5945139   8.326   7.942   7.024 -1.3419 -0.8775 -0.5682
  141MOL    H6045140   0.365   8.041   6.957  0.6977  1.5464  0.4001
  141MOL    H6145141   0.379   8.279   6.916  0.4937  0.1100 -0.4474
  141MOL    H6245142   0.183   8.413   6.906 -0.5862  0.2816  2.2557
  141MOL    H6345143   8.367   8.307   6.940  0.6113  0.3810 -2.2134
  141MOL    H6445144   8.183   8.167   6.881  1.2792  0.4237  1.3842
  141MOL    H6545145   8.115   8.024   6.949 -0.0404  0.4898  1.4106
  141MOL    C6645146   8.232   7.972   6.784  0.2542 -0.1652 -0.3627
  141MOL    C6745147   8.334   8.033   6.689 -0.0021  0.6458 -0.5760
  141MOL    C6845148   0.023   7.959   6.639  0.7189 -0.5200  0.5794
  141MOL   Cl6945149   0.052   7.798   6.675 -0.2029 -0.3093 -0.0013
  141MOL    C7045150   0.120   8.019   6.557  0.0398  0.6499  0.2070
  141MOL    C7145151   0.115   8.148   6.517 -0.7147 -0.2157  0.5689
  141MOL    C7245152   0.010   8.228   6.562 -0.2854 -0.4248  0.5512
  141MOL    C7345153   8.342   8.171   6.653 -0.2693 -0.6252 -0.2360
  141MOL    C7445154   8.118   7.908   6.701  0.6400  0.0024  0.5505
  141MOL    H7545155   8.284   7.890   6.833  1.8988  0.5683 -0.8406
  141MOL    H7645156   0.205   7.958   6.532 -0.6850 -0.2385 -0.1452
  141MOL    H7745157   0.188   8.183   6.445 -1.7158  1.9512  0.5657
  141MOL    H7845158   8.419   8.331   6.530 -0.4564 -0.4212  0.6266
  141MOL    H7945159   8.277   8.239   6.705  0.3139 -0.6630  0.5541
  141MOL    H8045160   8.059   7.853   6.773  0.7269 -1.6128 -0.5922
  141MOL    H8145161   8.158   7.831   6.635 -1.0373 -0.5500  0.1646
  141MOL    C8245162   8.030   7.992   6.604  0.5385 -0.2694  0.3760
  141MOL    C8345163   7.888   7.947   6.605  0.3654 -0.0172  0.1167
  141MOL    C8445164   7.795   7.993   6.701 -0.7849 -0.7247  0.3759
  141MOL   Cl8545165   7.843   8.118   6.813  0.1295  0.1683  0.0882
  141MOL    C8645166   7.668   7.947   6.713  0.1088 -0.5588 -0.0333
  141MOL    C8745167   7.622   7.843   6.630  0.3502  0.1675 -0.9063
  141MOL    C8845168   7.708   7.795   6.532 -0.1408  0.1903 -0.4847
  141MOL    C8945169   7.840   7.843   6.519  0.6104 -0.0546 -0.2785
  141MOL    C9045170   8.093   7.995   6.460 -0.4761  0.6498 -0.2276
  141MOL    H9145171   8.040   8.090   6.651 -0.3989 -0.7051  1.5058
  141MOL    H9245172   7.605   7.993   6.788  0.3686  0.6531 -0.5479
  141MOL    H9345173   7.523   7.799   6.637 -0.0115  0.9346 -1.1169
  141MOL    H9445174   7.669   7.727   6.459  0.5189 -2.6394  1.7038
  141MOL    H9545175   7.912   7.794   6.454 -0.6418  0.7723 -2.3209
  141MOL    H9645176   8.089   7.894   6.419  0.5151  1.0021 -1.1927
  141MOL    H9745177   8.201   8.009   6.465 -0.3624  0.1583 -1.2691
  141MOL    C9845178   8.031   8.090   6.364 -0.4356  0.0787  0.8983
  141MOL    C9945179   8.102   8.070   6.234 -0.1094 -0.1252 -0.2463
  141MOL   C10045180   8.027   8.024   6.125 -0.8097  0.5986 -0.9627
  141MOL  Cl10145181   7.850   7.994   6.135  0.5086  0.2808 -0.3995
  141MOL   C10245182   8.082   8.016   6.000  0.2112  0.2464  0.2556
  141MOL   C10345183   8.225   8.031   5.990 -0.1709 -0.3013  0.3941
  141MOL   C10445184   8.306   8.069   6.100 -0.3065 -0.1611 -0.7653
  141MOL   C10545185   8.243   8.084   6.225  0.3558  0.5123 -0.0470
  141MOL   C10645186   8.017   8.240   6.409  0.1525  0.2986 -0.0309
  141MOL   H10745187   7.928   8.055   6.354 -1.2237  1.6129  3.2707
  141MOL   H10845188   8.022   7.990   5.914  1.7085 -0.2527 -0.6548
  141MOL   H10945189   8.279   8.016   5.898  1.8537  1.7424  1.2112
  141MOL   H11045190   8.412   8.089   6.091  0.2018 -2.1649  0.4895
  141MOL   H11145191   8.298   8.114   6.313 -1.1689 -0.4538  1.2695
  141MOL   H11245192   8.110   8.270   6.457  1.4974 -2.8582 -0.5828
  141MOL   H11345193   7.939   8.241   6.486 -1.3323 -0.2208 -1.4979
  141MOL   C11445194   7.976   8.347   6.305  0.1216  0.4267  0.1274
  141MOL   C11545195   8.087   8.386   6.204  0.5379  0.0323  0.6465
  141MOL   C11645196   8.076   8.372   6.062  0.1629 -0.1718 -0.5850
  141MOL  Cl11745197   7.929   8.322   5.981  0.5655 -0.4247 -0.1144
  141MOL   C11845198   8.185   8.405   5.981  0.3597  0.1045  0.2906
  141MOL   C11945199   8.304   0.024   6.035 -0.1622  0.5497 -0.4129
  141MOL   C12045200   8.309   0.047   6.175  0.2763 -0.0441  0.0480
  141MOL   C12145201   8.198   0.027   6.260 -0.0544  0.3095 -0.3845
  141MOL   C12245202   7.923   0.056   6.381  0.6226  0.0351 -0.0190
  141MOL   H12345203   7.896   8.301   6.247  2.0440 -1.3108 -1.2136
  141MOL   H12445204   8.171   8.399   5.874  2.6322 -0.7794  0.0251
  141MOL   H12545205   8.388   0.049   5.972  1.0077 -1.8129  0.1535
  141MOL   H12645206   8.396   0.080   6.230 -0.4013  0.2213  0.9705
  141MOL   H12745207   8.205   0.041   6.366 -1.4558  1.0552 -0.3812
  141MOL   H12845208   8.002   0.106   6.437  1.3319  0.6631 -1.5405
  141MOL   H12945209   7.860   0.017   6.461  3.1163 -0.6160  1.7012
  141MOL   C13045210   7.833   0.153   6.302 -0.0949 -0.0588 -0.1903
  141MOL   C13145211   7.715   0.085   6.230 -0.3153 -0.5532 -0.2557
  141MOL   C13245212   7.610   0.030   6.311  0.2070  0.7818 -0.7152
  141MOL  Cl13345213   7.601   0.048   6.479  0.1276 -0.1540 -0.1177
  141MOL   C13445214   7.505   8.376   6.250 -0.0846  0.5272 -0.3266
  141MOL   C13545215   7.500   8.372   6.111 -0.6049  0.2127 -0.0488
  141MOL   C13645216   7.596   0.017   6.035 -0.0192  0.1329 -0.5057
  141MOL   C13745217   7.706   0.089   6.090  1.0363 -0.6556  0.1513
  141MOL   C13845218   7.914   0.254   6.213 -0.1651 -0.2289  0.2864
  141MOL   H13945219   7.785   0.224   6.369 -1.7848 -1.1183 -0.2459
  141MOL   H14045220   7.419   8.339   6.304  0.6212 -1.8148 -0.7567
  141MOL   H14145221   7.412   8.328   6.067 -0.4586  0.1439 -0.2731
  141MOL   H14245222   7.601   0.022   5.927  0.3118  0.0645 -0.4950
  141MOL   H14345223   7.773   0.144   6.025  0.2183 -0.3359 -0.4399
  141MOL   H14445224   7.854   0.297   6.133  3.4391  3.3507 -0.6517
  141MOL   H14545225   8.000   0.201   6.170  0.4878 -0.0652  1.3600
  141MOL   C14645226   7.956   0.397   6.276  0.1837  0.0135 -0.2010
  141MOL   C14745227   8.021   0.481   6.160 -0.1700 -0.3276 -0.2597
  141MOL   C14845228   7.966   0.606   6.117 -0.2257  0.0588  0.0582
  141MOL  Cl14945229   7.828   0.672   6.188  0.2524 -0.2852 -0.1764
  141MOL   C15045230   8.028   0.677   6.012  0.4920 -0.3899  0.4249
  141MOL   C15145231   8.146   0.629   5.952 -0.4551 -0.1166  0.3971
  141MOL   C15245232   8.213   0.519   6.001  0.4955  0.0266  0.5963
  141MOL   C15345233   8.142   0.438   6.095  0.7774 -0.5828 -1.0089
  141MOL   C15445234   8.045   0.379   6.411  0.3117 -0.2634  0.6420
  141MOL   H15545235   7.857   0.438   6.299 -0.9091 -2.7734  0.3007
  141MOL   H15645236   7.993   0.773   5.976  2.6045 -0.2429 -1.3060
  141MOL   H15745237   8.196   0.688   5.877 -1.4699 -0.4034 -0.5197
  141MOL   H15845238   8.303   0.481   5.957  0.3173 -0.9766  1.0751
  141MOL   H15945239   8.183   0.343   6.126  0.8030  0.1977  1.4819
  141MOL   H16045240   8.104   0.288   6.401 -2.3036 -1.9609  0.0138
  141MOL   H16145241   7.972   0.363   6.490 -0.4357  1.3290  0.3082
  141MOL   C16245242   8.133   0.501   6.450 -0.2788  0.3291 -0.1250
  141MOL   C16345243   8.274   0.507   6.380 -0.0026  0.1002  0.2364
  141MOL   C16445244   8.329   0.628   6.327  0.3520  0.2659 -0.0602
  141MOL  Cl16545245   8.267   0.782   6.365  0.0428 -0.2517 -0.0279
  141MOL   C16645246   0.036   0.624   6.269 -0.2326 -0.4165 -0.4286
  141MOL   C16745247   0.104   0.501   6.242  0.2008 -0.0935  0.3323
  141MOL   C16845248   0.051   0.381   6.304 -0.2928  1.0677 -0.5886
  141MOL   C16945249   8.347   0.392   6.369  0.1276 -0.2763  0.2899
  141MOL   C17045250   8.140   0.523   6.602  0.0314  0.9732  0.6407
  141MOL   H17145251   8.083   0.591   6.414 -0.2500  0.4979  0.2547
  141MOL   H17245252   0.094   0.713   6.248 -1.1330 -0.4973 -3.5054
  141MOL   H17345253   0.197   0.500   6.187 -0.5725  0.3200 -0.9970
  141MOL   H17445254   0.109   0.291   6.295 -1.5961  0.1590 -0.0752
  141MOL   H17545255   8.301   0.304   6.412  0.6726 -0.8775 -0.3501
  141MOL   H17645256   8.044   0.565   6.631 -0.2955  0.3654  0.4391
  141MOL   H17745257   8.200   0.614   6.605 -0.0527  1.0733 -0.5262
  141MOL   C17845258   8.193   0.414   6.706  0.5590  0.6507  0.9314
  141MOL   C17945259   8.095   0.298   6.720  0.1701 -0.0516 -0.1124
  141MOL   C18045260   8.128   0.158   6.696 -0.0658 -1.0201  0.3634
  141MOL  Cl18145261   8.290   0.107   6.663  0.2723 -0.1681  0.0426
  141MOL   C18245262   8.024   0.058   6.720 -0.4940  0.8818  0.2407
  141MOL   C18345263   7.891   0.099   6.755 -0.4311 -0.1945  0.6107
  141MOL   C18445264   7.866   0.234   6.774  0.4555  0.2091 -0.5727
  141MOL   C18545265   7.965   0.329   6.761 -0.2895  0.8181  0.4415
  141MOL   C18645266   8.232   0.470   6.839 -0.3962  0.0397 -1.0119
  141MOL   H18745267   8.280   0.374   6.653  0.5498  2.2942 -0.3608
  141MOL   H18845268   8.044   8.374   6.707 -2.1423  0.5173  0.5006
  141MOL   H18945269   7.814   0.024   6.762  0.5591 -1.0448  2.9531
  141MOL   H19045270   7.768   0.279   6.785  0.3327 -0.0453 -0.6265
  141MOL   H19145271   7.949   0.435   6.775  1.0676  1.6247 -3.3887
  141MOL   H19245272   8.194   0.403   6.916  0.4790  0.5943 -0.0784
  141MOL   H19345273   8.201   0.572   6.860 -0.5070 -0.0935 -0.5170
  141MOL   C19445274   8.388   0.475   6.862  0.3542 -0.1327  0.4693
  141MOL   C19545275   0.013   0.470   7.005 -0.2880 -0.2858 -0.4844
  141MOL   C19645276   0.038   0.351   7.075 -0.2515  0.3762 -0.2848
  141MOL  Cl19745277   0.034   0.201   6.993 -0.3019  0.3167  0.0618
  141MOL   C19845278   0.058   0.352   7.217 -0.1069 -0.0281 -0.1236
  141MOL   C19945279   0.092   0.476   7.283  0.5477 -0.0209  0.1186
  141MOL   C20045280   0.089   0.592   7.208 -0.2701  0.3570  0.0400
  141MOL   C20145281   0.037   0.586   7.076 -0.4647  0.3924 -0.0605
  141MOL   C20245282   0.032   0.584   6.778  0.0290  0.2938 -0.1582
  141MOL   H20345283   0.001   0.380   6.820  1.5296  0.4056  0.1622
  141MOL   H20445284   0.056   0.258   7.271 -0.2842 -0.8648 -1.5355
  141MOL   H20545285   0.123   0.472   7.387  0.5120  1.7325  0.2054
  141MOL   H20645286   0.107   0.688   7.255  0.0488  0.1979  0.2445
  141MOL   H20745287   0.039   0.687   7.037 -1.2250  0.8884  1.1979
  141MOL   H20845288   8.419   0.681   6.815 -2.6525 -1.0099  1.0598
  141MOL   H20945289   8.397   0.588   6.684 -0.4869 -0.5099  0.1026
  141MOL   C21045290   0.185   0.575   6.757 -0.1064 -0.1448  0.3534
  141MOL   C21145291   0.235   0.715   6.716  0.1565 -0.1823  0.1163
  141MOL   C21245292   0.322   0.793   6.793 -0.6458  0.4761 -0.3361
  141MOL  Cl21345293   0.376   0.745   6.953 -0.1599  0.1923 -0.0398
  141MOL   C21445294   0.358   0.919   6.751 -0.7494  0.2997 -0.4044
  141MOL   C21545295   0.312   0.972   6.630  0.0749  0.7189 -0.2486
  141MOL   C21645296   0.234   0.894   6.549  0.2024  0.0497 -0.9002
  141MOL   C21745297   0.197   0.762   6.591  0.4125  0.6914  0.0561
  141MOL   C21845298   0.232   0.461   6.650 -0.0992  0.2491 -0.3040
  141MOL   H21945299   0.231   0.551   6.853 -2.2536  0.4943  1.5931
  141MOL   H22045300   0.427   0.966   6.820 -1.7896 -0.2894  1.0570
  141MOL   H22145301   0.339   1.071   6.596 -0.4358  0.6299 -0.9272
  141MOL   H22245302   0.195   0.923   6.453 -1.0065 -1.6078 -0.9345
  141MOL   H22345303   0.143   0.698   6.522  2.1324 -0.3826 -0.3136
  141MOL   H22445304   0.160   0.456   6.568  1.5973  0.7799 -1.8407
  141MOL   H22545305   0.231   0.363   6.699  2.4774  0.7579  0.8341
  141MOL   C22645306   0.378   0.468   6.602  0.4914  0.1367  0.2153
  141MOL   C22745307   0.394   0.380   6.486  0.6852 -0.1512 -0.3760
  141MOL   C22845308   0.452   0.420   6.361 -0.0793 -0.1486 -0.2522
  141MOL  Cl22945309   0.505   0.588   6.342  0.3192  0.1217  0.2510
  141MOL   C23045310   0.479   0.333   6.258 -0.4340 -0.4130 -0.4174
  141MOL   C23145311   0.436   0.205   6.267  0.3825  0.5229 -0.0194
  141MOL   C23245312   0.392   0.157   6.391  0.0790  0.3916 -0.6890
  141MOL   C23345313   0.370   0.243   6.499  0.7407  0.1550 -0.1819
  141MOL   C23445314   0.477   0.430   6.713 -0.2716 -0.3071 -0.3648
  141MOL   H23545315   0.392   0.568   6.561 -1.6086 -0.3233 -1.7452
  141MOL   H23645316   0.518   0.369   6.165 -0.0927 -0.2497 -0.2129
  141MOL   H23745317   0.454   0.136   6.186 -0.2333 -0.1472  0.4139
  141MOL   H23845318   0.385   0.050   6.400  1.1475  0.2276 -1.7461
  141MOL   H23945319   0.338   0.196   6.591 -1.5940  2.5773  0.2818
  141MOL   H24045320   0.473   0.324   6.740 -2.3745  0.3936  2.2578
  141MOL   H24145321   0.448   0.479   6.806 -1.0731  0.9842 -1.2800
  141MOL   C24245322   0.626   0.478   6.692 -0.8568  0.5298 -0.6005
  141MOL   C24345323   0.727   0.403   6.777  0.2594  0.2184  0.1906
  141MOL   C24445324   0.818   0.315   6.719  0.1607  0.2183  0.4094
  141MOL  Cl24545325   0.824   0.279   6.548 -0.4934  0.0910 -0.0707
  141MOL   C24645326   0.909   0.247   6.803 -0.0516 -0.5663  0.0748
  141MOL   C24745327   0.912   0.270   6.942  0.4857  0.2852 -0.3551
  141MOL   C24845328   0.808   0.353   7.002 -0.8623  0.6348 -0.9606
  141MOL   C24945329   0.715   0.413   6.917  0.1256  0.0813  0.4844
  141MOL   C25045330   0.628   0.629   6.711 -0.1742 -0.0748 -0.0180
  141MOL   H25145331   0.647   0.450   6.589  0.4485 -1.2346  0.1347
  141MOL   H25245332   0.986   0.183   6.765  1.3256 -0.4491  2.5607
  141MOL   H25345333   0.983   0.220   7.007 -1.5054 -1.3128  0.6262
  141MOL   H25445334   0.796   0.368   7.109 -0.1334 -1.2099 -0.5909
  141MOL   H25545335   0.642   0.476   6.965 -0.0311 -0.9477  1.6345
  141MOL   H25645336   0.578   0.654   6.804 -1.4785  1.2151 -1.0435
  141MOL   H25745337   0.556   0.671   6.641 -0.2679 -1.3341 -0.6918
  141MOL   C25845338   0.759   0.709   6.713  0.2249  0.3229 -0.0995
  141MOL   C25945339   0.729   0.858   6.745 -0.0184  0.3972 -1.1680
  141MOL   C26045340   0.747   0.922   6.869  0.1009  0.4906 -0.4739
  141MOL  Cl26145341   0.809   0.832   6.998 -0.0284  0.1424 -0.0810
  141MOL   C26245342   0.727   1.059   6.881  0.3214 -0.5612 -0.1750
  141MOL   C26345343   0.665   1.134   6.781  0.4652  0.0674  0.2582
  141MOL   C26445344   0.634   1.074   6.660 -0.7131  0.0806 -0.4710
  141MOL   C26545345   0.676   0.936   6.639  0.3845 -0.9102 -0.1212
  141MOL   C26645346   0.843   0.683   6.586 -0.4846 -0.4344  0.3476
  141MOL   H26745347   0.795   0.656   6.801 -0.3512 -0.6551 -0.4453
  141MOL   H26845348   0.768   1.112   6.965  0.5462 -0.2051 -0.5088
  141MOL   H26945349   0.668   1.242   6.784 -1.6137  0.1115  1.8551
  141MOL   H27045350   0.582   1.110   6.572 -2.1274 -0.6694  0.0540
  141MOL   H27145351   0.677   0.891   6.540  1.2733 -0.0300 -0.5189
  141MOL   H27245352   0.779   0.713   6.503 -1.0396  0.8230  1.2156
  141MOL   H27345353   0.863   0.576   6.584  0.7144 -0.2492  1.7635
  141MOL   C27445354   0.975   0.765   6.560 -0.3885  0.0209  0.2929
  141MOL   C27545355   1.065   0.709   6.449  0.2960 -0.0898 -0.4198
  141MOL   C27645356   1.130   0.782   6.346 -0.1162  0.2972  0.2442
  141MOL  Cl27745357   1.087   0.944   6.308  0.3673  0.1451 -0.0601
  141MOL   C27845358   1.229   0.725   6.270 -0.2768  0.2693  0.9714
  141MOL   C27945359   1.263   0.588   6.281  0.0864  0.2743 -0.0540
  141MOL   C28045360   1.191   0.511   6.376 -0.2291  0.6642  0.5788
  141MOL   C28145361   1.104   0.577   6.459  0.3674 -0.6216 -0.0702
  141MOL   C28245362   1.066   0.779   6.685  0.7210 -0.4971 -0.6774
  141MOL   H28345363   0.934   0.862   6.532 -0.2302  0.2923  0.9851
  141MOL   H28445364   1.284   0.790   6.202 -0.2594  1.6816  2.3101
  141MOL   H28545365   1.339   0.547   6.216  0.3037  0.5429  0.0298
  141MOL   H28645366   1.226   0.412   6.400 -0.5167  0.0037 -1.6234
  141MOL   H28745367   1.071   0.522   6.547  0.1774  0.7928  0.7554
  141MOL   H28845368   1.144   0.703   6.686  1.4855  0.2703 -0.6654
  141MOL   H28945369   0.999   0.772   6.770 -0.4524 -2.1414 -1.7214
  141MOL   C29045370   1.149   0.918   6.683  0.8141  0.9629  0.2011
  141MOL   C29145371   1.238   0.930   6.809 -0.1104 -0.3441  0.2506
  141MOL   C29245372   1.374   0.909   6.805 -0.0564  0.2580 -0.2111
  141MOL  Cl29345373   1.457   0.852   6.664 -0.0710  0.0833 -0.1015
  141MOL   C29445374   1.458   0.922   6.914  0.1740  0.2372 -0.2217
  141MOL   C29545375   1.391   0.962   7.035  0.3653  0.0476 -0.1904
  141MOL   C29645376   1.250   0.983   7.049  0.0467 -0.3076  0.6294
  141MOL   C29745377   1.176   0.972   6.932  0.3191  0.6167  0.1914
  141MOL   C29845378   1.054   1.039   6.667  0.4082 -0.0036  0.6126
  141MOL   H29945379   1.204   0.924   6.588 -2.4131  0.9227 -1.7373
  141MOL   H30045380   1.565   0.908   6.900 -0.1403  0.4595 -3.1199
  141MOL   H30145381   1.457   0.961   7.121  1.5027  0.7441 -1.0427
  141MOL   H30245382   1.201   0.984   7.145 -1.0334  0.9936  0.0830
  141MOL   H30345383   1.069   0.964   6.924  0.4445  0.6198 -1.8416
  141MOL   H30445384   0.982   1.011   6.744 -0.7303  3.9652  1.0595
  141MOL   H30545385   1.018   1.036   6.564 -0.7514  1.2526  0.9778
  141MOL   C30645386   1.114   1.180   6.690  0.2608  0.4922 -1.0164
  141MOL   C30745387   0.997   1.281   6.668  0.4417 -0.2410  0.1016
  141MOL   C30845388   0.947   1.370   6.770 -0.0682  0.7579  0.0326
  141MOL  Cl30945389   1.007   1.378   6.925 -0.0055 -0.1339  0.0922
  141MOL   C31045390   0.840   1.462   6.739 -0.2990 -0.1091  0.7178
  141MOL   C31145391   0.780   1.460   6.611  0.4139 -0.6570 -0.2393
  141MOL   C31245392   0.838   1.377   6.513 -0.6165 -0.0315 -0.1199
  141MOL   C31345393   0.935   1.280   6.544  0.0947 -0.0748 -0.0759
  141MOL   C31445394   1.238   1.200   6.600 -0.1739  0.2548 -0.2255
  141MOL   H31545395   1.137   1.185   6.797  0.3066 -0.0384 -0.9972
  141MOL   H31645396   0.788   1.516   6.818  0.8850 -0.8552  2.0285
  141MOL   H31745397   0.693   1.518   6.586  0.8662  0.5949  1.0573
  141MOL   H31845398   0.792   1.376   6.415  0.4992 -1.9925 -0.6579
  141MOL   H31945399   0.960   1.216   6.460 -1.3283  0.9921 -1.3323
  141MOL   H32045400   1.275   1.302   6.609  0.0098  0.1909 -0.2740
  141MOL   H32145401   1.220   1.172   6.496 -0.3442  0.8949 -0.3680
  141MOL   H32245402   1.323   1.144   6.638 -1.0457 -0.8600  0.1354
  142MOL     C145403   0.321   7.047   2.796 -0.7521 -0.4374  0.4019
  142MOL     C245404   0.345   7.149   2.684  0.6867 -0.4353  0.1674
  142MOL     C345405   0.318   7.128   2.548 -0.4807 -1.1263  0.4274
  142MOL    Cl445406   0.286   6.970   2.487  0.0886 -0.2633  0.4052
  142MOL     C545407   0.330   7.230   2.450 -0.3126 -0.2441 -0.5638
  142MOL     C645408   0.365   7.364   2.480 -0.1115 -0.5253  0.1113
  142MOL     C745409   0.390   7.387   2.622 -0.4528 -0.1591 -0.0133
  142MOL     C845410   0.377   7.287   2.723  0.9268  0.1297  0.3892
  142MOL     C945411   0.258   7.097   2.922 -0.5722 -0.1384  0.0073
  142MOL    H1045412   0.257   6.970   2.754  1.0171 -1.9049  0.2821
  142MOL    H1145413   0.284   7.211   2.354 -0.6476 -4.3490  0.3374
  142MOL    H1245414   0.356   7.449   2.414  0.3038  0.4683  1.3153
  142MOL    H1345415   0.421   7.487   2.646  0.7794 -0.9007  1.6199
  142MOL    H1445416   0.400   7.318   2.824  0.7035  1.2656  0.1021
  142MOL    H1545417   0.160   7.131   2.888 -0.8149 -1.1531 -0.3274
  142MOL    H1645418   0.318   7.177   2.966  2.2986 -1.6031 -1.0733
  142MOL    H1745419   0.414   6.996   2.823  0.3758  0.5410 -1.5149
  142MOL    C1845420   0.234   6.992   3.029  0.3707  0.6008 -1.2555
  142MOL    C1945421   0.153   6.874   2.972 -0.6541 -0.2393 -0.4380
  142MOL    C2045422   0.212   6.750   2.953 -0.4740  0.1228 -0.3966
  142MOL   Cl2145423   0.385   6.717   2.959 -0.1895  0.2970  0.1661
  142MOL    C2245424   0.130   6.648   2.917 -0.2208 -0.0466  0.1808
  142MOL    C2345425   8.416   6.669   2.898  0.6654  0.1568  0.0828
  142MOL    C2445426   8.358   6.794   2.904 -0.2196  0.3703  0.2898
  142MOL    C2545427   0.018   6.901   2.933  0.3364 -0.1134 -0.0579
  142MOL    C2645428   0.169   7.057   3.157  0.8966  0.0511 -0.0242
  142MOL    H2745429   0.334   6.953   3.051 -0.6174 -1.3403 -0.1321
  142MOL    H2845430   0.173   6.550   2.913 -3.1759 -1.4415  0.7818
  142MOL    H2945431   8.360   6.582   2.865  2.1631 -1.0182  0.6059
  142MOL    H3045432   8.252   6.813   2.890 -0.6665  0.4221  3.4274
  142MOL    H3145433   8.396   6.998   2.957  0.5674  0.1830 -0.8328
  142MOL    H3245434   0.061   7.064   3.150  0.8251 -1.5658 -0.6935
  142MOL    H3345435   0.211   7.158   3.151  2.2910 -0.4471  1.0803
  142MOL    C3445436   0.219   7.022   3.297  0.0994 -0.0954 -0.9005
  142MOL    C3545437   0.277   6.885   3.325  0.1516  0.2165 -0.5308
  142MOL    C3645438   0.404   6.856   3.376  0.4094 -0.4248  0.5727
  142MOL   Cl3745439   0.513   6.978   3.430 -0.1172  0.4716 -0.1654
  142MOL    C3845440   0.440   6.722   3.391  0.6540  0.8967  0.1677
  142MOL    C3945441   0.365   6.612   3.342  0.2429 -0.0391 -0.0811
  142MOL    C4045442   0.242   6.642   3.292  0.4859 -0.1654  0.1003
  142MOL    C4145443   0.200   6.778   3.282  0.3993  0.1484  0.2589
  142MOL    C4245444   0.116   7.057   3.406  0.1836 -0.3494 -0.6421
  142MOL    H4345445   0.301   7.088   3.324 -0.3245 -0.3558  1.1461
  142MOL    H4445446   0.532   6.705   3.444  0.4314  0.6151  0.4676
  142MOL    H4545447   0.401   6.511   3.346  0.2052  0.0033  1.4267
  142MOL    H4645448   0.187   6.559   3.250  1.4425  0.3671 -2.2548
  142MOL    H4745449   0.100   6.797   3.246 -0.3413 -3.3992  0.3293
  142MOL    H4845450   0.139   7.002   3.498  0.0715  0.4950 -0.0999
  142MOL    H4945451   0.019   7.011   3.386 -0.3881  0.3293  0.5180
  142MOL    C5045452   0.091   7.209   3.436 -0.6541  0.5661 -0.3883
  142MOL    C5145453   0.210   7.280   3.495  0.0579  0.1039  0.5683
  142MOL    C5245454   0.236   7.415   3.463  0.3123 -0.6206 -0.2553
  142MOL   Cl5345455   0.125   7.505   3.368  0.1420  0.0424 -0.0419
  142MOL    C5445456   0.351   7.488   3.507  0.1206  0.2532 -0.3223
  142MOL    C5545457   0.429   7.428   3.610 -1.0647 -0.2534  1.1175
  142MOL    C5645458   0.391   7.302   3.659 -0.0247 -0.0646  0.0440
  142MOL    C5745459   0.287   7.226   3.602 -0.6633  0.2949  0.1322
  142MOL    C5845460   8.392   7.241   3.538  0.2974 -0.0362 -0.1111
  142MOL    H5945461   0.071   7.244   3.335  1.4100 -1.4853 -1.5427
  142MOL    H6045462   0.380   7.586   3.471  0.7612 -0.0878 -0.7327
  142MOL    H6145463   0.515   7.478   3.654 -0.4727  0.3668 -0.7006
  142MOL    H6245464   0.441   7.258   3.744  1.4944  0.1777 -0.6921
  142MOL    H6345465   0.261   7.134   3.653 -1.3054  1.7305  2.4641
  142MOL    H6445466   8.395   7.348   3.556 -2.0592  0.0988 -0.3360
  142MOL    H6545467   8.408   7.201   3.638 -3.0657  0.5439  0.7184
  142MOL    C6645468   8.255   7.195   3.482  0.2223  0.2307 -0.2380
  142MOL    C6745469   8.208   7.290   3.368  0.3975  0.0596 -0.2200
  142MOL    C6845470   8.193   7.246   3.232 -0.0360 -0.3069  0.3396
  142MOL   Cl6945471   8.247   7.085   3.196  0.0165 -0.3733  0.4500
  142MOL    C7045472   8.147   7.335   3.132 -0.3620  0.4461  0.4137
  142MOL    C7145473   8.132   7.473   3.162 -0.6175  0.1414 -0.4559
  142MOL    C7245474   8.155   7.517   3.290  0.4261  0.3128 -0.4331
  142MOL    C7345475   8.188   7.430   3.392  0.2192 -0.2619  0.3515
  142MOL    C7445476   8.151   7.193   3.598  0.7514  0.1862  0.4304
  142MOL    H7545477   8.267   7.094   3.442 -0.7370 -1.5356  3.7340
  142MOL    H7645478   8.146   7.297   3.031  2.1770 -0.9372  0.8475
  142MOL    H7745479   8.111   7.545   3.084 -3.3961  0.5226  0.5945
  142MOL    H7845480   8.158   7.625   3.297  2.2793  0.1096  2.6123
  142MOL    H7945481   8.199   7.459   3.496  0.5728  1.1721 -0.0874
  142MOL    H8045482   8.139   7.291   3.644 -1.4087 -0.3790  1.1339
  142MOL    H8145483   8.180   7.135   3.685 -1.3498 -3.4153 -1.1613
  142MOL    C8245484   7.998   7.152   3.566  0.7810  0.0640  0.0545
  142MOL    C8345485   7.891   7.258   3.590  0.2014  0.3940 -0.1162
  142MOL    C8445486   7.813   7.309   3.486 -0.1055 -0.7383 -0.1349
  142MOL   Cl8545487   7.816   7.250   3.320 -0.1923 -0.2544 -0.0823
  142MOL    C8645488   7.711   7.403   3.514 -0.3228 -0.7396  0.0123
  142MOL    C8745489   7.683   7.453   3.643 -0.3483  0.2513 -0.0818
  142MOL    C8845490   7.762   7.402   3.743  0.2432  0.3817  0.7958
  142MOL    C8945491   7.866   7.305   3.719  0.7744 -0.3461 -0.4493
  142MOL    C9045492   7.963   7.026   3.646  0.5177 -0.5620  0.2768
  142MOL    H9145493   7.996   7.117   3.463 -0.3548  0.2196  0.0094
  142MOL    H9245494   7.655   7.432   3.426 -3.4003 -0.5138  1.9520
  142MOL    H9345495   7.611   7.532   3.658  0.1587  0.8556 -0.7961
  142MOL    H9445496   7.739   7.427   3.845  1.6325  0.0872  1.1924
  142MOL    H9545497   7.934   7.270   3.795  3.5858  2.0550 -1.7390
  142MOL    H9645498   7.862   6.997   3.618 -0.7105  0.9486  2.9876
  142MOL    H9745499   7.952   7.044   3.753 -0.8535  0.4003 -0.0083
  142MOL    C9845500   8.053   6.896   3.633 -0.3541  0.1456 -0.3451
  142MOL    C9945501   8.064   6.847   3.487  0.2635  0.8503  0.0734
  142MOL   C10045502   8.191   6.813   3.437 -0.3118 -0.0781  0.2409
  142MOL  Cl10145503   8.335   6.819   3.528 -0.2381 -0.5957  0.0567
  142MOL   C10245504   8.202   6.767   3.307  0.5790 -0.0015  0.1743
  142MOL   C10345505   8.092   6.761   3.218  0.0496  0.6387 -0.1062
  142MOL   C10445506   7.970   6.808   3.268  0.1854 -0.2540 -0.3598
  142MOL   C10545507   7.952   6.839   3.405 -0.7997  0.3127  0.1858
  142MOL   C10645508   7.994   6.775   3.716  0.9909  0.0707 -0.1100
  142MOL   H10745509   8.152   6.924   3.669 -0.7431 -0.8563  1.6047
  142MOL   H10845510   8.302   6.735   3.281  1.1764  0.6609  1.5985
  142MOL   H10945511   8.091   6.726   3.116 -0.2913  0.6586 -0.1099
  142MOL   H11045512   7.881   6.800   3.207 -0.7423  1.6942  0.6948
  142MOL   H11145513   7.853   6.859   3.443 -1.2014 -1.6380  0.1886
  142MOL   H11245514   8.051   6.684   3.699 -1.6212 -1.7550  0.6638
  142MOL   H11345515   7.896   6.747   3.680  1.9628  1.0177 -3.6907
  142MOL   C11445516   8.005   6.793   3.871 -0.4090  0.6580 -0.1225
  142MOL   C11545517   8.153   6.796   3.914 -0.1947  0.3657 -0.5898
  142MOL   C11645518   8.204   6.927   3.956 -0.2213 -0.3077 -0.1315
  142MOL  Cl11745519   8.109   7.070   3.977  0.4949 -0.0614  0.0625
  142MOL   C11845520   8.337   6.927   3.999  0.6172 -0.3336  1.1188
  142MOL   C11945521   8.408   6.810   4.014  0.4405 -0.0785  0.1028
  142MOL   C12045522   8.359   6.686   3.973  0.5898 -0.1339 -0.1156
  142MOL   C12145523   8.226   6.677   3.923 -0.1158  0.2196  0.0134
  142MOL   C12245524   7.915   6.698   3.951 -1.3953  0.1680 -0.2513
  142MOL   H12345525   7.961   6.888   3.901 -1.0284  0.1286  0.6552
  142MOL   H12445526   8.378   7.021   4.034  3.0419 -1.0366  0.3066
  142MOL   H12545527   0.085   6.818   4.059 -0.5112 -2.4491  2.7382
  142MOL   H12645528   8.409   6.590   3.969 -3.1073 -2.1673 -0.3165
  142MOL   H12745529   8.184   6.581   3.896 -0.5765  0.4659 -0.1422
  142MOL   H12845530   7.953   6.712   4.053 -0.3165  0.7674 -0.7288
  142MOL   H12945531   7.923   6.592   3.925 -1.0162  0.0910  0.1675
  142MOL   C13045532   7.763   6.718   3.932 -0.1219  0.2510  0.1503
  142MOL   C13145533   7.726   6.861   3.964  0.3943 -0.3259  0.0854
  142MOL   C13245534   7.654   6.939   3.866  0.1362  0.2147  0.4621
  142MOL  Cl13345535   7.609   6.880   3.713  0.1122 -0.5689  0.7839
  142MOL   C13445536   7.614   7.068   3.896 -0.0991 -0.3736 -0.2331
  142MOL   C13545537   7.659   7.129   4.010  0.3976 -0.1023  0.1330
  142MOL   C13645538   7.749   7.062   4.103  0.0997 -0.0119  0.2421
  142MOL   C13745539   7.764   6.924   4.081 -0.6838 -0.1112 -0.1341
  142MOL   C13845540   7.677   6.622   4.017  0.1936 -0.1676 -0.2281
  142MOL   H13945541   7.747   6.687   3.828  2.8571 -0.5232 -0.1340
  142MOL   H14045542   7.560   7.128   3.824 -0.0778  1.4170  1.2073
  142MOL   H14145543   7.647   7.235   4.029  3.1807  0.0137  1.5090
  142MOL   H14245544   7.778   7.116   4.192 -0.7024  2.0280 -0.7028
  142MOL   H14345545   7.805   6.870   4.165 -1.7039 -0.8431 -0.0997
  142MOL   H14445546   7.704   6.623   4.123 -0.2445  0.2073 -0.1198
  142MOL   H14545547   7.715   6.522   3.996  0.2702 -0.4879  1.3583
  142MOL   C14645548   7.523   6.610   3.993 -1.0277  0.4763 -0.1777
  142MOL   C14745549   7.448   6.701   4.085  0.4061 -0.1128  0.4683
  142MOL   C14845550   7.359   6.804   4.040 -0.0684  0.2060 -0.4920
  142MOL  Cl14945551   7.324   6.824   3.867  0.2782 -0.2834  0.4258
  142MOL   C15045552   7.300   6.896   4.124  0.2839  0.3559  0.3206
  142MOL   C15145553   7.319   6.885   4.264 -0.1647 -0.0291  0.1812
  142MOL   C15245554   7.398   6.777   4.317 -0.3256 -0.1464 -0.1031
  142MOL   C15345555   7.461   6.690   4.225  0.2230  0.5225  0.3534
  142MOL   C15445556   7.471   6.461   4.026 -0.2928  0.2115 -0.0243
  142MOL   H15545557   7.500   6.629   3.889 -0.5121 -1.8421 -0.7560
  142MOL   H15645558   7.220   6.959   4.087 -0.7245 -0.9620  0.2067
  142MOL   H15745559   7.268   6.961   4.321  0.5274  0.4024  0.2301
  142MOL   H15845560   7.415   6.768   4.423 -0.1248  0.1856 -0.1080
  142MOL   H15945561   7.507   6.601   4.267 -1.6329 -0.4560  0.3610
  142MOL   H16045562   7.372   6.464   4.072  1.2600 -0.6790  3.4846
  142MOL   H16145563   7.538   6.408   4.094  0.1852 -0.8506 -1.2893
  142MOL   C16245564   7.465   6.366   3.899 -0.1978  0.2573  0.4569
  142MOL   C16345565   7.449   6.221   3.937 -0.3269  0.0014  0.2355
  142MOL   C16445566   7.323   6.156   3.931 -0.6099  0.2987  0.2421
  142MOL  Cl16545567   7.176   6.242   3.892 -0.1112 -0.3630 -0.1543
  142MOL   C16645568   7.312   6.022   3.970 -0.5736 -0.1937  0.0265
  142MOL   C16745569   7.433   5.948   4.000 -0.8484 -0.2028  0.3731
  142MOL   C16845570   7.556   6.015   4.017 -0.1688  0.2799  0.1916
  142MOL   C16945571   7.563   6.152   3.986 -0.4213 -0.0574 -0.1124
  142MOL   C17045572   7.586   6.377   3.797 -0.4636  0.1092 -0.6540
  142MOL   H17145573   7.369   6.388   3.851  1.5339  1.1059 -2.8018
  142MOL   H17245574   7.219   5.970   3.958 -0.4503 -0.9034  1.9880
  142MOL   H17345575   7.418   5.841   4.013  1.7596 -0.3464  2.6895
  142MOL   H17445576   7.643   5.961   4.053 -0.5784  1.0484  2.3859
  142MOL   H17545577   7.661   6.195   3.972 -1.3440  1.5830 -1.8582
  142MOL   H17645578   7.681   6.362   3.847 -0.9443  0.6439  0.4322
  142MOL   H17745579   7.582   6.479   3.757 -2.0181  2.0427  4.0831
  142MOL   C17845580   7.584   6.284   3.678 -0.6022  0.0647 -0.3271
  142MOL   C17945581   7.712   6.304   3.605  0.4828  0.5005 -0.4857
  142MOL   C18045582   7.807   6.200   3.596 -0.0661 -0.1816  0.0736
  142MOL  Cl18145583   7.769   6.035   3.630  0.1040 -0.0500 -0.4053
  142MOL   C18245584   7.933   6.232   3.553 -0.0173  0.1120 -0.8412
  142MOL   C18345585   7.967   6.368   3.513  0.1398  0.7694 -0.5853
  142MOL   C18445586   7.876   6.468   3.522  0.5562 -0.3056 -0.0995
  142MOL   C18545587   7.743   6.431   3.554  0.4817 -0.2487 -0.1719
  142MOL   C18645588   7.457   6.293   3.592 -0.1119  0.3870  0.6258
  142MOL   H18745589   7.589   6.182   3.717  1.6893  0.0962 -0.4877
  142MOL   H18845590   8.018   6.165   3.549  0.0478  0.0316  1.4121
  142MOL   H18945591   8.067   6.386   3.475  2.1310  0.1973  3.9799
  142MOL   H19045592   7.899   6.566   3.482  0.4155  0.2058  1.0542
  142MOL   H19145593   7.663   6.503   3.567 -1.1006 -1.9138 -0.4365
  142MOL   H19245594   7.464   6.388   3.538 -0.7529  1.0206  1.6544
  142MOL   H19345595   7.362   6.288   3.645 -1.1224 -0.5348 -1.2288
  142MOL   C19445596   7.446   6.169   3.488  0.0009  0.5838 -0.4227
  142MOL   C19545597   7.367   6.228   3.361 -0.7788 -0.2605 -0.7996
  142MOL   C19645598   7.414   6.212   3.226  0.3321 -0.0451 -0.2429
  142MOL  Cl19745599   7.571   6.143   3.201  0.2745 -0.0431  0.1999
  142MOL   C19845600   7.342   6.263   3.116 -0.4881  0.1924 -0.1896
  142MOL   C19945601   7.228   6.338   3.148 -0.5558  0.2609  0.6183
  142MOL   C20045602   7.176   6.343   3.276  0.5453  0.7042 -0.4993
  142MOL   C20145603   7.249   6.293   3.382  0.4079 -0.4126 -0.2829
  142MOL   C20245604   7.374   6.045   3.550 -0.3158  0.1094  0.7767
  142MOL   H20345605   7.545   6.139   3.455 -0.1773  0.4413 -0.8334
  142MOL   H20445606   7.395   6.260   3.022 -1.1668  0.8768 -0.5990
  142MOL   H20545607   7.174   6.397   3.075  1.6449 -0.4794 -1.6898
  142MOL   H20645608   7.083   6.396   3.288  0.8919  1.6915 -1.9992
  142MOL   H20745609   7.212   6.298   3.483 -3.1554  0.8179 -1.5697
  142MOL   H20845610   7.290   6.081   3.610  1.1204  4.5068  0.3000
  142MOL   H20945611   7.438   5.997   3.624 -1.4506  0.7133  2.1722
  142MOL   C21045612   7.321   5.931   3.458  0.6068  0.1527 -0.4138
  142MOL   C21145613   7.206   5.850   3.528 -0.2254 -0.3192  0.1532
  142MOL   C21245614   7.074   5.880   3.500 -0.0545  0.2680 -0.0402
  142MOL  Cl21345615   7.034   6.000   3.388 -0.0112 -0.0777  0.0423
  142MOL   C21445616   6.968   5.799   3.556 -0.1129  0.0353  0.0749
  142MOL   C21545617   7.002   5.717   3.663 -0.0747 -0.4827 -0.1012
  142MOL   C21645618   7.137   5.684   3.693  0.2136  0.5472  0.1132
  142MOL   C21745619   7.239   5.757   3.629 -0.0971 -0.0892  0.6368
  142MOL   C21845620   7.432   5.841   3.402 -0.2340 -0.4344  0.0633
  142MOL   H21945621   7.284   5.984   3.370  0.9581  0.7515 -0.2019
  142MOL   H22045622   6.863   5.817   3.534  0.0634  2.9280  1.3681
  142MOL   H22145623   6.929   5.655   3.713 -1.1636  0.6325 -0.2873
  142MOL   H22245624   7.161   5.608   3.766  1.0539  1.4388  0.7766
  142MOL   H22345625   7.343   5.747   3.655  0.0231  0.7230  0.4864
  142MOL   H22445626   7.483   5.795   3.488 -1.9547 -1.1401  0.7264
  142MOL   H22545627   7.499   5.919   3.366 -1.5664  0.7815  0.1695
  142MOL   C22645628   7.393   5.738   3.290 -0.0732  0.2744 -0.2335
  142MOL   C22745629   7.390   5.594   3.345  0.5400  0.7703 -0.2041
  142MOL   C22845630   7.278   5.507   3.340 -0.1073  0.1897  0.3333
  142MOL  Cl22945631   7.120   5.559   3.297 -0.0481  0.5198  0.2446
  142MOL   C23045632   7.297   5.368   3.367  0.8242 -0.5133  0.5447
  142MOL   C23145633   7.423   5.315   3.406  0.0672 -1.3797 -0.1176
  142MOL   C23245634   7.531   5.406   3.421  0.9798 -0.0209  0.2055
  142MOL   C23345635   7.516   5.544   3.385  0.3331  0.4848 -0.4551
  142MOL   C23445636   7.476   5.757   3.159 -0.7268  0.1382  0.2208
  142MOL   H23545637   7.289   5.761   3.268  0.7070  2.5070 -1.8634
  142MOL   H23645638   7.207   5.310   3.351  0.0638  0.6748  0.4084
  142MOL   H23745639   7.447   5.212   3.429  1.2284 -0.8885  0.9404
  142MOL   H23845640   7.632   5.376   3.447  0.4929  0.6097  2.9526
  142MOL   H23945641   7.605   5.604   3.384 -0.8298  2.2294 -1.6102
  142MOL   H24045642   7.509   5.657   3.130  1.6461  1.0556 -0.2979
  142MOL   H24145643   7.565   5.813   3.186  0.5725 -1.7904  0.0457
  142MOL   C24245644   7.400   5.804   3.030  0.0834 -0.0811 -0.3545
  142MOL   C24345645   7.286   5.704   2.989 -0.2595  0.5547 -0.3727
  142MOL   C24445646   7.146   5.735   3.003  0.3765  0.0272 -0.1734
  142MOL  Cl24545647   7.088   5.894   3.035  0.4434 -0.2516  0.1617
  142MOL   C24645648   7.051   5.636   2.979 -0.3899 -0.2909  0.2168
  142MOL   C24745649   7.099   5.501   2.950  0.0623 -0.0397  0.1965
  142MOL   C24845650   7.233   5.475   2.935 -0.1247  0.2554 -0.0118
  142MOL   C24945651   7.323   5.580   2.942  0.0339  0.2642 -0.3338
  142MOL   C25045652   7.496   5.830   2.917  1.1299  0.5851 -0.2292
  142MOL   H25145653   7.358   5.901   3.059  0.3646  0.3814 -1.4692
  142MOL   H25245654   6.945   5.652   2.995 -0.3214 -1.1841  1.6876
  142MOL   H25345655   7.024   5.424   2.936  0.1728 -0.1834  0.3820
  142MOL   H25445656   7.265   5.378   2.901 -1.5244  1.5091 -5.4435
  142MOL   H25545657   7.428   5.557   2.940 -0.1956 -0.9772  1.0264
  142MOL   H25645658   7.559   5.743   2.896  0.2184 -0.1403  0.0182
  142MOL   H25745659   7.570   5.903   2.949 -0.6216  2.3273 -0.0998
  142MOL   C25845660   7.424   5.868   2.786 -0.5542 -0.2432  0.2485
  142MOL   C25945661   7.525   5.884   2.672 -0.2421 -0.6638 -0.3308
  142MOL   C26045662   7.512   5.801   2.561 -0.0790  0.4486  0.4148
  142MOL  Cl26145663   7.397   5.671   2.545  0.2771  0.3528  0.4317
  142MOL   C26245664   7.582   5.828   2.444  0.7592  0.0220  0.0194
  142MOL   C26345665   7.665   5.938   2.433  0.6597  1.0018  0.5287
  142MOL   C26445666   7.683   6.020   2.544  0.9587  0.2897  0.5013
  142MOL   C26545667   7.613   5.996   2.667  0.2674  0.3001  0.4983
  142MOL   C26645668   7.342   6.003   2.802  0.3101 -1.3692 -0.3089
  142MOL   H26745669   7.356   5.789   2.757  0.9380 -1.9536  1.2892
  142MOL   H26845670   7.564   5.762   2.360 -0.2296  0.9331 -0.4932
  142MOL   H26945671   7.709   5.972   2.340  0.6599  0.8276  0.4661
  142MOL   H27045672   7.740   6.110   2.530 -2.8843  3.0215  1.5730
  142MOL   H27145673   7.620   6.058   2.755  0.5716 -1.5534  1.8017
  142MOL   H27245674   7.398   6.075   2.863 -0.7854  0.4053 -1.3474
  142MOL   H27345675   7.264   5.997   2.877  1.2461 -0.2947  0.7847
  142MOL   C27445676   7.288   6.075   2.674 -0.5790 -0.4262  0.7673
  142MOL   C27545677   7.252   6.217   2.710 -0.8882 -0.2887  0.0899
  142MOL   C27645678   7.319   6.323   2.643  0.0725  0.0036  0.7433
  142MOL  Cl27745679   7.458   6.298   2.546 -0.2901 -0.8044  0.3195
  142MOL   C27845680   7.282   6.458   2.667  0.2341  0.7552 -0.4810
  142MOL   C27945681   7.182   6.486   2.758  0.2473  0.2490 -0.3291
  142MOL   C28045682   7.110   6.376   2.819  0.1946 -0.1882 -0.2464
  142MOL   C28145683   7.151   6.248   2.799 -0.5264  0.2423  0.4793
  142MOL   C28245684   7.173   5.992   2.616 -0.1590 -0.7422  0.3006
  142MOL   H28345685   7.374   6.076   2.606  0.1952 -3.3624  1.6203
  142MOL   H28445686   7.335   6.544   2.628 -0.2611  0.8841 -0.8742
  142MOL   H28545687   7.159   6.589   2.783  0.4069  0.1085  0.4224
  142MOL   H28645688   7.030   6.385   2.891  1.1901 -0.7072  0.9474
  142MOL   H28745689   7.092   6.169   2.842 -1.5509  0.2609 -0.8813
  142MOL   H28845690   7.092   5.989   2.690 -0.7444  0.2971 -0.2906
  142MOL   H28945691   7.209   5.889   2.612  4.1128  0.6833 -0.5586
  142MOL   C29045692   7.123   6.041   2.478 -0.0244 -0.5664  0.6328
  142MOL   C29145693   6.976   6.001   2.459 -0.0448  0.6164 -0.3341
  142MOL   C29245694   6.872   6.094   2.456  0.6043 -0.4092  0.1523
  142MOL  Cl29345695   6.898   6.264   2.477 -0.0802  0.6378 -0.0642
  142MOL   C29445696   6.735   6.053   2.423 -0.0292 -0.1451 -0.6209
  142MOL   C29545697   6.707   5.920   2.408 -0.1632  0.6181 -0.0931
  142MOL   C29645698   6.812   5.821   2.422 -0.3933  0.5794  0.3023
  142MOL   C29745699   6.943   5.865   2.439 -0.5014  0.5070  0.2218
  142MOL   C29845700   7.220   6.001   2.356  0.1545 -0.3673 -0.2848
  142MOL   H29945701   7.120   6.149   2.490 -3.0329 -0.6121  0.8493
  142MOL   H30045702   6.657   6.127   2.417  0.7293  0.5191 -2.5731
  142MOL   H30145703   6.606   5.882   2.403  0.1266 -0.2050  0.2067
  142MOL   H30245704   6.797   5.714   2.408  1.1145  0.0746  2.3277
  142MOL   H30345705   7.018   5.789   2.419  0.7173  1.7390  0.0266
  142MOL   H30445706   7.200   5.896   2.332 -0.3929 -0.3960  0.2490
  142MOL   H30545707   7.324   6.006   2.388  0.4489  0.7086 -1.3766
  142MOL   C30645708   7.218   6.083   2.224  0.2217  0.3179 -0.6180
  142MOL   C30745709   7.324   6.037   2.124  0.9239 -0.3267 -0.8239
  142MOL   C30845710   7.281   5.979   2.003  0.1985 -0.2730 -0.2243
  142MOL  Cl30945711   7.118   5.993   1.941 -0.0028  0.1379 -0.5681
  142MOL   C31045712   7.375   5.915   1.919 -0.2728 -0.6853 -0.2368
  142MOL   C31145713   7.511   5.909   1.959 -0.3608 -0.1714  0.0090
  142MOL   C31245714   7.549   5.967   2.084  0.2173  0.0121 -0.3631
  142MOL   C31345715   7.460   6.037   2.166 -0.5829 -0.6755  0.2057
  142MOL   C31445716   7.238   6.237   2.245 -0.7061  0.2953  0.1131
  142MOL   H31545717   7.121   6.055   2.182  0.5130 -0.6359 -0.6679
  142MOL   H31645718   7.338   5.863   1.832 -2.9268 -1.2473  1.1794
  142MOL   H31745719   7.579   5.872   1.883 -1.5377 -1.3041 -0.5114
  142MOL   H31845720   7.652   5.979   2.115 -0.4596  0.6223  1.7401
  142MOL   H31945721   7.499   6.072   2.260  0.7028 -1.3617 -0.0713
  142MOL   H32045722   7.219   6.287   2.150  1.4966 -0.0244 -0.5332
  142MOL   H32145723   7.342   6.261   2.268 -0.5455 -1.1025  0.9038
  142MOL   H32245724   7.172   6.283   2.319 -2.6993  1.1678 -2.1543
  143MOL     C145725   4.918   5.186   2.112 -0.2521  0.9950  0.4021
  143MOL     C245726   4.940   5.163   1.963  0.1492  1.0176  0.1374
  143MOL     C345727   4.849   5.091   1.879  0.1988  0.2019  0.3273
  143MOL    Cl445728   4.698   5.039   1.942 -0.1200  0.1398 -0.2213
  143MOL     C545729   4.877   5.073   1.739 -0.3565 -0.0640 -0.0953
  143MOL     C645730   4.983   5.134   1.682  0.7972 -0.1695 -0.3404
  143MOL     C745731   5.081   5.202   1.767 -0.2536 -0.5572  0.0667
  143MOL     C845732   5.061   5.206   1.903  0.2015 -0.4701 -0.2865
  143MOL     C945733   4.970   5.318   2.167 -0.3239 -0.0717 -0.0315
  143MOL    H1045734   4.810   5.182   2.129 -0.0870  3.1037  2.1023
  143MOL    H1145735   4.801   5.027   1.677 -0.6661  0.3778 -0.0433
  143MOL    H1245736   5.015   5.117   1.580  1.7558  1.0611 -0.2535
  143MOL    H1345737   5.174   5.238   1.727 -0.9061  0.3046 -0.7048
  143MOL    H1445738   5.134   5.258   1.963 -1.3416 -0.0762  1.2916
  143MOL    H1545739   4.921   5.395   2.107 -0.2285 -1.2474 -1.6448
  143MOL    H1645740   5.078   5.333   2.156 -0.4704  1.1799  0.2185
  143MOL    H1745741   4.954   5.098   2.165  0.4246  0.3376 -1.1220
  143MOL    C1845742   4.947   5.329   2.319  0.3021 -0.5738 -0.3303
  143MOL    C1945743   4.799   5.301   2.358 -0.2683  0.2241 -0.3939
  143MOL    C2045744   4.699   5.393   2.337  0.0236 -0.4191 -0.2943
  143MOL   Cl2145745   4.727   5.544   2.258  0.4230  0.4413  0.3444
  143MOL    C2245746   4.567   5.363   2.378 -0.0161  0.7509  0.3594
  143MOL    C2345747   4.532   5.233   2.423 -0.3878  0.3335 -0.0370
  143MOL    C2445748   4.635   5.135   2.439 -0.1651 -0.9883 -0.3535
  143MOL    C2545749   4.772   5.171   2.413  0.3541  0.3120  0.0467
  143MOL    C2645750   4.996   5.460   2.383 -0.3264 -0.6511 -0.1142
  143MOL    H2745751   5.006   5.244   2.354  1.0861 -0.6185 -1.7322
  143MOL    H2845752   4.491   5.434   2.350 -0.8504 -0.5197 -0.6329
  143MOL    H2945753   4.432   5.198   2.441 -0.2036 -0.3395 -0.3174
  143MOL    H3045754   4.614   5.037   2.479  0.4221 -0.5065  1.1687
  143MOL    H3145755   4.857   5.105   2.423  0.2911  0.0090 -1.2357
  143MOL    H3245756   4.936   5.504   2.462  1.5599  0.3464  0.7873
  143MOL    H3345757   5.013   5.541   2.312  2.2482  0.4235  1.6463
  143MOL    C3445758   5.130   5.438   2.463 -0.2218 -0.0729  0.3184
  143MOL    C3545759   5.125   5.342   2.579  0.2843  0.4487  0.3751
  143MOL    C3645760   5.199   5.226   2.577  0.6772 -0.1657  0.5522
  143MOL   Cl3745761   5.315   5.175   2.460 -0.3134 -0.3319  0.1433
  143MOL    C3845762   5.173   5.138   2.686 -0.0070 -0.1149  0.0262
  143MOL    C3945763   5.082   5.161   2.786  0.1872 -0.2011 -0.5264
  143MOL    C4045764   5.008   5.281   2.786 -0.2941  0.4228 -0.2402
  143MOL    C4145765   5.035   5.375   2.680 -0.0563 -0.1204  0.1522
  143MOL    C4245766   5.187   5.576   2.500 -0.3031  1.1280 -0.0049
  143MOL    H4345767   5.195   5.399   2.384 -1.7593  0.6520 -1.3378
  143MOL    H4445768   5.215   5.038   2.691 -0.0631 -0.1333  0.1381
  143MOL    H4545769   5.068   5.094   2.869  0.2299 -0.4542 -0.7225
  143MOL    H4645770   4.935   5.301   2.862 -0.8579 -1.0366 -0.3865
  143MOL    H4745771   4.973   5.463   2.679  1.1037  0.6962 -2.4097
  143MOL    H4845772   5.250   5.548   2.584 -1.6111 -1.1046  0.2823
  143MOL    H4945773   5.119   5.648   2.547 -1.5794 -0.6932  1.0212
  143MOL    C5045774   5.280   5.647   2.390  0.9068  0.1736 -0.1605
  143MOL    C5145775   5.386   5.555   2.337  0.4475  0.3887  0.0738
  143MOL    C5245776   5.393   5.524   2.196  0.0382 -0.4285 -0.2990
  143MOL   Cl5345777   5.284   5.591   2.070 -0.2917  0.2165 -0.5153
  143MOL    C5445778   5.489   5.440   2.148 -0.2130  0.0586  0.1435
  143MOL    C5545779   5.589   5.389   2.238  0.3768  0.1977 -0.0527
  143MOL    C5645780   5.580   5.410   2.377  0.6213  0.0524 -0.5711
  143MOL    C5745781   5.481   5.499   2.419  0.7940  0.1949  0.0616
  143MOL    C5845782   5.336   5.787   2.442 -1.5727 -0.3144  0.3978
  143MOL    H5945783   5.223   5.675   2.301 -0.3808  0.8374  0.8691
  143MOL    H6045784   5.498   5.421   2.042  2.3401 -1.0385  0.5243
  143MOL    H6145785   5.666   5.324   2.200 -0.7208 -0.8012 -0.5824
  143MOL    H6245786   5.648   5.371   2.452 -0.6191 -3.9284 -1.4162
  143MOL    H6345787   5.495   5.519   2.524 -0.8362  1.5004  0.0603
  143MOL    H6445788   5.414   5.766   2.515 -1.0634  0.4089  0.0763
  143MOL    H6545789   5.258   5.852   2.483 -0.4637  0.6395  1.0261
  143MOL    C6645790   5.420   5.874   2.349  0.1760 -0.5743 -0.3673
  143MOL    C6745791   5.449   6.005   2.431 -1.2256  0.0464 -0.2272
  143MOL    C6845792   5.581   6.054   2.443  0.0307  1.4030 -0.0350
  143MOL   Cl6945793   5.721   5.958   2.385  0.2020  0.1688 -0.0282
  143MOL    C7045794   5.607   6.173   2.516  0.0756  0.5275  0.6542
  143MOL    C7145795   5.502   6.241   2.573  0.2124  0.0900 -0.6344
  143MOL    C7245796   5.372   6.196   2.554  0.7496  0.1110 -0.7384
  143MOL    C7345797   5.343   6.079   2.488 -0.3792 -0.0995  0.0951
  143MOL    C7445798   5.347   5.897   2.213 -0.1520  0.1367  0.3330
  143MOL    H7545799   5.512   5.823   2.321 -0.2569 -0.8952 -1.2218
  143MOL    H7645800   5.709   6.202   2.537  0.9337 -0.5653 -1.8193
  143MOL    H7745801   5.542   6.321   2.633 -1.1939 -1.7835  2.9788
  143MOL    H7845802   5.293   6.254   2.599  0.4831 -0.7457 -0.0896
  143MOL    H7945803   5.241   6.048   2.476 -0.5731 -0.0009  1.3587
  143MOL    H8045804   5.239   5.887   2.225 -0.1078 -2.9072 -1.2170
  143MOL    H8145805   5.378   5.824   2.138  0.0592  1.2017 -0.6411
  143MOL    C8245806   5.348   6.043   2.155  0.0113 -0.2833 -0.3757
  143MOL    C8345807   5.237   6.054   2.055 -0.0622 -0.1321 -0.7262
  143MOL    C8445808   5.112   6.110   2.094  0.7140 -0.0737  0.4917
  143MOL   Cl8545809   5.086   6.193   2.240  0.0997  0.0298  0.3432
  143MOL    C8645810   5.009   6.116   2.002 -0.2200 -0.1126 -0.5419
  143MOL    C8745811   5.014   6.067   1.875  0.7098  0.4715 -0.0606
  143MOL    C8845812   5.134   6.009   1.839  0.7999 -0.1182  0.5734
  143MOL    C8945813   5.241   5.999   1.928  0.0134 -0.5255 -0.7143
  143MOL    C9045814   5.489   6.074   2.093  0.2783  0.7538  0.0893
  143MOL    H9145815   5.334   6.115   2.235 -0.3215 -1.2366  0.4373
  143MOL    H9245816   4.918   6.170   2.026  0.2542 -0.0359  1.1752
  143MOL    H9345817   4.925   6.072   1.813  0.8757 -1.5346 -0.5053
  143MOL    H9445818   5.140   5.973   1.737 -1.5566 -0.2224  0.4246
  143MOL    H9545819   5.334   5.960   1.891 -0.2244  0.0487 -1.9354
  143MOL    H9645820   5.502   6.023   1.998 -0.2569 -1.2554  1.0707
  143MOL    H9745821   5.568   6.041   2.159  0.4739 -0.9155 -0.9625
  143MOL    C9845822   5.513   6.227   2.060 -0.1115  0.5680  0.5877
  143MOL    C9945823   5.529   6.324   2.177  0.3986  0.2667 -0.0644
  143MOL   C10045824   5.652   6.332   2.249  0.4405 -0.1632 -0.1691
  143MOL  Cl10145825   5.792   6.243   2.204  0.0612  0.0405 -0.3508
  143MOL   C10245826   5.654   6.423   2.360 -0.7322  0.0131 -0.2044
  143MOL   C10345827   5.542   6.510   2.386 -0.1375  0.3009  0.1337
  143MOL   C10445828   5.421   6.499   2.316  0.5434  0.0803 -0.6780
  143MOL   C10545829   5.418   6.396   2.219  0.5073 -0.5595 -0.6028
  143MOL   C10645830   5.435   6.287   1.941 -0.7222 -0.4757  0.0559
  143MOL   H10745831   5.618   6.222   2.029 -0.2533 -0.2287  0.2352
  143MOL   H10845832   5.740   6.440   2.423  1.5158 -2.4145 -2.4570
  143MOL   H10945833   5.555   6.580   2.468  2.1096  1.0684 -0.8488
  143MOL   H11045834   5.333   6.558   2.335 -0.3444 -0.9745 -1.4606
  143MOL   H11145835   5.324   6.389   2.166 -2.0040  2.8898  3.1624
  143MOL   H11245836   5.330   6.301   1.967 -0.5136 -0.2163  0.7627
  143MOL   H11345837   5.440   6.233   1.846  2.1332  3.2827 -2.0758
  143MOL   C11445838   5.499   6.423   1.898  0.0684  0.0062 -0.6181
  143MOL   C11545839   5.406   6.487   1.787 -0.2085  0.1492  0.6498
  143MOL   C11645840   5.344   6.613   1.807  0.0978 -0.5278  0.6495
  143MOL  Cl11745841   5.373   6.707   1.952  0.1259 -0.2542  0.1536
  143MOL   C11845842   5.272   6.678   1.707 -0.1040 -0.0822 -0.4018
  143MOL   C11945843   5.259   6.611   1.584  0.2849 -0.8093  0.0302
  143MOL   C12045844   5.305   6.479   1.565  0.3617  0.2390 -0.0789
  143MOL   C12145845   5.387   6.416   1.664  0.5355 -0.3833 -0.2455
  143MOL   C12245846   5.643   6.421   1.849 -0.2448  0.4523 -0.8444
  143MOL   H12345847   5.496   6.493   1.981 -0.3503 -0.1151 -0.5316
  143MOL   H12445848   5.227   6.775   1.723  0.4269 -0.0406  0.8857
  143MOL   H12545849   5.189   6.651   1.512  1.3378  0.4362 -0.3137
  143MOL   H12645850   5.279   6.439   1.468 -1.3204  1.1309 -0.0084
  143MOL   H12745851   5.429   6.319   1.642 -0.1432 -0.8723  0.6363
  143MOL   H12845852   5.642   6.361   1.758 -0.1745 -0.3352 -0.3328
  143MOL   H12945853   5.712   6.361   1.909 -0.8980  1.1636  0.6434
  143MOL   C13045854   5.704   6.570   1.836 -0.3058 -0.3974 -0.4086
  143MOL   C13145855   5.827   6.582   1.744  0.4635  0.5064 -0.5152
  143MOL   C13245856   5.842   6.681   1.644 -0.6446 -0.5588  0.2368
  143MOL  Cl13345857   5.728   6.811   1.626 -0.0479  0.1747  0.2526
  143MOL   C13445858   5.948   6.681   1.552 -0.8034 -0.4468 -0.2302
  143MOL   C13545859   6.046   6.579   1.559  0.3155  0.9539 -0.6613
  143MOL   C13645860   6.041   6.490   1.667 -0.5419 -0.4442  0.1038
  143MOL   C13745861   5.933   6.490   1.758  0.4753 -0.5384  0.8037
  143MOL   C13845862   5.756   6.610   1.978  0.0360  0.0010  0.4334
  143MOL   H13945863   5.625   6.640   1.809 -0.5704 -1.0570 -1.3721
  143MOL   H14045864   5.949   6.757   1.475 -0.3671 -0.9093 -0.6879
  143MOL   H14145865   6.126   6.573   1.486  1.9658  2.2093  0.9723
  143MOL   H14245866   6.117   6.415   1.688  0.4050 -0.0260 -1.7498
  143MOL   H14345867   5.927   6.423   1.843 -0.2866  0.1798  1.3254
  143MOL   H14445868   5.834   6.541   2.011 -0.9096 -1.0564  0.5058
  143MOL   H14545869   5.682   6.600   2.058 -0.0259  0.1919  0.4007
  143MOL   C14645870   5.805   6.756   2.006 -0.0332 -0.0452 -0.1088
  143MOL   C14745871   5.862   6.766   2.151  0.3419 -0.1193 -1.0993
  143MOL   C14845872   6.003   6.753   2.173 -0.0864  0.0889 -0.6027
  143MOL  Cl14945873   6.107   6.746   2.038 -0.2987  0.4868  0.1986
  143MOL   C15045874   6.054   6.756   2.302 -0.4531  0.6981  0.3112
  143MOL   C15145875   5.970   6.779   2.411  0.4269  0.0551 -0.0537
  143MOL   C15245876   5.832   6.781   2.391 -0.0351  0.2634 -0.2949
  143MOL   C15345877   5.780   6.784   2.261  0.5438 -0.5904 -0.7582
  143MOL   C15445878   5.691   6.855   1.988  0.3445 -0.4186 -0.1037
  143MOL   H15545879   5.878   6.781   1.928 -0.5324  1.9769  0.0279
  143MOL   H15645880   6.161   6.742   2.307 -0.7849 -3.1251 -1.3705
  143MOL   H15745881   6.009   6.769   2.512  0.3036 -2.3271 -0.2050
  143MOL   H15845882   5.768   6.787   2.478  0.6292 -1.4898  0.3381
  143MOL   H15945883   5.673   6.772   2.248  0.4087 -0.4911  0.2473
  143MOL   H16045884   5.618   6.838   2.067 -0.3468 -0.5625 -0.7669
  143MOL   H16145885   5.623   6.823   1.909  1.2474 -1.1862 -0.5902
  143MOL   C16245886   5.732   7.005   1.953 -0.0572  1.0576 -0.1149
  143MOL   C16345887   5.777   7.084   2.079  0.1787  0.6783 -0.2516
  143MOL   C16445888   5.907   7.135   2.097  0.1925 -0.3521 -0.4219
  143MOL  Cl16545889   6.038   7.105   1.981 -0.0116  0.1480  0.3579
  143MOL   C16645890   5.929   7.218   2.211 -0.5487  0.5839  0.4123
  143MOL   C16745891   5.826   7.241   2.307 -1.1268  0.1177 -0.0587
  143MOL   C16845892   5.695   7.195   2.284  0.4586  0.4913  0.4130
  143MOL   C16945893   5.672   7.104   2.181  0.4036  0.1935 -1.3107
  143MOL   C17045894   5.626   7.082   1.878  0.0591 -0.2122 -0.1679
  143MOL   H17145895   5.821   7.007   1.890  1.1535 -0.8002  1.4974
  143MOL   H17245896   6.030   7.252   2.233 -0.1166 -0.8163  0.6475
  143MOL   H17345897   5.841   7.304   2.393 -0.1275 -0.8166  0.4671
  143MOL   H17445898   5.619   7.211   2.359 -1.6128 -0.6056 -1.3869
  143MOL   H17545899   5.572   7.065   2.173  0.4422 -0.5822  1.5305
  143MOL   H17645900   5.533   7.073   1.933 -0.2787 -1.9911 -0.9633
  143MOL   H17745901   5.593   7.031   1.787 -0.0717  0.9700 -0.7853
  143MOL   C17845902   5.660   7.226   1.848  0.3736 -0.4947  0.5010
  143MOL   C17945903   5.598   7.334   1.936 -0.6865 -0.1954 -0.1181
  143MOL   C18045904   5.666   7.449   1.979  0.0886 -0.7121  0.0046
  143MOL  Cl18145905   5.835   7.457   1.965  0.2211  0.0537 -0.3826
  143MOL   C18245906   5.599   7.554   2.041 -0.5506  0.4194  0.0431
  143MOL   C18345907   5.464   7.535   2.078  0.1703  0.4446  0.2708
  143MOL   C18445908   5.393   7.421   2.043 -0.3483 -0.1059  0.0350
  143MOL   C18545909   5.463   7.321   1.976  0.4912  0.9467 -0.0027
  143MOL   C18645910   5.657   7.257   1.692  0.0572  0.7849 -0.4447
  143MOL   H18745911   5.767   7.229   1.866  0.5244 -0.2798 -0.4115
  143MOL   H18845912   5.656   7.645   2.055 -1.1491  1.2473 -2.6251
  143MOL   H18945913   5.412   7.617   2.125  0.3193  2.2273 -2.5769
  143MOL   H19045914   5.290   7.410   2.076 -0.5184  0.7458 -0.1900
  143MOL   H19145915   5.406   7.235   1.944 -1.0675  2.3589 -1.1086
  143MOL   H19245916   5.705   7.176   1.637 -1.4915 -1.6434  1.6904
  143MOL   H19345917   5.719   7.347   1.690  1.7514 -0.3370  0.4567
  143MOL   C19445918   5.519   7.283   1.632  0.6093 -0.2061  0.4087
  143MOL   C19545919   5.466   7.156   1.558 -0.2623  0.3707  0.0768
  143MOL   C19645920   5.346   7.098   1.598  0.0278 -0.1188 -0.2304
  143MOL  Cl19745921   5.257   7.167   1.725 -0.0946  0.2577  0.0392
  143MOL   C19845922   5.298   6.985   1.535  0.5080  0.3711  0.9572
  143MOL   C19945923   5.361   6.929   1.429  0.3709 -0.9531  0.0405
  143MOL   C20045924   5.485   6.984   1.389 -0.3393 -0.5586  0.1611
  143MOL   C20145925   5.536   7.098   1.449 -0.3037  0.0975 -0.0598
  143MOL   C20245926   5.513   7.411   1.549  0.4135 -1.1239 -0.3527
  143MOL   H20345927   5.461   7.305   1.722  0.9877 -3.2445  1.4668
  143MOL   H20445928   5.201   6.950   1.567 -0.2341 -0.1932 -1.7439
  143MOL   H20545929   5.319   6.846   1.373  1.7487 -1.1292 -0.7665
  143MOL   H20645930   5.529   6.936   1.303  0.6653  0.6865 -0.0323
  143MOL   H20745931   5.629   7.137   1.411  0.7229 -2.1563  0.0133
  143MOL   H20845932   5.563   7.387   1.455 -0.0914 -2.2664 -0.3422
  143MOL   H20945933   5.563   7.497   1.593 -0.1446 -0.2667 -1.3748
  143MOL   C21045934   5.373   7.479   1.510 -0.3480 -0.3114 -0.2721
  143MOL   C21145935   5.387   7.574   1.381 -0.4435  0.0034 -1.0998
  143MOL   C21245936   5.313   7.550   1.263 -1.2573  0.0481 -0.7338
  143MOL  Cl21345937   5.224   7.407   1.249 -0.2045 -0.3575  0.1094
  143MOL   C21445938   5.315   7.645   1.158  0.1832 -0.7792 -0.5464
  143MOL   C21545939   5.390   7.762   1.173  0.0809  0.0999  0.0016
  143MOL   C21645940   5.456   7.792   1.291 -0.5284  0.1222  0.3196
  143MOL   C21745941   5.459   7.698   1.394 -0.2750  0.5532  0.5107
  143MOL   C21845942   5.313   7.544   1.639 -0.9321 -0.7274 -0.3292
  143MOL   H21945943   5.316   7.394   1.472 -1.1371  1.2496 -2.7286
  143MOL   H22045944   5.244   7.633   1.076  0.4691  0.7603 -1.0301
  143MOL   H22145945   5.385   7.838   1.097 -0.8597  1.0861  1.0258
  143MOL   H22245946   5.496   7.891   1.302  0.7666 -0.5348  1.5849
  143MOL   H22345947   5.512   7.729   1.482 -0.5168  1.0176  0.4945
  143MOL   H22445948   5.379   7.625   1.670  1.2251 -3.6473  3.0251
  143MOL   H22545949   5.321   7.485   1.730  0.4678  0.0010  0.0272
  143MOL   C22645950   5.171   7.597   1.623 -0.4107 -0.0111 -0.2434
  143MOL   C22745951   5.121   7.661   1.750 -0.4530  0.4749  0.4127
  143MOL   C22845952   5.106   7.802   1.763  0.4487 -0.3048  0.3335
  143MOL  Cl22945953   5.139   7.916   1.641  0.0274 -0.0663 -0.0974
  143MOL   C23045954   5.072   7.859   1.886  0.5560  0.1745 -0.8792
  143MOL   C23145955   5.031   7.778   1.993 -0.0244 -0.3249 -0.5031
  143MOL   C23245956   5.054   7.639   1.984  0.0094  0.5934 -0.3695
  143MOL   C23345957   5.098   7.585   1.864 -0.6888  0.4473  0.0122
  143MOL   C23445958   5.070   7.490   1.562  0.2529 -0.1691 -0.1083
  143MOL   H23545959   5.185   7.681   1.555 -2.2525  0.4643 -0.0504
  143MOL   H23645960   5.056   7.964   1.905  1.4600  0.2335 -0.4313
  143MOL   H23745961   4.985   7.824   2.079 -0.0351 -0.3773 -0.4812
  143MOL   H23845962   5.016   7.571   2.059  2.8292  0.6704  1.1946
  143MOL   H23945963   5.111   7.478   1.852 -1.1450  0.7231 -3.3806
  143MOL   H24045964   5.072   7.396   1.618 -0.5755  0.6231  1.2536
  143MOL   H24145965   5.098   7.475   1.457  1.3509  0.8222  0.0403
  143MOL   C24245966   4.917   7.521   1.563  0.3365 -0.2619  0.7299
  143MOL   C24345967   4.830   7.416   1.510  0.4627  0.4023 -0.1148
  143MOL   C24445968   4.745   7.343   1.593 -0.3924 -0.4078  0.4079
  143MOL  Cl24545969   4.724   7.368   1.762  0.0065 -0.0913 -0.2894
  143MOL   C24645970   4.662   7.244   1.532 -0.2890 -0.3829  0.2048
  143MOL   C24745971   4.671   7.209   1.397  0.1026  0.1919  0.7167
  143MOL   C24845972   4.762   7.278   1.324 -0.1030  0.5087  0.5368
  143MOL   C24945973   4.839   7.381   1.379 -0.2126 -0.6211  0.4601
  143MOL   C25045974   4.897   7.655   1.497  0.7463  0.4756  0.7916
  143MOL   H25145975   4.896   7.538   1.669 -0.2571  1.3121  0.3702
  143MOL   H25245976   4.597   7.196   1.604 -0.0430  1.2739  1.5751
  143MOL   H25345977   4.614   7.124   1.363  1.1127 -0.6065  0.9696
  143MOL   H25445978   4.784   7.251   1.222  2.4793 -1.8741  1.6682
  143MOL   H25545979   4.904   7.438   1.314 -1.9105 -0.3576 -1.0288
  143MOL   H25645980   4.938   7.657   1.396 -1.4075  0.9447 -0.0955
  143MOL   H25745981   4.951   7.731   1.555 -0.3919  2.3367 -0.5145
  143MOL   C25845982   4.756   7.703   1.515 -0.0926 -0.0022 -0.1717
  143MOL   C25945983   4.720   7.793   1.393  0.1903 -0.5158 -0.4434
  143MOL   C26045984   4.630   7.738   1.290  0.3489 -0.9016 -0.3547
  143MOL  Cl26145985   4.575   7.571   1.295  0.4403 -0.2510 -0.2144
  143MOL   C26245986   4.593   7.829   1.184 -0.3100  0.6630 -0.3401
  143MOL   C26345987   4.632   7.961   1.183 -0.2153  0.4423 -0.1989
  143MOL   C26445988   4.717   8.015   1.287 -0.1386 -0.1339 -0.3044
  143MOL   C26545989   4.773   7.925   1.383 -0.0206 -0.8731 -0.0950
  143MOL   C26645990   4.729   7.788   1.645  0.1282  0.1975 -0.1216
  143MOL   H26745991   4.688   7.617   1.514 -0.5861  0.3788  0.1213
  143MOL   H26845992   4.531   7.783   1.108 -1.3324  1.6851 -0.1548
  143MOL   H26945993   4.593   8.024   1.105  0.3587  0.6481 -0.3216
  143MOL   H27045994   4.750   8.117   1.293 -1.6320  0.3294  0.2800
  143MOL   H27145995   4.848   7.965   1.451 -1.6750  1.1244  0.6146
  143MOL   H27245996   4.798   7.871   1.657 -0.2324  0.1167  3.0583
  143MOL   H27345997   4.765   7.724   1.726  2.2629 -0.1072 -1.2661
  143MOL   C27445998   4.585   7.837   1.662 -0.2043  0.6296  0.1483
  143MOL   C27545999   4.554   7.950   1.764  0.5524  0.1372 -0.7987
  143MOL   C27646000   4.492   8.067   1.723  0.1171  0.4983 -0.3480
  143MOL  Cl27746001   4.441   8.093   1.562  0.0695 -0.2468  0.2270
  143MOL   C27846002   4.459   8.164   1.818  1.0388  0.1256 -0.3302
  143MOL   C27946003   4.488   8.148   1.952 -0.2005  0.3246 -0.4516
  143MOL   C28046004   4.558   8.035   1.999 -1.2716 -0.3262  0.2111
  143MOL   C28146005   4.587   7.938   1.899 -0.4606 -0.3476 -1.2550
  143MOL   C28246006   4.492   7.717   1.693 -0.5519  0.1207  0.0926
  143MOL   H28346007   4.560   7.884   1.567  2.0579 -1.0163 -1.3058
  143MOL   H28446008   4.414   8.252   1.776  0.7035  0.0550 -0.1175
  143MOL   H28546009   4.463   8.233   2.014  0.3069 -0.0178  0.2251
  143MOL   H28646010   4.583   8.023   2.104 -1.1206  0.4605  0.2661
  143MOL   H28746011   4.640   7.849   1.927 -0.9694 -0.2194  0.1754
  143MOL   H28846012   4.504   7.699   1.800  0.5531  0.0088 -0.0435
  143MOL   H28946013   4.526   7.622   1.650 -1.0444 -0.7727  1.6730
  143MOL   C29046014   4.346   7.740   1.636  0.2257 -0.3968 -0.3347
  143MOL   C29146015   4.256   7.661   1.724  0.5556  0.9175 -0.0230
  143MOL   C29246016   4.152   7.722   1.804  0.1022 -0.1981 -0.1336
  143MOL  Cl29346017   4.121   7.896   1.808  0.4464 -0.2990  0.1029
  143MOL   C29446018   4.071   7.634   1.877  0.6211  0.1772  0.5837
  143MOL   C29546019   4.087   7.495   1.869  0.5839 -0.0754  0.2820
  143MOL   C29646020   4.187   7.434   1.789 -0.5302  0.1828 -0.5012
  143MOL   C29746021   4.276   7.519   1.721 -0.7217  0.5225  0.9739
  143MOL   C29846022   4.331   7.705   1.481 -0.0267 -0.1787  0.0781
  143MOL   H29946023   4.313   7.844   1.634  1.5015 -0.0171 -3.7359
  143MOL   H30046024   3.990   7.674   1.935  1.1947  2.9122 -0.4147
  143MOL   H30146025   4.033   7.417   1.921  0.9104 -0.7177 -0.3272
  143MOL   H30246026   4.202   7.327   1.788 -1.1820  0.0884 -0.6075
  143MOL   H30346027   4.353   7.478   1.658 -1.6723 -0.6860  0.5738
  143MOL   H30446028   4.386   7.612   1.464  1.7180  0.9580 -0.7065
  143MOL   H30546029   4.390   7.782   1.430  0.6388 -0.9465 -0.3298
  143MOL   C30646030   4.186   7.688   1.429  0.1324 -0.4965  0.1299
  143MOL   C30746031   4.202   7.648   1.282  0.2696 -0.2080  0.0362
  143MOL   C30846032   4.181   7.519   1.238 -0.5403 -0.0404  0.2468
  143MOL  Cl30946033   4.146   7.387   1.343  0.0539  0.1221 -0.3088
  143MOL   C31046034   4.196   7.489   1.101 -0.0218 -0.2076 -0.2627
  143MOL   C31146035   4.233   7.588   1.005 -0.6210  0.8704 -0.4204
  143MOL   C31246036   4.259   7.717   1.052 -0.1232  0.2353  0.1758
  143MOL   C31346037   4.243   7.748   1.193 -0.3039  0.6562  0.2974
  143MOL   C31446038   4.091   7.800   1.450 -0.5136 -0.2596  0.3581
  143MOL   H31546039   4.139   7.608   1.486  0.3660  0.6480  1.9705
  143MOL   H31646040   4.171   7.389   1.068 -0.6669  0.0251 -0.4918
  143MOL   H31746041   4.255   7.554   0.905  0.5189  0.5765 -0.0812
  143MOL   H31846042   4.305   7.791   0.988 -0.0544  1.0324  1.1191
  143MOL   H31946043   4.264   7.850   1.224 -0.8765  1.1564 -0.9170
  143MOL   H32046044   4.137   7.895   1.423 -0.4016 -0.1510  0.9218
  143MOL   H32146045   4.060   7.804   1.555  1.2228  1.1902  0.8332
  143MOL   H32246046   3.996   7.785   1.400 -1.1064  1.7848  0.8529
  144MOL     C146047   6.126   7.117   3.635  1.1824 -0.5705 -0.2870
  144MOL     C246048   6.159   7.084   3.780 -0.0824  0.3715 -1.0048
  144MOL     C346049   6.268   7.148   3.846 -0.4670 -0.2117  0.2655
  144MOL    Cl446050   6.376   7.255   3.761  0.4207 -0.0615 -0.0105
  144MOL     C546051   6.303   7.116   3.976  0.0743  0.6739 -0.1588
  144MOL     C646052   6.230   7.021   4.056 -0.4507  0.4291 -0.0506
  144MOL     C746053   6.127   6.953   3.988 -0.0211  0.5319  0.4923
  144MOL     C846054   6.092   6.984   3.854  0.3139  0.2656  0.7017
  144MOL     C946055   5.980   7.171   3.612 -0.3759 -0.0469  0.1727
  144MOL    H1046056   6.197   7.187   3.591  2.1763 -0.3829  1.5710
  144MOL    H1146057   6.396   7.155   4.014  0.3171  0.5502 -0.6343
  144MOL    H1246058   6.247   6.996   4.160 -0.2203 -0.7193 -0.3552
  144MOL    H1346059   6.078   6.863   4.025  0.0480  0.4640  0.4207
  144MOL    H1446060   6.033   6.909   3.804  0.3086  1.1382 -0.6303
  144MOL    H1546061   5.911   7.089   3.589  0.5569 -0.6189 -0.5979
  144MOL    H1646062   5.992   7.216   3.514 -1.4702  0.4732  0.2625
  144MOL    H1746063   6.150   7.022   3.587  2.2573  0.1778 -1.2726
  144MOL    C1846064   5.924   7.271   3.716 -0.1863  0.2145  0.2508
  144MOL    C1946065   5.804   7.213   3.799 -0.1853  0.4030  0.7571
  144MOL    C2046066   5.810   7.215   3.937  0.2452  0.1364  0.4379
  144MOL   Cl2146067   5.945   7.290   4.017 -0.1303  0.2166  0.4516
  144MOL    C2246068   5.703   7.162   4.009 -0.0509 -0.2101  0.8808
  144MOL    C2346069   5.590   7.100   3.951  0.6883  1.3217 -0.7291
  144MOL    C2446070   5.583   7.087   3.812 -0.5248  0.3873 -0.4102
  144MOL    C2546071   5.690   7.144   3.737 -0.3668  1.0056  0.0999
  144MOL    C2646072   5.869   7.393   3.637  0.0560 -0.4662  0.5496
  144MOL    H2746073   6.008   7.299   3.780 -1.5208  1.6306  1.4247
  144MOL    H2846074   5.705   7.170   4.117  0.7458  0.9173  0.7965
  144MOL    H2946075   5.511   7.070   4.019  2.5608 -0.8425  0.5628
  144MOL    H3046076   5.501   7.035   3.765 -0.0678 -2.0208  1.3327
  144MOL    H3146077   5.689   7.135   3.629 -0.8261  0.2794  0.1619
  144MOL    H3246078   5.784   7.367   3.573  2.0901 -2.0915 -1.6010
  144MOL    H3346079   5.949   7.424   3.569 -0.4629  1.4332  0.7660
  144MOL    C3446080   5.831   7.519   3.718 -0.2606  0.1372  0.6142
  144MOL    C3546081   5.722   7.598   3.637 -0.2870 -0.1536  1.2676
  144MOL    C3646082   5.590   7.611   3.679 -0.9432 -0.0554  0.4602
  144MOL   Cl3746083   5.528   7.528   3.822  0.1286  0.1201  0.4572
  144MOL    C3846084   5.491   7.682   3.603  0.1952 -0.1744 -0.4475
  144MOL    C3946085   5.532   7.739   3.485  0.2641 -0.3261 -0.4645
  144MOL    C4046086   5.668   7.732   3.445 -0.2601  0.0996 -0.0028
  144MOL    C4146087   5.763   7.666   3.518 -0.2794 -0.4178  0.5346
  144MOL    C4246088   5.956   7.604   3.749  0.0512 -0.2321 -0.2004
  144MOL    H4346089   5.792   7.487   3.815 -1.6045  2.7791  1.0124
  144MOL    H4446090   5.387   7.696   3.631  0.4570 -0.4215  0.6811
  144MOL    H4546091   5.461   7.792   3.423  0.9804  0.1955 -0.8389
  144MOL    H4646092   5.675   7.774   3.346  2.1011 -1.3503 -0.4937
  144MOL    H4746093   5.868   7.676   3.497 -0.2542  1.1199  1.3237
  144MOL    H4846094   6.016   7.623   3.660  2.1813  0.7224  1.3672
  144MOL    H4946095   6.009   7.536   3.816 -2.8526 -0.0703  2.3615
  144MOL    C5046096   5.932   7.728   3.836  0.5624  0.0904 -0.1535
  144MOL    C5146097   6.045   7.824   3.846  0.6332  0.2910  0.4662
  144MOL    C5246098   6.042   7.950   3.783 -0.0934 -0.2861 -0.4913
  144MOL   Cl5346099   5.920   7.987   3.659  0.1987  0.3598 -0.0256
  144MOL    C5446100   6.145   8.046   3.803  0.3343 -0.1050 -0.0316
  144MOL    C5546101   6.252   8.017   3.889 -0.3396  0.4103 -0.5577
  144MOL    C5646102   6.258   7.894   3.952 -0.3164 -0.1854 -0.6403
  144MOL    C5746103   6.153   7.796   3.929 -0.5947 -0.3692 -0.1198
  144MOL    C5846104   5.862   7.695   3.970  0.6789 -0.1054 -0.1914
  144MOL    H5946105   5.845   7.779   3.796  0.7868 -1.1791 -2.3048
  144MOL    H6046106   6.150   8.143   3.756 -3.3619  0.3015  0.2211
  144MOL    H6146107   6.333   8.086   3.906  1.1959 -0.9530 -2.2856
  144MOL    H6246108   6.342   7.857   4.009 -2.7711 -2.5805  1.6098
  144MOL    H6346109   6.149   7.710   3.994  0.7479 -0.5842 -0.2929
  144MOL    H6446110   5.900   7.610   4.026 -0.0930  0.3261  1.0159
  144MOL    H6546111   5.761   7.664   3.945  1.3781  0.8316 -4.6501
  144MOL    C6646112   5.862   7.804   4.080 -0.1432  0.7163  0.5248
  144MOL    C6746113   5.773   7.764   4.199  0.4099 -0.2131 -0.0192
  144MOL    C6846114   5.826   7.743   4.331  0.1976  0.2002 -0.2483
  144MOL   Cl6946115   5.993   7.759   4.358 -0.0350  0.2457  0.2171
  144MOL    C7046116   5.740   7.711   4.438 -1.1389  0.3871 -0.2616
  144MOL    C7146117   5.600   7.693   4.418  0.2597  0.8571  0.2304
  144MOL    C7246118   5.546   7.701   4.284  0.4658  0.4671 -0.2829
  144MOL    C7346119   5.634   7.743   4.179 -0.1240 -0.1453  0.0732
  144MOL    C7446120   5.808   7.944   4.037 -0.1328  0.4934  0.1930
  144MOL    H7546121   5.966   7.819   4.106 -0.0895  0.1277  0.6528
  144MOL    H7646122   5.788   7.687   4.532 -0.0044  0.0377 -0.9252
  144MOL    H7746123   5.534   7.651   4.493  0.9925 -0.4186  0.1719
  144MOL    H7846124   5.443   7.673   4.267 -0.3759  2.2447  1.7493
  144MOL    H7946125   5.600   7.742   4.077 -1.6561 -2.5010  0.5907
  144MOL    H8046126   5.701   7.933   4.018  0.2321 -1.4325 -0.8998
  144MOL    H8146127   5.840   7.972   3.937 -1.7265  1.0148 -0.2004
  144MOL    C8246128   5.835   8.065   4.128 -0.5547 -0.3097 -0.5451
  144MOL    C8346129   5.749   8.187   4.084  0.0312 -0.0355 -0.3176
  144MOL    C8446130   5.619   8.207   4.141 -0.6320  0.0356 -0.2421
  144MOL   Cl8546131   5.544   8.077   4.237 -0.1426  0.2488 -0.2306
  144MOL    C8646132   5.560   8.336   4.139 -0.4091  0.2073  0.1686
  144MOL    C8746133   5.625   0.017   4.069 -1.3697 -0.3779 -0.4902
  144MOL    C8846134   5.737   8.412   3.989 -0.2576 -0.8277 -0.1715
  144MOL    C8946135   5.793   8.284   3.992 -0.5318 -0.6297  0.5980
  144MOL    C9046136   5.992   8.097   4.141  0.1373  0.6919 -0.2275
  144MOL    H9146137   5.798   8.045   4.229  0.8530  1.0341  0.2403
  144MOL    H9246138   5.483   8.357   4.212 -1.1689  1.5280 -0.9848
  144MOL    H9346139   5.597   0.122   4.075  0.0961  0.1455 -2.2807
  144MOL    H9446140   5.790   0.078   3.951 -0.6076  0.2997  1.8574
  144MOL    H9546141   5.886   8.266   3.940 -1.0719  0.9880 -0.9816
  144MOL    H9646142   6.036   8.114   4.043  1.4541  0.2165  0.2612
  144MOL    H9746143   6.043   8.008   4.179  0.1729  1.9200  2.7080
  144MOL    C9846144   6.017   8.211   4.248  0.2051  0.2173 -0.3643
  144MOL    C9946145   6.160   8.256   4.232 -0.2614  0.6466 -0.7180
  144MOL   C10046146   6.203   8.378   4.172 -0.7639 -0.0458 -0.3470
  144MOL  Cl10146147   6.088   0.072   4.112 -0.1968  0.0295  0.0424
  144MOL   C10246148   6.342   8.411   4.171  0.2784 -0.1434 -0.4603
  144MOL   C10346149   6.443   8.315   4.205  0.4559 -0.1937  0.4018
  144MOL   C10446150   6.399   8.190   4.252  0.2401  0.4231 -0.3144
  144MOL   C10546151   6.261   8.160   4.272 -1.2125 -0.0775  0.2395
  144MOL   C10646152   5.983   8.188   4.395  0.5907 -0.2370 -0.2829
  144MOL   H10746153   5.956   8.295   4.217 -0.5206  0.5896  2.0207
  144MOL   H10846154   6.366   0.087   4.128 -0.6148 -0.3102 -1.3620
  144MOL   H10946155   6.549   8.338   4.200 -0.2142  2.5778 -2.0658
  144MOL   H11046156   6.474   8.113   4.266  0.2826  0.9883  2.9295
  144MOL   H11146157   6.228   8.062   4.302 -2.3212 -0.6249 -2.6623
  144MOL   H11246158   6.073   8.160   4.451 -0.1757 -1.2181  0.4710
  144MOL   H11346159   5.923   8.097   4.404  0.5269 -0.1565  0.0933
  144MOL   C11446160   5.899   8.295   4.470  0.1051  0.6551  0.4286
  144MOL   C11546161   5.975   0.007   4.460  0.6385 -0.4192  0.2415
  144MOL   C11646162   5.920   0.121   4.404  0.0037 -0.1996 -0.7557
  144MOL  Cl11746163   5.757   0.126   4.357  0.1999  0.3234  0.1818
  144MOL   C11846164   5.995   0.238   4.397  0.0481  0.2209  0.0116
  144MOL   C11946165   6.131   0.238   4.436  0.1026  0.0096 -0.1583
  144MOL   C12046166   6.182   0.127   4.502 -0.4328  1.0431 -0.4179
  144MOL   C12146167   6.101   0.009   4.519 -0.5808  0.8691 -0.0336
  144MOL   C12246168   5.874   8.259   4.619  0.0618  0.0188  0.6760
  144MOL   H12346169   5.807   8.291   4.412  0.7215  0.2101 -0.5294
  144MOL   H12446170   5.952   0.326   4.351  1.7430  1.1879  0.2395
  144MOL   H12546171   6.191   0.327   4.425  1.0974 -0.4783  1.1017
  144MOL   H12646172   6.287   0.126   4.524 -0.3136 -0.8296 -0.9258
  144MOL   H12746173   6.153   8.342   4.555 -0.7288  1.5546  1.9370
  144MOL   H12846174   5.938   8.315   4.688  0.0481  0.7229  0.1271
  144MOL   H12946175   5.916   8.159   4.632  2.1771  0.9425  1.1835
  144MOL   C13046176   5.730   8.249   4.674  0.6178 -0.1726 -0.3937
  144MOL   C13146177   5.643   8.364   4.647  0.3975  0.3062  0.3385
  144MOL   C13246178   5.511   8.354   4.599 -0.4538  0.0054  0.3726
  144MOL  Cl13346179   5.447   8.206   4.542  0.3132  0.0084 -0.0561
  144MOL   C13446180   5.429   0.047   4.591  0.2077  0.5540  0.2573
  144MOL   C13546181   5.479   0.174   4.627 -0.0023  0.6220  0.3208
  144MOL   C13646182   5.603   0.186   4.683 -0.4666 -0.5229  0.0339
  144MOL   C13746183   5.682   0.069   4.695  0.0316 -0.6431 -0.0178
  144MOL   C13846184   5.730   8.221   4.831  1.0509 -0.4955 -0.4648
  144MOL   H13946185   5.678   8.164   4.629  0.4520 -0.6221  0.6233
  144MOL   H14046186   5.334   0.033   4.541 -0.5864 -2.1259  2.3994
  144MOL   H14146187   5.416   0.260   4.609  0.5241  0.9558  0.0562
  144MOL   H14246188   5.644   0.282   4.710  0.0760 -1.2442  1.8870
  144MOL   H14346189   5.787   0.074   4.722  0.1804 -0.6920 -0.5660
  144MOL   H14446190   5.631   8.245   4.870  1.2504 -0.5307  0.0683
  144MOL   H14546191   5.786   8.296   4.887  0.9459 -0.0284 -0.9825
  144MOL   C14646192   5.768   8.081   4.879  0.1006  0.7766  0.6230
  144MOL   C14746193   5.642   8.006   4.931 -0.0180 -0.6230 -0.5485
  144MOL   C14846194   5.559   7.929   4.843 -0.0280 -0.5913  0.5006
  144MOL  Cl14946195   5.614   7.907   4.684  0.0627 -0.2691  0.0926
  144MOL   C15046196   5.446   7.858   4.887  0.3166 -0.6135 -0.2356
  144MOL   C15146197   5.406   7.860   5.023  0.0112 -0.6992  0.9989
  144MOL   C15246198   5.475   7.949   5.105  0.2466 -0.1821 -0.3889
  144MOL   C15346199   5.598   8.009   5.064  0.2322 -0.7947 -0.1056
  144MOL   C15446200   5.883   8.072   4.979 -0.0020  0.0234 -0.4766
  144MOL   H15546201   5.804   8.022   4.794  1.8296  2.5064  0.1356
  144MOL   H15646202   5.395   7.795   4.817  1.4085  0.1874 -1.7791
  144MOL   H15746203   5.314   7.813   5.057 -1.4197  1.2467 -0.1275
  144MOL   H15846204   5.440   7.964   5.206  0.0677  1.0909 -0.6383
  144MOL   H15946205   5.644   8.076   5.135  0.3760  0.9232 -1.7704
  144MOL   H16046206   5.892   7.966   5.003  0.9133  0.0937 -0.4978
  144MOL   H16146207   5.852   8.120   5.073  1.0726  0.8013 -0.5091
  144MOL   C16246208   6.029   8.115   4.940  0.6636 -0.0708  0.3177
  144MOL   C16346209   6.096   8.040   4.821 -0.7746 -0.1478  0.0143
  144MOL   C16446210   6.203   8.090   4.745 -0.4753 -0.0208  0.0951
  144MOL  Cl16546211   6.248   8.257   4.758 -0.1171 -0.1264  0.0402
  144MOL   C16646212   6.270   8.019   4.642  0.0408 -0.6153  0.2906
  144MOL   C16746213   6.224   7.888   4.616 -0.2140 -0.2754 -0.2262
  144MOL   C16846214   6.118   7.833   4.686 -0.4418 -0.0372 -0.1687
  144MOL   C16946215   6.056   7.909   4.793 -0.1503 -0.0397 -0.5324
  144MOL   C17046216   6.139   8.113   5.053 -0.6658  0.0255  0.1515
  144MOL   H17146217   6.021   8.216   4.901  0.5814 -0.6012 -1.0661
  144MOL   H17246218   6.349   8.061   4.583 -0.8568  0.1012 -0.4170
  144MOL   H17346219   6.275   7.827   4.543 -0.0483  2.3731 -2.4102
  144MOL   H17446220   6.086   7.733   4.661 -0.1965 -0.8431  2.6544
  144MOL   H17546221   5.984   7.856   4.853  1.2323 -0.8506  0.4433
  144MOL   H17646222   6.225   8.163   5.009  0.1033 -2.1720 -0.9065
  144MOL   H17746223   6.176   8.017   5.088 -1.4809 -0.3144  0.0956
  144MOL   C17846224   6.091   8.190   5.186 -0.5936  0.0225  0.1829
  144MOL   C17946225   6.016   8.320   5.153  0.4405  0.2900 -0.1567
  144MOL   C18046226   5.890   8.351   5.199 -0.0552 -0.1517  0.6737
  144MOL  Cl18146227   5.791   8.250   5.302 -0.2436  0.1952 -0.0382
  144MOL   C18246228   5.820   0.037   5.143 -0.2087 -0.3663 -0.2987
  144MOL   C18346229   5.880   0.126   5.050 -0.4571  0.1148  0.2830
  144MOL   C18446230   6.018   0.095   5.012 -0.6444 -0.6014 -0.5604
  144MOL   C18546231   6.084   8.401   5.060  0.6077 -0.1146 -0.3879
  144MOL   C18646232   6.194   8.216   5.304 -0.9991  0.1913  0.4436
  144MOL   H18746233   6.020   8.123   5.234  1.0875 -2.6719 -0.9719
  144MOL   H18846234   5.718   0.058   5.174 -0.1754  2.0632 -1.6657
  144MOL   H18946235   5.826   0.204   4.998 -0.7343  0.0011  0.4035
  144MOL   H19046236   6.067   0.149   4.931  1.8716 -0.9851  0.6798
  144MOL   H19146237   6.184   8.370   5.033  1.2220  2.1757 -0.8452
  144MOL   H19246238   6.164   8.315   5.337 -0.7139 -0.2377  2.0330
  144MOL   H19346239   6.298   8.224   5.272 -0.4946  2.0822  2.4552
  144MOL   C19446240   6.177   8.121   5.425  0.1505  0.8318 -0.2495
  144MOL   C19546241   6.190   8.201   5.552 -0.0899  0.0053  0.8158
  144MOL   C19646242   6.084   8.243   5.639 -1.1428  0.1146 -0.2124
  144MOL  Cl19746243   5.923   8.224   5.581  0.2694  0.1540 -0.0277
  144MOL   C19846244   6.116   8.304   5.764  0.0160 -0.2075 -0.1108
  144MOL   C19946245   6.250   8.323   5.807  0.2039  0.8137  0.3240
  144MOL   C20046246   6.351   8.280   5.722 -0.2884 -0.3989 -0.9181
  144MOL   C20146247   6.321   8.227   5.596 -0.5628 -0.0911 -0.0120
  144MOL   C20246248   6.253   7.987   5.427  0.6476  0.0437 -0.1613
  144MOL   H20346249   6.076   8.080   5.428  1.1584 -1.7871 -0.7383
  144MOL   H20446250   6.034   8.327   5.830  0.4789 -1.5299  0.9509
  144MOL   H20546251   6.274   8.363   5.904 -1.7038  0.2601  1.0518
  144MOL   H20646252   6.452   8.281   5.761 -1.2976 -3.2054  1.9628
  144MOL   H20746253   6.400   8.197   5.529 -0.7027  0.2040 -0.3135
  144MOL   H20846254   6.357   7.999   5.396 -0.2765  1.1904 -2.9511
  144MOL   H20946255   6.216   7.934   5.339 -1.3577  2.0992 -0.6257
  144MOL   C21046256   6.225   7.898   5.547  0.1510 -0.0322 -0.8759
  144MOL   C21146257   6.312   7.931   5.675 -0.1899 -0.3860  0.2161
  144MOL   C21246258   6.255   7.936   5.801  0.6627 -0.5035 -0.1296
  144MOL  Cl21346259   6.082   7.936   5.830 -0.1035 -0.2086  0.0019
  144MOL   C21446260   6.340   7.942   5.914  0.4107 -0.3904  0.3954
  144MOL   C21546261   6.481   7.936   5.898  0.0754  0.0757 -0.0871
  144MOL   C21646262   6.537   7.949   5.768 -0.3076  0.7149 -0.3937
  144MOL   C21746263   6.452   7.938   5.659  0.1637  0.1339  0.2816
  144MOL   C21846264   6.221   7.743   5.510  0.8896  0.7779  0.1167
  144MOL   H21946265   6.119   7.920   5.563 -0.5100  0.2862 -5.1135
  144MOL   H22046266   6.291   7.933   6.009 -1.0421  1.4011 -0.1503
  144MOL   H22146267   6.539   7.927   5.989  0.9945  1.5313 -0.5267
  144MOL   H22246268   6.644   7.943   5.755 -0.3530 -0.6415 -0.2473
  144MOL   H22346269   6.496   7.917   5.562 -1.7362 -1.6784 -0.2132
  144MOL   H22446270   6.234   7.687   5.603  1.6912 -1.5120 -1.3177
  144MOL   H22546271   6.312   7.729   5.451  1.1170 -0.7264  0.7845
  144MOL   C22646272   6.108   7.689   5.425 -0.5813 -0.1708 -0.4820
  144MOL   C22746273   5.976   7.747   5.478 -0.0516 -0.1373  0.0166
  144MOL   C22846274   5.880   7.796   5.388  0.8029  0.1622 -0.1869
  144MOL  Cl22946275   5.903   7.786   5.216  0.0973 -0.0365  0.0545
  144MOL   C23046276   5.758   7.846   5.442  0.1199  0.4246 -0.1275
  144MOL   C23146277   5.738   7.860   5.580 -0.0748  0.6431 -0.3653
  144MOL   C23246278   5.824   7.802   5.668  0.0568 -0.1364 -0.3196
  144MOL   C23346279   5.939   7.746   5.617 -0.7760  0.0671 -0.1635
  144MOL   C23446280   6.108   7.536   5.414  0.1661  0.4548  0.0321
  144MOL   H23546281   6.113   7.733   5.325 -0.0354 -0.8934 -0.7791
  144MOL   H23646282   5.679   7.886   5.381 -1.2630  0.9125  1.9073
  144MOL   H23746283   5.643   7.887   5.623  0.2037  0.0166  0.6649
  144MOL   H23846284   5.815   7.805   5.776  0.7651 -0.7863 -0.2399
  144MOL   H23946285   6.005   7.711   5.695 -1.4496 -1.0006 -0.0576
  144MOL   H24046286   6.022   7.504   5.355  1.6608 -0.1050 -1.8642
  144MOL   H24146287   6.090   7.485   5.509 -0.7929  1.2686  0.3002
  144MOL   C24246288   6.231   7.471   5.341  0.1959  0.2286  0.0820
  144MOL   C24346289   6.263   7.545   5.216  0.4928  0.0182 -0.1804
  144MOL   C24446290   6.393   7.608   5.202 -0.0128 -0.1088  0.0715
  144MOL  Cl24546291   6.529   7.578   5.308 -0.1533 -0.0110 -0.0641
  144MOL   C24646292   6.419   7.697   5.096 -0.0271 -0.0146 -0.3356
  144MOL   C24746293   6.314   7.727   5.010  0.2079 -0.0812  0.3147
  144MOL   C24846294   6.186   7.657   5.016 -0.7954  0.3894  0.1437
  144MOL   C24946295   6.163   7.565   5.114  0.1710  0.0427  0.3856
  144MOL   C25046296   6.229   7.320   5.311 -0.1981 -0.6574  0.1844
  144MOL   H25146297   6.310   7.477   5.415 -0.6082 -2.0324  1.1707
  144MOL   H25246298   6.515   7.741   5.073  0.0871  0.3102  0.7641
  144MOL   H25346299   6.324   7.807   4.938  1.1350  0.9131  1.5305
  144MOL   H25446300   6.113   7.681   4.940 -0.0612 -0.5654 -0.8623
  144MOL   H25546301   6.066   7.520   5.119  1.0406 -1.7410  1.6674
  144MOL   H25646302   6.294   7.317   5.223 -1.2276  1.2631 -0.6676
  144MOL   H25746303   6.129   7.298   5.274 -0.5389  0.5620  0.3624
  144MOL   C25846304   6.254   7.229   5.434 -0.1187  0.2052 -0.4481
  144MOL   C25946305   6.404   7.239   5.458 -0.6487 -0.4440 -0.7356
  144MOL   C26046306   6.463   7.305   5.569  0.0296  0.3545 -0.3486
  144MOL  Cl26146307   6.368   7.401   5.682 -0.0469  0.2861  0.0806
  144MOL   C26246308   6.603   7.307   5.577 -0.0393  0.2249  0.2178
  144MOL   C26346309   6.682   7.225   5.486  0.3538  0.4772 -0.3543
  144MOL   C26446310   6.629   7.159   5.383 -0.8173 -0.1116  0.2945
  144MOL   C26546311   6.494   7.175   5.363 -0.1218  0.6041 -0.4268
  144MOL   C26646312   6.208   7.084   5.424  0.1132  0.1507 -0.0799
  144MOL   H26746313   6.206   7.279   5.518  1.2536 -0.4743  0.7708
  144MOL   H26846314   6.654   7.355   5.659  1.0054  1.9324 -1.4096
  144MOL   H26946315   6.788   7.215   5.497  0.5549  0.1608 -2.4179
  144MOL   H27046316   6.684   7.108   5.306  0.0795 -0.9860  1.4937
  144MOL   H27146317   6.452   7.128   5.276 -1.3492  1.2907 -0.2168
  144MOL   H27246318   6.255   7.040   5.336  1.4210  1.7578 -0.2211
  144MOL   H27346319   6.100   7.093   5.415  0.3507  0.4079 -3.5104
  144MOL   C27446320   6.247   6.989   5.545 -0.5188 -0.0099  0.3736
  144MOL   C27546321   6.356   6.885   5.519 -1.4522  0.0092  0.8430
  144MOL   C27646322   6.477   6.870   5.595  0.5387  0.3252  0.0086
  144MOL  Cl27746323   6.487   6.942   5.747 -0.0981 -0.2013  0.2792
  144MOL   C27846324   6.581   6.785   5.547  0.5930  0.2187 -0.5629
  144MOL   C27946325   6.575   6.722   5.425  0.0946  0.9793  0.0135
  144MOL   C28046326   6.465   6.736   5.350 -0.5471  0.0677 -0.2186
  144MOL   C28146327   6.354   6.815   5.390 -0.8897 -0.6717  0.2778
  144MOL   C28246328   6.131   6.934   5.628  0.6906  0.6795 -0.1630
  144MOL   H28346329   6.293   7.053   5.621  2.0349 -1.3867  0.0308
  144MOL   H28446330   6.672   6.785   5.606 -0.2928  0.4962  0.8396
  144MOL   H28546331   6.664   6.675   5.388 -0.2478  1.1784 -1.0663
  144MOL   H28646332   6.464   6.693   5.251 -1.0775 -0.8915  0.1898
  144MOL   H28746333   6.280   6.820   5.311 -1.0901  0.3657  0.5126
  144MOL   H28846334   6.176   6.861   5.695 -3.8570 -2.5886 -0.3944
  144MOL   H28946335   6.067   6.875   5.562  0.9481 -0.7416  0.8338
  144MOL   C29046336   6.042   7.020   5.715 -0.7866  0.5984  0.1241
  144MOL   C29146337   6.118   7.036   5.850  0.5990 -0.1250  0.3620
  144MOL   C29246338   6.114   6.936   5.948 -0.1555  0.2606 -0.0166
  144MOL  Cl29346339   6.030   6.787   5.943 -0.0796  0.0223  0.2832
  144MOL   C29446340   6.180   6.960   6.068 -0.4558 -0.1682 -0.2583
  144MOL   C29546341   6.245   7.080   6.098 -0.5646 -0.7283  0.2524
  144MOL   C29646342   6.252   7.182   5.995  0.1827 -0.1244  0.5430
  144MOL   C29746343   6.188   7.156   5.874 -0.4533  0.2180  0.3882
  144MOL   C29846344   5.899   6.976   5.721  0.4369  0.5903  0.7507
  144MOL   H29946345   6.037   7.120   5.672 -1.0308  0.3339 -0.4660
  144MOL   H30046346   6.181   6.890   6.150  0.5395 -1.0321 -0.9819
  144MOL   H30146347   6.281   7.092   6.199 -0.4881 -0.1877  0.1622
  144MOL   H30246348   6.308   7.274   6.002 -1.1763  0.7028  0.7667
  144MOL   H30346349   6.187   7.240   5.806  1.7043 -0.0315  0.0335
  144MOL   H30446350   5.888   6.875   5.758 -2.0312  0.0154 -1.3894
  144MOL   H30546351   5.868   6.959   5.618 -0.1710 -0.0170  1.0363
  144MOL   C30646352   5.783   7.052   5.791  0.0068 -0.6696  0.2968
  144MOL   C30746353   5.765   7.191   5.720 -0.1890  0.2585  0.7689
  144MOL   C30846354   5.672   7.214   5.616  0.2314  0.1675  0.1350
  144MOL  Cl30946355   5.540   7.102   5.576 -0.3844  0.0368  0.1214
  144MOL   C31046356   5.677   7.342   5.558  0.4543  1.3355 -0.5550
  144MOL   C31146357   5.770   7.441   5.587 -0.1392 -0.2706 -0.2604
  144MOL   C31246358   5.868   7.418   5.688  0.0952  0.5022 -0.0506
  144MOL   C31346359   5.855   7.295   5.757  0.0422  0.1174 -0.2303
  144MOL   C31446360   5.794   7.057   5.945 -0.1384  0.4972  0.1568
  144MOL   H31546361   5.688   7.002   5.779 -0.1772 -0.8597  2.3690
  144MOL   H31646362   5.610   7.366   5.477 -0.5534 -1.2323 -0.5012
  144MOL   H31746363   5.776   7.533   5.530  0.0794 -0.2450 -0.1977
  144MOL   H31846364   5.951   7.483   5.713  1.2375 -1.4237  1.3628
  144MOL   H31946365   5.937   7.281   5.826  0.2376  0.0415 -0.4788
  144MOL   H32046366   5.872   7.128   5.975  0.4291 -0.4842  1.0617
  144MOL   H32146367   5.810   6.955   5.980 -0.0498  1.2518  2.4265
  144MOL   H32246368   5.702   7.097   5.988  0.3708 -0.2079  1.9699
  145MOL     C146369   7.721   3.597   8.152  1.1955  0.2372 -0.0420
  145MOL     C246370   7.689   3.493   8.267 -0.1676 -0.4777  0.0511
  145MOL     C346371   7.744   3.511   8.399  0.0358  0.9910  0.2447
  145MOL    Cl446372   7.857   3.634   0.016 -0.0533  0.0166 -0.0461
  145MOL     C546373   7.711   3.414   0.075  0.1031  0.3842 -0.5430
  145MOL     C646374   7.625   3.304   0.045 -0.0741  0.0433  0.8843
  145MOL     C746375   7.576   3.290   8.332  0.3352 -0.6377  0.5297
  145MOL     C846376   7.613   3.382   8.234  0.0435 -0.1617  0.3093
  145MOL     C946377   7.618   3.601   8.038 -0.1340  0.1577 -0.2274
  145MOL    H1046378   7.731   3.698   8.193 -1.9848  0.0239  1.3774
  145MOL    H1146379   7.760   3.417   0.171  1.8264  2.6694 -1.4612
  145MOL    H1246380   7.598   3.231   0.119 -1.0419  0.5647  1.0545
  145MOL    H1346381   7.517   3.201   8.313 -0.5785  0.0471  0.1450
  145MOL    H1446382   7.570   3.367   8.136 -0.5043 -0.6401  0.6188
  145MOL    H1546383   7.522   3.608   8.088  0.0939  0.4623  0.1713
  145MOL    H1646384   7.608   3.517   7.971 -3.2527  1.0146 -0.8998
  145MOL    H1746385   7.819   3.572   8.113  0.4503 -0.4201 -1.5275
  145MOL    C1846386   7.635   3.732   7.956 -0.8675  0.0206  0.3748
  145MOL    C1946387   7.653   3.865   8.034  0.0036  0.5515  0.0055
  145MOL    C2046388   7.773   3.942   8.037  0.7098  0.2736  0.6027
  145MOL   Cl2146389   7.907   3.889   7.947  0.2566 -0.4893 -0.4482
  145MOL    C2246390   7.779   4.069   8.094  0.3020 -0.5232 -0.2292
  145MOL    C2346391   7.664   4.120   8.160 -0.1623 -0.3102 -0.3669
  145MOL    C2446392   7.551   4.034   8.181 -0.0392 -0.2977 -0.2248
  145MOL    C2546393   7.541   3.912   8.114 -0.3570 -0.1644 -0.1158
  145MOL    C2646394   7.520   3.745   7.852  0.1827 -0.7466  0.1938
  145MOL    H2746395   7.719   3.715   7.889 -0.3430 -0.0435  1.0355
  145MOL    H2846396   7.873   4.123   8.092  1.8098 -3.0408  0.0594
  145MOL    H2946397   7.672   4.211   8.216 -1.3674 -0.9797  0.9134
  145MOL    H3046398   7.472   4.059   8.251  1.4204  0.8374  1.0414
  145MOL    H3146399   7.450   3.857   8.133 -0.6213  0.3744  0.1966
  145MOL    H3246400   7.426   3.749   7.906  0.0246  1.0389 -0.1691
  145MOL    H3346401   7.522   3.653   7.794  0.1754 -0.1617 -0.7614
  145MOL    C3446402   7.532   3.861   7.748 -0.6710 -0.0104 -0.4594
  145MOL    C3546403   7.450   3.982   7.789  0.0850  0.0453 -0.3237
  145MOL    C3646404   7.497   4.119   7.794  0.3269 -0.4854 -0.2233
  145MOL   Cl3746405   7.656   4.162   7.738 -0.1021 -0.3072  0.0592
  145MOL    C3846406   7.414   4.230   7.824 -0.8733  0.5378  0.3112
  145MOL    C3946407   7.279   4.197   7.862  0.2902 -0.8039  0.6374
  145MOL    C4046408   7.225   4.067   7.858 -0.1697  0.4623  0.1044
  145MOL    C4146409   7.309   3.963   7.820 -0.0804 -0.2862 -0.4053
  145MOL    C4246410   7.492   3.823   7.605 -0.3074 -0.4732 -0.0012
  145MOL    H4346411   7.631   3.907   7.750  0.2669 -1.9661 -0.4737
  145MOL    H4446412   7.456   4.329   7.820  1.1796 -0.2454  1.7898
  145MOL    H4546413   7.217   4.282   7.887 -0.8670 -0.8575 -1.8881
  145MOL    H4646414   7.122   4.043   7.877 -0.0948 -0.8429 -1.0317
  145MOL    H4746415   7.272   3.862   7.812  1.9392 -1.0314 -0.6493
  145MOL    H4846416   7.485   3.911   7.542 -0.5565 -1.1764 -0.9587
  145MOL    H4946417   7.390   3.785   7.594  0.7759 -3.4898 -0.2404
  145MOL    C5046418   7.584   3.716   7.538  0.2037 -0.2303  0.4394
  145MOL    C5146419   7.734   3.738   7.555  0.1377  0.1127 -0.1997
  145MOL    C5246420   7.818   3.632   7.584 -0.6483  0.0918  0.0749
  145MOL   Cl5346421   7.760   3.478   7.631  0.1975 -0.0033 -0.4350
  145MOL    C5446422   7.961   3.657   7.578  0.7733  0.1949 -0.1092
  145MOL    C5546423   8.013   3.785   7.555 -0.1631 -0.0060  0.2212
  145MOL    C5646424   7.922   3.890   7.531 -0.8891 -0.3983 -0.4556
  145MOL    C5746425   7.786   3.866   7.523  0.5615 -0.5927  0.4573
  145MOL    C5846426   7.553   3.707   7.385  0.1200 -0.3070 -0.8849
  145MOL    H5946427   7.559   3.626   7.595 -0.7727 -0.6103 -0.5971
  145MOL    H6046428   8.031   3.577   7.599  2.8253  2.2220  1.0781
  145MOL    H6146429   8.118   3.810   7.553  0.3194 -1.9714 -3.2363
  145MOL    H6246430   7.950   3.992   7.510 -2.1179 -0.0301 -0.3450
  145MOL    H6346431   7.730   3.950   7.484  1.9208 -0.0393 -0.3560
  145MOL    H6446432   7.639   3.653   7.345  1.6450  0.1982  1.5839
  145MOL    H6546433   7.565   3.807   7.344 -1.0416 -0.1940 -0.9556
  145MOL    C6646434   7.420   3.636   7.354  0.8247  0.1515 -0.3650
  145MOL    C6746435   7.424   3.492   7.404  0.1414  0.5167  0.2004
  145MOL    C6846436   7.342   3.441   7.512  0.2031  0.0696 -0.0158
  145MOL   Cl6946437   7.219   3.544   7.580  0.2649  0.0603  0.1374
  145MOL    C7046438   7.350   3.308   7.549 -0.2151  0.0125  0.5164
  145MOL    C7146439   7.443   3.220   7.488 -0.5192  0.0429  0.7045
  145MOL    C7246440   7.526   3.273   7.386  0.2355  0.0345 -0.2488
  145MOL    C7346441   7.514   3.397   7.332  0.4223 -0.0325  0.1695
  145MOL    C7446442   7.391   3.633   7.198 -0.0221 -0.3362 -0.1479
  145MOL    H7546443   7.341   3.689   7.407  0.0235 -1.9007  0.5182
  145MOL    H7646444   7.278   3.268   7.619  0.2237  0.9681  1.5016
  145MOL    H7746445   7.455   3.117   7.516 -0.8011  0.2915  1.7728
  145MOL    H7846446   7.603   3.218   7.335  1.9516  1.0160  1.2363
  145MOL    H7946447   7.574   3.427   7.248  0.5903  0.3056  0.4079
  145MOL    H8046448   7.309   3.563   7.180 -1.8661  2.1585 -1.8193
  145MOL    H8146449   7.471   3.594   7.135 -0.9293 -0.1767 -1.4261
  145MOL    C8246450   7.352   3.769   7.136 -0.2527  0.5899  0.2615
  145MOL    C8346451   7.244   3.830   7.232 -0.2007 -0.5539 -0.4181
  145MOL    C8446452   7.264   3.956   7.303 -0.2076  1.0877  0.7826
  145MOL   Cl8546453   7.417   4.042   7.285  0.3411  0.0275 -0.2703
  145MOL    C8646454   7.178   3.991   7.410 -0.2948 -0.3977 -0.2151
  145MOL    C8746455   7.059   3.918   7.431  0.2537 -0.1495 -0.0824
  145MOL    C8846456   7.033   3.802   7.361  0.2478 -0.5585  0.4365
  145MOL    C8946457   7.117   3.764   7.256 -0.5742  0.6031 -0.3672
  145MOL    C9046458   7.306   3.757   6.987 -0.3058  0.9469 -0.4878
  145MOL    H9146459   7.434   3.841   7.145 -0.5468  1.1981 -1.6972
  145MOL    H9246460   7.188   4.079   7.472 -2.2049  0.0746 -0.5487
  145MOL    H9346461   6.996   3.952   7.511 -0.3035  0.2380 -0.6800
  145MOL    H9446462   6.951   3.741   7.396  0.7098 -0.5410  1.5620
  145MOL    H9546463   7.093   3.672   7.205 -1.7716  0.1267  1.0322
  145MOL    H9646464   7.252   3.849   6.965 -1.8963 -0.0717 -0.9112
  145MOL    H9746465   7.237   3.672   6.986 -0.3418  0.9745 -1.5905
  145MOL    C9846466   7.418   3.734   6.886  0.8830  0.3211 -0.1619
  145MOL    C9946467   7.532   3.839   6.887 -0.0318  0.1460 -0.5309
  145MOL   C10046468   7.668   3.815   6.923 -0.2399  0.5202  0.4973
  145MOL  Cl10146469   7.721   3.664   6.990  0.3386 -0.4576 -0.1315
  145MOL   C10246470   7.760   3.918   6.917  0.4860  0.7152 -0.5125
  145MOL   C10346471   7.724   4.047   6.866 -0.4391  0.2956  0.7113
  145MOL   C10446472   7.592   4.069   6.816  0.3477 -0.3268 -0.3090
  145MOL   C10546473   7.494   3.972   6.840  1.0055 -0.2936  0.0018
  145MOL   C10646474   7.361   3.705   6.742  0.3370 -0.5064 -0.0410
  145MOL   H10746475   7.462   3.640   6.921 -0.3121 -1.2706 -2.8299
  145MOL   H10846476   7.862   3.897   6.942  0.1725  1.2931  1.3266
  145MOL   H10946477   7.795   4.128   6.863  0.0991 -0.1547  1.3542
  145MOL   H11046478   7.578   4.167   6.774  0.0682 -0.5009 -0.6249
  145MOL   H11146479   7.394   3.996   6.807 -0.4456  1.4537  5.1953
  145MOL   H11246480   7.437   3.718   6.665  0.5841 -0.5542  0.1933
  145MOL   H11346481   7.289   3.781   6.712 -0.7449 -1.4705  0.0959
  145MOL   C11446482   7.297   3.559   6.723  0.2034 -0.4410  0.4978
  145MOL   C11546483   7.394   3.455   6.774 -0.1665  0.2884 -0.4831
  145MOL   C11646484   7.340   3.364   6.875  0.2160 -0.5456 -0.3410
  145MOL  Cl11746485   7.178   3.365   6.935  0.1133 -0.0174 -0.1931
  145MOL   C11846486   7.426   3.266   6.925  0.3371 -0.1490 -0.3742
  145MOL   C11946487   7.562   3.268   6.892 -0.9043 -0.6503 -0.2982
  145MOL   C12046488   7.613   3.356   6.800  0.0236 -0.3851  0.1969
  145MOL   C12146489   7.530   3.450   6.738  0.1764 -0.6352  0.5764
  145MOL   C12246490   7.264   3.520   6.578 -0.8043 -0.3806 -0.2101
  145MOL   H12346491   7.204   3.560   6.780  0.8554 -0.8285  1.5947
  145MOL   H12446492   7.391   3.187   6.990 -2.0948  1.1791 -0.0350
  145MOL   H12546493   7.627   3.190   6.928  2.2016  2.3789  0.8945
  145MOL   H12646494   7.719   3.347   6.783 -0.0485 -1.0615  0.0813
  145MOL   H12746495   7.575   3.526   6.676 -1.7536 -0.4103 -0.5885
  145MOL   H12846496   7.257   3.411   6.581  0.0415 -0.4093  1.3336
  145MOL   H12946497   7.350   3.548   6.517 -0.9924  0.7322  0.0226
  145MOL   C13046498   7.144   3.583   6.508 -0.5200 -0.6526  0.3113
  145MOL   C13146499   7.067   3.468   6.442 -1.1150  0.0844  0.6533
  145MOL   C13246500   6.942   3.417   6.488  0.1049  0.5596 -0.7033
  145MOL  Cl13346501   6.876   3.478   6.640  0.1881  0.1056  0.0051
  145MOL   C13446502   6.877   3.308   6.427 -0.7781 -0.8507  0.3760
  145MOL   C13546503   6.927   3.255   6.309 -0.3033  1.1116 -0.5637
  145MOL   C13646504   7.048   3.308   6.253 -0.2469 -0.2721  0.4186
  145MOL   C13746505   7.117   3.407   6.325  0.4387 -0.1253 -0.1220
  145MOL   C13846506   7.195   3.701   6.415  0.3754  0.2787 -0.1915
  145MOL   H13946507   7.080   3.621   6.588  2.3158 -0.3203  2.5301
  145MOL   H14046508   6.792   3.266   6.477 -0.2508 -1.3200  0.8802
  145MOL   H14146509   6.873   3.176   6.258 -0.1697  0.5243  0.2031
  145MOL   H14246510   7.093   3.276   6.160  0.8592 -0.4142  0.9890
  145MOL   H14346511   7.211   3.444   6.287 -0.0155  0.2621 -0.8824
  145MOL   H14446512   7.255   3.645   6.343 -0.7732  0.3877 -1.2630
  145MOL   H14546513   7.266   3.758   6.474  0.7687  0.2815 -0.6604
  145MOL   C14646514   7.092   3.800   6.347  0.2515  0.1612  0.1447
  145MOL   C14746515   6.953   3.736   6.318 -0.0064 -0.4433 -0.3644
  145MOL   C14846516   6.842   3.747   6.402  0.2241 -0.2255 -0.0500
  145MOL  Cl14946517   6.847   3.825   6.561 -0.2648  0.0207  0.2856
  145MOL   C15046518   6.723   3.675   6.376 -0.3652 -0.2012  0.2015
  145MOL   C15146519   6.720   3.589   6.265  0.1342 -0.2355  0.0038
  145MOL   C15246520   6.827   3.582   6.176 -0.1373  0.1930 -0.1674
  145MOL   C15346521   6.944   3.657   6.203  0.5656  0.0391  0.1197
  145MOL   C15446522   7.149   3.871   6.226  0.6914  0.8440  0.3911
  145MOL   H15546523   7.074   3.876   6.423  0.3421  0.6937 -0.3713
  145MOL   H15646524   6.641   3.683   6.446  1.1322 -0.1385  1.9857
  145MOL   H15746525   6.631   3.537   6.233  0.4640 -0.3329 -0.7664
  145MOL   H15846526   6.816   3.528   6.083 -1.1955 -1.1448  0.7209
  145MOL   H15946527   7.023   3.635   6.133 -1.1202 -3.6636 -0.7485
  145MOL   H16046528   7.084   3.925   6.157 -0.6080 -0.8033  0.2891
  145MOL   H16146529   7.190   3.795   6.160 -0.1817 -0.0085  0.8244
  145MOL   C16246530   7.261   3.963   6.254  0.2253 -0.6301  0.1092
  145MOL   C16346531   7.224   4.087   6.330  0.9599 -0.4916 -0.2738
  145MOL   C16446532   7.295   4.130   6.449 -0.2159  0.4505  0.4127
  145MOL  Cl16546533   7.419   4.035   6.523 -0.4715  0.1117  0.4819
  145MOL   C16646534   7.262   4.250   6.510 -0.4959 -0.1484 -0.4948
  145MOL   C16746535   7.156   4.328   6.464 -0.1697  0.2673 -0.1227
  145MOL   C16846536   7.078   4.280   6.359  0.5423 -0.2756  0.7584
  145MOL   C16946537   7.104   4.159   6.294 -0.3647 -0.1397  0.7611
  145MOL   C17046538   7.351   4.002   6.127  0.4016 -0.4123 -0.1162
  145MOL   H17146539   7.332   3.911   6.317  0.5111 -1.0112 -0.5203
  145MOL   H17246540   7.326   4.289   6.589 -0.4745 -0.8298 -0.1783
  145MOL   H17346541   7.128   4.425   6.501 -3.0371 -0.0788 -1.2181
  145MOL   H17446542   7.011   4.349   6.311  0.2778 -0.2745  1.1250
  145MOL   H17546543   7.040   4.146   6.208 -1.2763  2.4061  1.0099
  145MOL   H17646544   7.410   4.089   6.155 -0.5719  0.3132 -0.3079
  145MOL   H17746545   7.281   4.042   6.053  0.1724  0.2041  0.4247
  145MOL   C17846546   7.439   3.895   6.058 -0.1095  0.1987 -0.3314
  145MOL   C17946547   7.511   3.813   6.163 -0.7104  0.0182 -1.0743
  145MOL   C18046548   7.484   3.676   6.196 -0.5846  0.2061 -0.4833
  145MOL  Cl18146549   7.364   3.585   6.115  0.2346 -0.1834  0.1145
  145MOL   C18246550   7.552   3.613   6.302  0.5650  0.5190 -0.3190
  145MOL   C18346551   7.650   3.681   6.375 -0.6052 -0.1439  0.5303
  145MOL   C18446552   7.690   3.813   6.341  0.2120  0.5945  0.1974
  145MOL   C18546553   7.625   3.870   6.230  0.2114 -0.2328 -0.5092
  145MOL   C18646554   7.533   3.951   5.958 -0.0758 -0.1464 -0.3995
  145MOL   H18746555   7.358   3.840   6.012 -0.4975  2.0205 -1.8806
  145MOL   H18846556   7.528   3.512   6.331 -1.0987  1.4536  1.7318
  145MOL   H18946557   7.700   3.628   6.455 -0.7943 -0.5834  0.3549
  145MOL   H19046558   7.770   3.867   6.390  0.8610  1.9309 -2.2192
  145MOL   H19146559   7.653   3.972   6.211  0.3890 -0.2122 -0.1560
  145MOL   H19246560   7.612   3.878   5.938 -0.2111 -0.4996  0.3419
  145MOL   H19346561   7.592   4.036   5.992  0.4950 -0.8305  0.3627
  145MOL   C19446562   7.470   3.986   5.823  0.7704 -0.3075 -0.3164
  145MOL   C19546563   7.395   3.875   5.752 -0.0156  0.2736  0.6112
  145MOL   C19646564   7.282   3.898   5.670 -0.1679 -0.4514  0.3706
  145MOL  Cl19746565   7.228   4.054   5.636  0.0790 -0.1007 -0.0037
  145MOL   C19846566   7.223   3.787   5.611  0.5497  0.1150 -0.3388
  145MOL   C19946567   7.267   3.651   5.630 -0.1809  0.4574  0.1256
  145MOL   C20046568   7.380   3.631   5.710 -0.5413  0.1076  0.9208
  145MOL   C20146569   7.440   3.742   5.763  0.1151  0.3139 -0.3437
  145MOL   C20246570   7.560   4.060   5.716 -0.1475  0.3371 -0.2513
  145MOL   H20346571   7.392   4.058   5.849  0.0491 -1.0810 -0.3504
  145MOL   H20446572   7.147   3.806   5.537 -0.8796  1.1341  1.3624
  145MOL   H20546573   7.212   3.574   5.578 -0.6070  2.0513 -1.8233
  145MOL   H20646574   7.416   3.530   5.724 -2.4755 -0.9857 -1.4738
  145MOL   H20746575   7.523   3.711   5.825 -1.3868 -0.3618  1.3687
  145MOL   H20846576   7.504   4.073   5.624  0.0364  1.5965 -0.1872
  145MOL   H20946577   7.634   3.991   5.674  0.9964  0.4069  1.5928
  145MOL   C21046578   7.627   4.197   5.756  1.0045 -0.2953 -0.0493
  145MOL   C21146579   7.535   4.319   5.737 -0.4826 -0.2030  0.6564
  145MOL   C21246580   7.475   4.386   5.846 -0.2399  0.0038  0.4586
  145MOL  Cl21346581   7.524   4.355   6.014 -0.1316  0.3308 -0.0755
  145MOL   C21446582   7.386   4.491   5.815  0.3488 -0.3891  0.0029
  145MOL   C21546583   7.344   4.519   5.686  0.1028 -0.3000  0.6404
  145MOL   C21646584   7.395   4.447   5.581 -0.6431 -0.4212 -0.2122
  145MOL   C21746585   7.497   4.350   5.604 -0.7096 -0.3219 -0.5807
  145MOL   C21846586   7.764   4.209   5.682  0.1389 -0.3895 -0.3110
  145MOL   H21946587   7.639   4.195   5.864 -0.0616  0.3895  0.0892
  145MOL   H22046588   7.348   4.550   5.897  1.4872 -0.6611  0.7340
  145MOL   H22146589   7.280   4.605   5.669  0.5655  0.3938  2.3391
  145MOL   H22246590   7.349   4.458   5.484  1.4595  0.2451 -1.1621
  145MOL   H22346591   7.541   4.295   5.522  1.3746  0.5938 -0.0994
  145MOL   H22446592   7.801   4.312   5.684  0.3363 -0.4619 -0.1421
  145MOL   H22546593   7.753   4.190   5.576  0.2342 -0.2150 -0.3534
  145MOL   C22646594   7.875   4.127   5.752 -0.1089 -0.1949  0.0584
  145MOL   C22746595   7.899   4.158   5.907 -0.1267 -0.2636 -0.4263
  145MOL   C22846596   7.924   4.057   6.004 -0.0549  0.5462  0.2648
  145MOL  Cl22946597   7.957   3.895   5.951  0.1899  0.1081 -0.3021
  145MOL   C23046598   7.920   4.084   6.142  0.7056  0.4400 -0.5051
  145MOL   C23146599   7.911   4.217   6.186  0.1929  0.5152  0.1480
  145MOL   C23246600   7.884   4.322   6.093  0.0352  0.1781  0.4254
  145MOL   C23346601   7.879   4.292   5.957  0.2992 -0.0856  0.0635
  145MOL   C23446602   8.008   4.140   5.670  0.8252 -0.0246 -0.0030
  145MOL   H23546603   7.837   4.025   5.754  0.4384 -0.4107 -0.5002
  145MOL   H23646604   7.907   4.003   6.213 -0.3739 -0.0012 -1.1916
  145MOL   H23746605   7.897   4.225   6.293 -0.8949  2.1664 -0.1025
  145MOL   H23846606   7.870   4.425   6.124 -0.9977  0.2049 -0.1191
  145MOL   H23946607   7.856   4.375   5.892 -3.4164 -1.8247 -0.9994
  145MOL   H24046608   8.091   4.094   5.723 -0.3565 -0.2981  1.6231
  145MOL   H24146609   8.040   4.244   5.659 -0.2070  0.3271  0.2008
  145MOL   C24246610   8.005   4.074   5.528  0.0822  0.0681  0.2011
  145MOL   C24346611   7.934   3.933   5.535 -0.5562  0.0823 -0.0057
  145MOL   C24446612   7.806   3.909   5.471  0.1998 -0.0481 -0.3974
  145MOL  Cl24546613   7.733   4.018   5.360  0.0481  0.2996  0.2171
  145MOL   C24646614   7.740   3.791   5.500  0.1153  0.5066 -0.0616
  145MOL   C24746615   7.802   3.695   5.593  0.2181  0.1631 -0.4953
  145MOL   C24846616   7.938   3.711   5.645  0.2356  0.0077 -0.2790
  145MOL   C24946617   8.002   3.834   5.611  0.2101 -0.1323 -0.5993
  145MOL   C25046618   8.146   4.063   5.461  0.2525 -0.4656  0.4322
  145MOL   H25146619   7.954   4.150   5.469 -0.2711 -0.3707 -0.0591
  145MOL   H25246620   7.643   3.773   5.456  0.0564 -0.7594  0.5501
  145MOL   H25346621   7.751   3.601   5.609 -2.1752  1.7080  1.3429
  145MOL   H25446622   7.979   3.631   5.705 -0.2408 -1.5420 -1.9705
  145MOL   H25546623   8.092   3.868   5.660 -0.5985  2.3520 -0.7670
  145MOL   H25646624   8.130   3.994   5.378  2.2312 -1.0947  0.5567
  145MOL   H25746625   8.211   4.002   5.523 -0.2440 -1.2865  0.1640
  145MOL   C25846626   8.193   4.203   5.408  0.1386  0.5931  0.0108
  145MOL   C25946627   8.116   4.251   5.281  0.1434 -0.0109 -0.0965
  145MOL   C26046628   8.022   4.359   5.290 -0.4837  0.2627  0.9605
  145MOL  Cl26146629   7.992   4.446   5.432  0.3872 -0.0458  0.0914
  145MOL   C26246630   7.948   4.391   5.173 -0.3310 -0.1577  0.3165
  145MOL   C26346631   7.963   4.326   5.049 -0.8763  0.9972 -0.1321
  145MOL   C26446632   8.064   4.218   5.041  0.4157 -0.4340 -0.7857
  145MOL   C26546633   8.131   4.182   5.157  0.5604  0.2738 -0.3073
  145MOL   C26646634   8.348   4.201   5.383 -0.2996 -0.0754  0.1827
  145MOL   H26746635   8.176   4.280   5.483 -3.0474 -0.7378  0.7373
  145MOL   H26846636   7.883   4.477   5.174 -0.9417 -0.5682 -1.6960
  145MOL   H26946637   7.910   4.368   4.965 -0.5635 -0.1498 -0.9119
  145MOL   H27046638   8.083   4.181   4.941 -1.0220  0.6033 -1.4631
  145MOL   H27146639   8.204   4.102   5.158  0.5787  0.2945  0.4074
  145MOL   H27246640   8.376   4.115   5.321 -1.5192 -1.0155  0.9231
  145MOL   H27346641   8.398   4.197   5.480  0.5790 -0.7957 -0.2826
  145MOL   C27446642   8.406   4.324   5.308 -0.2171  0.4978  0.1407
  145MOL   C27546643   0.134   4.309   5.278  0.5286 -0.3203 -0.5622
  145MOL   C27646644   0.189   4.327   5.147 -0.1981  0.1326 -0.0162
  145MOL  Cl27746645   0.097   4.322   4.999 -0.1639  0.3422 -0.0683
  145MOL   C27846646   0.330   4.341   5.131  0.2930  0.1343 -0.3049
  145MOL   C27946647   0.417   4.338   5.239  0.6739 -0.4248  0.6230
  145MOL   C28046648   0.368   4.316   5.371  0.1853  0.0819  0.6396
  145MOL   C28146649   0.229   4.301   5.390 -0.0361 -0.0666  0.1255
  145MOL   C28246650   8.358   4.465   5.366  0.0217  0.2413 -0.1003
  145MOL   H28346651   8.356   4.326   5.211  0.1705  0.6222 -0.0593
  145MOL   H28446652   0.372   4.342   5.032  0.7709 -1.3359 -0.1306
  145MOL   H28546653   0.524   4.334   5.227  0.7607 -0.3129  1.3464
  145MOL   H28646654   0.435   4.324   5.455  2.4945 -2.3370 -0.9183
  145MOL   H28746655   0.182   4.292   5.487  1.6529 -0.0030  0.9717
  145MOL   H28846656   0.011   4.485   5.443 -1.0937 -0.7802  1.2468
  145MOL   H28946657   8.254   4.467   5.399 -0.0066 -0.9258 -0.0844
  145MOL   C29046658   8.362   4.582   5.271  0.2546  0.0102  0.8514
  145MOL   C29146659   8.363   4.712   5.346 -0.4678  0.3898 -0.1096
  145MOL   C29246660   0.069   4.782   5.381 -0.2461 -0.5350 -0.0321
  145MOL  Cl29346661   0.221   4.724   5.330 -0.4136  0.0926  0.2308
  145MOL   C29446662   0.073   4.891   5.467  0.1620  1.0791 -0.1312
  145MOL   C29546663   8.370   4.936   5.524  0.7888  0.0886 -0.1004
  145MOL   C29646664   8.249   4.872   5.492  0.1128  0.0730 -0.4168
  145MOL   C29746665   8.249   4.765   5.405  0.0173 -0.1995 -0.5938
  145MOL   C29846666   8.270   4.565   5.151 -0.4280 -0.3782 -0.3264
  145MOL   H29946667   0.041   4.569   5.227 -0.4495  1.2117 -1.1691
  145MOL   H30046668   0.167   4.940   5.484  0.9826 -0.5373  0.1010
  145MOL   H30146669   8.376   5.029   5.580  0.3535  1.4726 -2.2963
  145MOL   H30246670   8.153   4.904   5.530 -0.6344 -1.7967 -0.6792
  145MOL   H30346671   8.156   4.711   5.390 -0.1831  0.2368 -0.9400
  145MOL   H30446672   8.173   4.549   5.198 -0.2239 -0.6075  0.0124
  145MOL   H30546673   8.301   4.473   5.101  0.8062 -0.5416  0.7263
  145MOL   C30646674   8.262   4.683   5.059 -0.2784 -0.2854 -0.4632
  145MOL   C30746675   8.136   4.673   4.968  0.1780  0.5269 -0.5464
  145MOL   C30846676   8.013   4.731   5.007 -0.5184  0.5559  0.0453
  145MOL  Cl30946677   8.000   4.794   5.165  0.1420 -0.2025  0.3985
  145MOL   C31046678   7.903   4.728   4.915 -0.0795  0.6704 -0.7798
  145MOL   C31146679   7.912   4.660   4.793 -0.5276 -0.1900  0.4915
  145MOL   C31246680   8.027   4.594   4.762  1.0747 -1.1161  0.3482
  145MOL   C31346681   8.137   4.602   4.848  0.9394  0.9155 -0.5793
  145MOL   C31446682   8.395   4.700   4.979  0.3079 -0.1406  0.3260
  145MOL   H31546683   8.257   4.780   5.108 -1.7911  0.6616 -2.4503
  145MOL   H31646684   7.813   4.778   4.947 -0.9847  0.6142 -3.2037
  145MOL   H31746685   7.831   4.653   4.722 -0.6688 -2.0166  0.8127
  145MOL   H31846686   8.037   4.547   4.665  1.3350 -1.3695  0.4967
  145MOL   H31946687   8.224   4.546   4.817  1.4291  1.0858  0.4866
  145MOL   H32046688   8.410   4.610   4.919  1.1146  0.6051 -0.6038
  145MOL   H32146689   0.061   4.705   5.045  1.9873 -1.6319 -1.6796
  145MOL   H32246690   8.395   4.786   4.913  0.6589  0.0063  0.5178
  146MOL     C146691   5.869   3.899   2.659  0.1998 -0.1325  0.2781
  146MOL     C246692   5.896   3.985   2.790  0.0623  0.0597 -0.0386
  146MOL     C346693   5.876   3.930   2.918 -0.2334 -0.3189 -0.4090
  146MOL    Cl446694   5.824   3.774   2.943 -0.1940  0.0857  0.2208
  146MOL     C546695   5.898   4.011   3.032 -0.2004 -0.1075  0.5370
  146MOL     C646696   5.946   4.145   3.021  0.5003  0.8621 -0.4008
  146MOL     C746697   5.987   4.192   2.889  0.7769  0.4468  0.3195
  146MOL     C846698   5.951   4.114   2.774 -0.3636 -0.0962 -1.1633
  146MOL     C946699   5.951   3.764   2.645  0.3942 -0.3958  0.0477
  146MOL    H1046700   5.762   3.877   2.651  0.7371 -2.5210 -0.7199
  146MOL    H1146701   5.888   3.973   3.133 -0.2415  0.6142  0.8084
  146MOL    H1246702   5.966   4.201   3.111 -2.0565  0.3204  0.5354
  146MOL    H1346703   6.023   4.290   2.861 -0.8776  1.7611  2.6012
  146MOL    H1446704   5.981   4.149   2.676  1.1674 -1.6422 -1.2549
  146MOL    H1546705   5.933   3.720   2.547 -1.3023 -2.2651  1.1664
  146MOL    H1646706   5.895   3.698   2.711  0.0256  0.2584  0.3909
  146MOL    H1746707   5.883   3.958   2.568  2.3277 -1.6000 -0.3753
  146MOL    C1846708   6.102   3.782   2.673 -0.9040 -0.0041 -0.6498
  146MOL    C1946709   6.158   3.885   2.580 -0.3171 -0.4461 -0.1738
  146MOL    C2046710   6.229   3.992   2.628 -0.4571 -0.3544 -0.0544
  146MOL   Cl2146711   6.276   4.020   2.793  0.2452 -0.3373  0.4213
  146MOL    C2246712   6.277   4.090   2.538 -0.0642 -0.4684  0.4924
  146MOL    C2346713   6.253   4.079   2.400  0.0923  0.6110  0.0762
  146MOL    C2446714   6.172   3.977   2.351 -0.6058 -0.3375  0.2320
  146MOL    C2546715   6.130   3.880   2.443  0.0016  0.8744 -0.1295
  146MOL    C2646716   6.176   3.646   2.663  0.4971 -0.2071  0.4161
  146MOL    H2746717   6.106   3.814   2.777 -0.8599 -1.1695 -0.2767
  146MOL    H2846718   6.333   4.179   2.565 -0.7892  0.9264 -2.4095
  146MOL    H2946719   6.288   4.148   2.326 -0.5031  1.5146  0.6236
  146MOL    H3046720   6.135   3.984   2.250 -0.0627  2.8574  0.1919
  146MOL    H3146721   6.070   3.802   2.399  0.8105  0.1919 -0.0423
  146MOL    H3246722   6.182   3.602   2.563  0.7833 -0.3579  0.4987
  146MOL    H3346723   6.111   3.581   2.721  1.3811 -1.5990 -0.1307
  146MOL    C3446724   6.310   3.639   2.739  0.5578  0.6592  0.0650
  146MOL    C3546725   6.424   3.700   2.659 -0.1095 -0.0702  0.6116
  146MOL    C3646726   6.520   3.780   2.727 -0.1645  1.1070  0.1035
  146MOL   Cl3746727   6.525   3.816   2.892 -0.0600 -0.2945 -0.1162
  146MOL    C3846728   6.613   3.852   2.656 -0.2265 -1.1861  0.1077
  146MOL    C3946729   6.615   3.850   2.515 -0.4271 -0.1532  0.3884
  146MOL    C4046730   6.524   3.768   2.446  0.1041 -0.0364  0.5872
  146MOL    C4146731   6.437   3.688   2.518 -0.2612  0.2765 -0.0164
  146MOL    C4246732   6.353   3.494   2.778  0.3890 -0.1503  0.2321
  146MOL    H4346733   6.292   3.695   2.832 -0.5040 -0.3054  0.4532
  146MOL    H4446734   6.674   3.929   2.700 -1.6494  0.0040  0.0020
  146MOL    H4546735   6.684   3.905   2.452 -0.3984 -1.5239 -0.7947
  146MOL    H4646736   6.517   3.758   2.339 -0.5144 -1.6451  0.7658
  146MOL    H4746737   6.374   3.630   2.453 -1.1772  2.7611 -1.4111
  146MOL    H4846738   6.452   3.504   2.823  1.0157  0.2554 -1.2092
  146MOL    H4946739   6.375   3.455   2.679  0.1256  0.1007  0.0744
  146MOL    C5046740   6.255   3.393   2.851  0.1454 -0.1847 -0.7057
  146MOL    C5146741   6.206   3.442   2.987 -0.5011 -0.2339  0.1422
  146MOL    C5246742   6.066   3.455   3.015  0.6703  0.2459 -0.2665
  146MOL   Cl5346743   5.942   3.434   2.896 -0.1294  0.0505 -0.0781
  146MOL    C5446744   6.016   3.513   3.134 -0.5372  0.3065 -0.8172
  146MOL    C5546745   6.107   3.541   3.238 -0.8258 -0.1291  0.4108
  146MOL    C5646746   6.244   3.517   3.219  0.0761  0.0869  0.4506
  146MOL    C5746747   6.296   3.479   3.090  0.2081 -0.3729 -0.6099
  146MOL    C5846748   6.311   3.254   2.863  0.0679  0.3630 -0.6916
  146MOL    H5946749   6.168   3.388   2.786 -0.5449 -1.0344  0.2820
  146MOL    H6046750   5.910   3.535   3.135 -1.1502 -2.3529 -2.7383
  146MOL    H6146751   6.074   3.587   3.330  1.8228  3.3046 -0.2236
  146MOL    H6246752   6.310   3.544   3.300  1.8249 -1.9891 -0.2398
  146MOL    H6346753   6.404   3.476   3.078  0.2935  0.3944 -0.0811
  146MOL    H6446754   6.374   3.250   2.952 -1.4368 -2.2668  0.3116
  146MOL    H6546755   6.367   3.213   2.779 -0.6295 -1.4135 -0.3215
  146MOL    C6646756   6.194   3.155   2.890 -0.0465 -0.5895  0.0205
  146MOL    C6746757   6.235   3.028   2.963  0.1268  0.1407  0.6965
  146MOL    C6846758   6.190   2.997   3.097 -0.1650  0.6026 -0.1750
  146MOL   Cl6946759   6.121   3.106   3.205  0.0646  0.2446  0.1009
  146MOL    C7046760   6.206   2.867   3.141  0.3434  0.0017  0.2650
  146MOL    C7146761   6.277   2.770   3.066 -0.5364  0.0118  0.4390
  146MOL    C7246762   6.323   2.808   2.938  0.2321  0.3452 -0.0680
  146MOL    C7346763   6.300   2.933   2.886  0.6770 -0.2078  0.0031
  146MOL    C7446764   6.103   3.140   2.760 -0.4459 -0.2683  0.3767
  146MOL    H7546765   6.132   3.200   2.968  0.1836 -1.0315  0.4609
  146MOL    H7646766   6.171   2.848   3.241 -1.4916 -0.6422 -0.4771
  146MOL    H7746767   6.290   2.667   3.096 -0.2545 -0.2429 -0.5431
  146MOL    H7846768   6.380   2.736   2.880  0.1052 -1.2270  1.7036
  146MOL    H7946769   6.344   2.946   2.789 -2.3558 -0.3583 -1.4530
  146MOL    H8046770   6.167   3.099   2.682 -0.1854  0.7867  0.0321
  146MOL    H8146771   6.054   3.232   2.731 -1.4988 -0.7202  0.7077
  146MOL    C8246772   5.989   3.029   2.776 -1.1766  0.2470  0.0067
  146MOL    C8346773   5.928   2.990   2.641 -0.4296 -0.6590 -0.0342
  146MOL    C8446774   5.967   2.856   2.596 -0.1658 -0.4706  0.1410
  146MOL   Cl8546775   6.055   2.731   2.679  0.1806  0.4533 -0.0115
  146MOL    C8646776   5.937   2.817   2.462 -0.7802  0.4352  0.0037
  146MOL    C8746777   5.872   2.909   2.378  0.2171  0.2117  0.5978
  146MOL    C8846778   5.832   3.035   2.424 -0.3356 -0.3421 -0.7637
  146MOL    C8946779   5.859   3.079   2.555 -0.4787  0.1493 -0.2678
  146MOL    C9046780   5.881   3.079   2.874  0.0723  0.5106 -0.0950
  146MOL    H9146781   6.034   2.944   2.827 -1.5503 -0.4538 -0.8182
  146MOL    H9246782   5.967   2.721   2.425 -0.2990  0.0543  1.3329
  146MOL    H9346783   5.856   2.885   2.274  1.3916  3.6233 -0.4519
  146MOL    H9446784   5.780   3.101   2.355 -0.5577  0.3634  0.0754
  146MOL    H9546785   5.836   3.180   2.587 -2.3187 -0.6989  1.2243
  146MOL    H9646786   5.820   3.153   2.822  1.4063  1.1696 -0.7496
  146MOL    H9746787   5.909   3.127   2.968 -3.1301 -1.3779  1.9100
  146MOL    C9846788   5.788   2.972   2.918 -0.2312 -0.0232  0.2912
  146MOL    C9946789   5.677   3.029   3.010  0.1082 -0.3370 -0.3975
  146MOL   C10046790   5.546   3.033   2.966 -0.0104 -0.7095 -0.3439
  146MOL  Cl10146791   5.491   2.993   2.813  0.1877  0.1024 -0.3172
  146MOL   C10246792   5.443   3.080   3.053 -0.4538 -0.4511  0.0920
  146MOL   C10346793   5.480   3.109   3.188  0.6164 -0.7514 -0.2284
  146MOL   C10446794   5.615   3.105   3.231  0.3018  0.7996  0.0815
  146MOL   C10546795   5.712   3.064   3.144 -0.1022  0.7804  0.2218
  146MOL   C10646796   5.864   2.853   2.976 -0.2638 -0.4986  0.1399
  146MOL   H10746797   5.739   2.936   2.828 -1.2276  1.7501  0.1130
  146MOL   H10846798   5.342   3.083   3.016 -0.3230 -2.0316 -0.4329
  146MOL   H10946799   5.408   3.131   3.265 -0.7888 -2.7282 -0.9359
  146MOL   H11046800   5.641   3.141   3.330 -0.8607  0.4998  0.4970
  146MOL   H11146801   5.809   3.054   3.191  0.4430  1.6837 -0.6789
  146MOL   H11246802   5.952   2.882   3.034 -0.5360 -0.2136  0.4136
  146MOL   H11346803   5.907   2.790   2.898  0.7752  0.9648 -0.4887
  146MOL   C11446804   5.792   2.749   3.066  0.1243  0.2187  0.0432
  146MOL   C11546805   5.895   2.653   3.127  0.0997  0.7341 -0.0393
  146MOL   C11646806   5.943   2.675   3.259  0.2504 -0.9573  0.2617
  146MOL  Cl11746807   5.895   2.812   3.361 -0.2314  0.5179  0.2839
  146MOL   C11846808   6.048   2.587   3.307 -0.4673  0.2745  0.3614
  146MOL   C11946809   6.110   2.485   3.231  0.5270  0.7238  0.1156
  146MOL   C12046810   6.055   2.466   3.101 -0.0955  0.6395  0.1035
  146MOL   C12146811   5.941   2.544   3.052  0.0615 -0.3045 -0.2371
  146MOL   C12246812   5.673   2.684   2.988 -1.0201  0.0456  0.4499
  146MOL   H12346813   5.751   2.818   3.140  0.2396  1.1466 -0.7594
  146MOL   H12446814   6.082   2.599   3.409  0.5283  0.4029  0.0193
  146MOL   H12546815   6.188   2.419   3.267 -0.2337 -0.9402 -1.2899
  146MOL   H12646816   6.100   2.386   3.043  0.7075  1.7559 -0.8591
  146MOL   H12746817   5.902   2.507   2.959  0.1590  1.6355 -1.0695
  146MOL   H12846818   5.703   2.628   2.900  1.9839  1.3396  0.6022
  146MOL   H12946819   5.613   2.768   2.953 -0.2697  1.3967  2.3222
  146MOL   C13046820   5.577   2.586   3.076  1.1208  0.1018 -0.0067
  146MOL   C13146821   5.470   2.516   2.991 -0.0131 -0.3476  0.1201
  146MOL   C13246822   5.463   2.375   2.976 -0.1298 -1.1813  0.0015
  146MOL  Cl13346823   5.580   2.273   3.048  0.1130 -0.0160 -0.2850
  146MOL   C13446824   5.354   2.312   2.919 -0.3683 -0.1828  0.3164
  146MOL   C13546825   5.250   2.390   2.856  0.2030 -0.0487  0.0511
  146MOL   C13646826   5.265   2.532   2.863  0.0358  0.1169 -0.4058
  146MOL   C13746827   5.375   2.596   2.924  0.9051  0.4410  0.2237
  146MOL   C13846828   5.519   2.669   3.198 -0.1645 -0.1526 -0.4688
  146MOL   H13946829   5.639   2.506   3.116 -2.4715 -2.2713  1.0149
  146MOL   H14046830   5.346   2.205   2.925  0.0829 -0.2396 -0.0711
  146MOL   H14146831   5.162   2.333   2.830 -0.1591 -0.3002  1.7699
  146MOL   H14246832   5.193   2.598   2.817  0.8095 -0.0987 -1.9313
  146MOL   H14346833   5.373   2.704   2.930  2.2745  0.5108 -0.3406
  146MOL   H14446834   5.459   2.751   3.157 -1.2713 -0.4535  0.5255
  146MOL   H14546835   5.591   2.711   3.268  0.7754 -1.3456 -0.6936
  146MOL   C14646836   5.428   2.582   3.290 -0.2196 -0.2312  0.1827
  146MOL   C14746837   5.343   2.680   3.370  0.5011 -0.2854  0.1379
  146MOL   C14846838   5.202   2.705   3.350 -0.1862  0.0556  0.3343
  146MOL  Cl14946839   5.108   2.594   3.252 -0.1810 -0.0945  0.0236
  146MOL   C15046840   5.135   2.811   3.416 -0.0087 -0.6172 -0.3300
  146MOL   C15146841   5.210   2.893   3.508  0.4720  0.3085 -0.4426
  146MOL   C15246842   5.347   2.860   3.532  0.6377  0.3385 -0.2535
  146MOL   C15346843   5.412   2.761   3.466  0.1140 -0.0875  0.1907
  146MOL   C15446844   5.511   2.492   3.386  0.0873  0.2362  0.5033
  146MOL   H15546845   5.366   2.519   3.225  0.0849  1.3284 -1.6643
  146MOL   H15646846   5.028   2.816   3.412 -0.0536 -1.6998 -0.6670
  146MOL   H15746847   5.158   2.968   3.566 -0.2699  1.7046 -2.8911
  146MOL   H15846848   5.402   2.917   3.605 -0.4268  1.1852 -0.0911
  146MOL   H15946849   5.517   2.743   3.481 -0.0025  0.4864  1.7071
  146MOL   H16046850   5.592   2.551   3.429 -0.1032  1.3824 -0.6759
  146MOL   H16146851   5.565   2.418   3.326 -1.0789  0.2752 -0.6113
  146MOL   C16246852   5.443   2.408   3.496 -0.3128 -0.3872  0.2916
  146MOL   C16346853   5.547   2.369   3.602  0.8150  0.0040  0.0415
  146MOL   C16446854   5.549   2.416   3.738  0.0130 -0.2250  0.0457
  146MOL  Cl16546855   5.417   2.508   3.793 -0.0682 -0.0430 -0.3352
  146MOL   C16646856   5.647   2.379   3.833 -0.6850  0.2932  0.3644
  146MOL   C16746857   5.749   2.298   3.786 -0.3420 -0.1170  0.1968
  146MOL   C16846858   5.760   2.253   3.655  0.6273  0.1451  0.0604
  146MOL   C16946859   5.656   2.292   3.564  0.1047  0.1347  0.9326
  146MOL   C17046860   5.357   2.293   3.442  0.2080  0.0626 -0.2093
  146MOL   H17146861   5.367   2.470   3.543 -4.0261 -3.5932 -1.1693
  146MOL   H17246862   5.648   2.408   3.937  0.1584  2.7467 -0.3123
  146MOL   H17346863   5.823   2.276   3.862 -0.1359 -0.3730 -0.0794
  146MOL   H17446864   5.835   2.180   3.631 -1.1186 -1.7213  0.1908
  146MOL   H17546865   5.660   2.247   3.466 -0.6326 -0.8341  1.3454
  146MOL   H17646866   5.411   2.241   3.362  1.4630 -0.1848  0.7784
  146MOL   H17746867   5.276   2.356   3.406 -0.5202 -1.1878 -0.7981
  146MOL   C17846868   5.308   2.187   3.545 -1.1613  0.0891 -0.5353
  146MOL   C17946869   5.395   2.058   3.536 -0.2961 -0.1721 -0.7800
  146MOL   C18046870   5.439   1.995   3.651 -0.9897  0.6892  0.3172
  146MOL  Cl18146871   5.416   2.063   3.814  0.0818  0.1061  0.1603
  146MOL   C18246872   5.511   1.877   3.638 -1.1364  0.2666 -0.4435
  146MOL   C18346873   5.533   1.814   3.514 -0.3472 -0.1257 -0.7914
  146MOL   C18446874   5.476   1.871   3.403 -0.4568  0.1014  0.2691
  146MOL   C18546875   5.412   1.995   3.413 -0.0899  0.8177  0.2374
  146MOL   C18646876   5.154   2.153   3.519 -0.2130  0.2192 -0.6998
  146MOL   H18746877   5.312   2.238   3.641  2.2341 -2.2193  0.6493
  146MOL   H18846878   5.549   1.847   3.735  1.3295 -0.4834 -1.5969
  146MOL   H18946879   5.579   1.716   3.514  0.2129  0.0214  3.2943
  146MOL   H19046880   5.495   1.834   3.304 -1.7274  0.7046 -0.2048
  146MOL   H19146881   5.373   2.045   3.326 -0.3734  0.2136  0.0188
  146MOL   H19246882   5.133   2.055   3.563  1.7713  0.2392  0.3846
  146MOL   H19346883   5.132   2.145   3.412 -2.1568  1.8678 -0.4374
  146MOL   C19446884   5.051   2.258   3.565  0.3896  0.1249 -0.0172
  146MOL   C19546885   5.064   2.306   3.710 -0.0641  0.0875 -0.0088
  146MOL   C19646886   5.047   2.443   3.746 -0.3485 -0.1685 -0.1959
  146MOL  Cl19746887   4.998   2.562   3.631  0.1554  0.0218  0.3203
  146MOL   C19846888   5.072   2.485   3.876 -0.5074  0.1137 -0.5921
  146MOL   C19946889   5.108   2.384   3.972  0.3743 -0.5927 -0.1874
  146MOL   C20046890   5.118   2.248   3.943  0.2313  0.2510 -0.6755
  146MOL   C20146891   5.096   2.208   3.809  0.0311  0.9001 -0.9060
  146MOL   C20246892   4.907   2.209   3.553 -0.5615 -0.0772  0.4875
  146MOL   H20346893   5.070   2.349   3.507  0.9827  0.2531  0.3800
  146MOL   H20446894   5.055   2.588   3.899 -1.4661  0.6017 -3.2596
  146MOL   H20546895   5.117   2.416   4.075 -0.6007  0.1520 -0.3354
  146MOL   H20646896   5.140   2.174   4.018 -0.2072 -1.3434 -2.0740
  146MOL   H20746897   5.106   2.102   3.795  1.0088  0.6215  1.7121
  146MOL   H20846898   4.846   2.288   3.596  1.7208  1.1462  1.5561
  146MOL   H20946899   4.894   2.133   3.630 -0.2030  0.0983  0.7213
  146MOL   C21046900   4.851   2.184   3.412  0.2001  0.3870 -0.0190
  146MOL   C21146901   4.809   2.315   3.338 -0.7006 -0.3118 -0.4841
  146MOL   C21246902   4.877   2.353   3.219  0.5693  0.0098  0.3005
  146MOL  Cl21346903   5.021   2.289   3.142  0.0394  0.4904 -0.2334
  146MOL   C21446904   4.831   2.477   3.161  0.1699 -0.3910  0.4663
  146MOL   C21546905   4.722   2.549   3.204 -0.1570 -0.0216 -0.4512
  146MOL   C21646906   4.645   2.496   3.316 -0.0341  0.0478  0.2354
  146MOL   C21746907   4.699   2.388   3.388 -0.3397  0.1517  0.0817
  146MOL   C21846908   4.736   2.075   3.407 -0.5901 -0.2246  0.3100
  146MOL   H21946909   4.935   2.141   3.358  1.3223 -0.9675  2.6890
  146MOL   H22046910   4.884   2.518   3.076 -1.5720 -0.9499 -0.9060
  146MOL   H22146911   4.689   2.634   3.147  0.8740 -0.1036 -1.1720
  146MOL   H22246912   4.558   2.542   3.361  0.4631  0.8939  0.3573
  146MOL   H22346913   4.651   2.361   3.482  0.2602 -1.1662  0.0228
  146MOL   H22446914   4.703   2.068   3.303  3.6261 -3.5154 -0.9040
  146MOL   H22546915   4.654   2.106   3.472 -2.5662  1.6040 -2.8553
  146MOL   C22646916   4.775   1.937   3.450  0.3423 -0.4450  0.7726
  146MOL   C22746917   4.894   1.878   3.378 -0.3694 -0.2581 -0.2399
  146MOL   C22846918   5.001   1.828   3.456  0.1341 -0.7392  0.6976
  146MOL  Cl22946919   4.992   1.809   3.626 -0.0524 -0.3353 -0.2427
  146MOL   C23046920   5.118   1.785   3.387 -0.2612  0.2890 -0.4289
  146MOL   C23146921   5.135   1.806   3.247  0.0003 -0.5457  0.4108
  146MOL   C23246922   5.021   1.849   3.172 -0.3305  0.7148  0.6526
  146MOL   C23346923   4.903   1.882   3.239  0.1618  0.5339  0.3924
  146MOL   C23446924   4.649   1.843   3.454 -0.3832 -0.0944  0.0064
  146MOL   H23546925   4.800   1.951   3.555  1.6147  0.5012  0.3564
  146MOL   H23646926   5.204   1.754   3.445 -0.5851  0.5910  0.2191
  146MOL   H23746927   5.231   1.794   3.199  1.0420 -0.8380  2.5199
  146MOL   H23846928   5.024   1.872   3.066  0.1106  0.8846  0.7000
  146MOL   H23946929   4.830   1.928   3.175  0.7150  0.4935 -0.2735
  146MOL   H24046930   4.684   1.752   3.502  1.4120  1.5817  2.0072
  146MOL   H24146931   4.629   1.815   3.350  2.6686  1.3776 -1.0593
  146MOL   C24246932   4.518   1.893   3.528 -0.2442 -0.0971 -0.5227
  146MOL   C24346933   4.550   1.967   3.658  0.7905  0.4068 -0.3059
  146MOL   C24446934   4.493   2.094   3.688  0.2204  0.4991 -0.4675
  146MOL  Cl24546935   4.392   2.173   3.581 -0.1848  0.0514  0.4610
  146MOL   C24646936   4.521   2.158   3.812 -0.6987  0.3873  0.0266
  146MOL   C24746937   4.595   2.096   3.910 -0.0458  0.3947 -0.1246
  146MOL   C24846938   4.647   1.966   3.887 -0.2771 -0.9387  0.1791
  146MOL   C24946939   4.620   1.897   3.766 -0.1274  0.0735 -0.0909
  146MOL   C25046940   4.421   1.778   3.560  0.2438 -1.0116  0.4566
  146MOL   H25146941   4.466   1.964   3.464 -0.5859 -0.1733 -0.3306
  146MOL   H25246942   4.494   2.262   3.823 -0.2696  0.5173 -0.1191
  146MOL   H25346943   4.620   2.141   4.005 -0.4413 -0.7191  0.5258
  146MOL   H25446944   4.715   1.923   3.958  1.3702 -0.1044 -0.8632
  146MOL   H25546945   4.668   1.800   3.755  0.5588  0.6582 -2.6402
  146MOL   H25646946   4.336   1.822   3.610  0.2669 -1.7235  1.1385
  146MOL   H25746947   4.477   1.714   3.629  0.3296  1.0510  2.3502
  146MOL   C25846948   4.355   1.694   3.441 -0.5260 -0.1124 -0.3135
  146MOL   C25946949   4.312   1.789   3.327 -0.3511 -0.5422  0.4561
  146MOL   C26046950   4.356   1.771   3.200 -0.7982  0.8437  0.1822
  146MOL  Cl26146951   4.462   1.645   3.150  0.3284  0.1704  0.0750
  146MOL   C26246952   4.319   1.868   3.103 -0.2360  0.4852 -0.8071
  146MOL   C26346953   4.232   1.972   3.126 -1.0162 -0.1732  0.1875
  146MOL   C26446954   4.189   1.986   3.258 -0.1430 -0.0578  0.3300
  146MOL   C26546955   4.221   1.891   3.355 -0.2929  0.1642  0.2947
  146MOL   C26646956   4.232   1.607   3.478  0.3751  0.7799  0.2283
  146MOL   H26746957   4.439   1.629   3.414 -0.0792  1.0811 -1.8878
  146MOL   H26846958   4.348   1.857   2.999 -0.1221  0.0536 -0.7309
  146MOL   H26946959   4.199   2.036   3.045  2.1260  1.6386  0.2677
  146MOL   H27046960   4.125   2.069   3.285 -0.2464  0.6685 -2.0515
  146MOL   H27146961   4.176   1.893   3.453  1.4056 -0.0566  1.1065
  146MOL   H27246962   4.197   1.553   3.390 -1.6036  1.1320  0.7707
  146MOL   H27346963   4.151   1.677   3.501 -1.1030 -0.4453 -1.1052
  146MOL   C27446964   4.254   1.525   3.604  0.1476  0.1099 -0.8950
  146MOL   C27546965   4.325   1.397   3.580 -0.2304  0.2114 -0.4176
  146MOL   C27646966   4.461   1.371   3.621 -0.0200 -0.4279  0.2717
  146MOL  Cl27746967   4.559   1.489   3.697  0.4159  0.0413  0.2746
  146MOL   C27846968   4.512   1.241   3.607 -0.0379  0.3844  0.3455
  146MOL   C27946969   4.436   1.141   3.544  0.5582  0.0218 -0.3533
  146MOL   C28046970   4.310   1.169   3.489 -0.8743  0.6125  0.8762
  146MOL   C28146971   4.251   1.293   3.518  0.8779  0.2159  0.0072
  146MOL   C28246972   4.118   1.508   3.687 -0.1310  0.5252 -1.3271
  146MOL   H28346973   4.311   1.592   3.670 -0.0129 -0.5320 -0.0911
  146MOL   H28446974   4.614   1.215   3.629  0.3424  1.3389 -0.2531
  146MOL   H28546975   4.483   1.046   3.522  0.1492 -0.1522 -0.4994
  146MOL   H28646976   4.260   1.090   3.436  1.9113 -1.4442  1.1898
  146MOL   H28746977   4.157   1.314   3.471  1.0107  1.8381  0.4309
  146MOL   H28846978   4.059   1.465   3.606 -0.1958 -1.4650 -0.2333
  146MOL   H28946979   4.083   1.604   3.727 -1.4900 -0.3089 -0.4759
  146MOL   C29046980   4.131   1.414   3.807  0.3481 -0.3398 -0.2755
  146MOL   C29146981   3.994   1.357   3.843 -0.1682  0.0463 -0.1129
  146MOL   C29246982   3.966   1.219   3.826  0.0194  0.2362 -0.6219
  146MOL  Cl29346983   4.091   1.098   3.780  0.3051  0.4920  0.0234
  146MOL   C29446984   3.839   1.169   3.858 -0.0604 -0.3483  0.0424
  146MOL   C29546985   3.736   1.251   3.904 -0.6093  1.1363 -0.0348
  146MOL   C29646986   3.760   1.384   3.913 -0.2632 -0.0800  0.2965
  146MOL   C29746987   3.886   1.440   3.882 -0.8220  0.0323  0.4447
  146MOL   C29846988   4.204   1.483   3.922  0.2213  0.0148  0.2662
  146MOL   H29946989   4.198   1.332   3.783 -0.1223 -0.6014 -0.7169
  146MOL   H30046990   3.814   1.064   3.865  1.4964 -0.6197  2.1468
  146MOL   H30146991   3.641   1.206   3.929 -0.5247  1.6229  1.2293
  146MOL   H30246992   3.680   1.454   3.933  1.1061  1.8875 -0.8434
  146MOL   H30346993   3.902   1.546   3.887  2.1730 -0.2537 -1.7289
  146MOL   H30446994   4.141   1.557   3.971  0.8987  2.3925 -2.2771
  146MOL   H30546995   4.292   1.531   3.880  0.6658  0.6104  1.8396
  146MOL   C30646996   4.258   1.400   4.030 -0.1812  0.1808 -0.1591
  146MOL   C30746997   4.313   1.479   4.142  0.1626 -0.7273 -0.2059
  146MOL   C30846998   4.266   1.472   4.277  0.0993 -1.0229  0.2116
  146MOL  Cl30946999   4.120   1.394   4.327  0.2000 -0.0565  0.1270
  146MOL   C31047000   4.341   1.546   4.378  0.9726 -0.1513  0.5108
  146MOL   C31147001   4.459   1.618   4.339  0.5455 -0.1435  0.2008
  146MOL   C31247002   4.507   1.611   4.210  0.4902 -0.3536 -0.0632
  146MOL   C31347003   4.436   1.547   4.113  0.3093 -0.3461  0.4243
  146MOL   C31447004   4.368   1.301   3.983  0.0005  0.3111  0.3971
  146MOL   H31547005   4.178   1.342   4.075  0.2264  0.4870  0.9776
  146MOL   H31647006   4.302   1.551   4.478  0.5623  1.0867  0.3057
  146MOL   H31747007   4.519   1.678   4.405  0.4231  1.5499 -1.1930
  146MOL   H31847008   4.593   1.666   4.177  0.8365 -1.4550 -1.0359
  146MOL   H31947009   4.471   1.551   4.010 -0.2386  0.1414  0.2568
  146MOL   H32047010   4.334   1.221   3.918  0.9880 -1.1863  1.6982
  146MOL   H32147011   4.407   1.250   4.070  0.5236 -0.8506 -0.5101
  146MOL   H32247012   4.453   1.351   3.936  1.9282 -1.3613  2.0512
  147MOL     C147013   7.516   4.855   7.276  0.5173  0.4369  0.1100
  147MOL     C247014   7.620   4.926   7.191  0.5013  0.5818 -0.7761
  147MOL     C347015   7.591   5.037   7.107 -0.7468  0.3061 -0.3345
  147MOL    Cl447016   7.438   5.110   7.109 -0.6845  0.1719  0.0131
  147MOL     C547017   7.693   5.107   7.037 -0.6176  0.1542  0.3653
  147MOL     C647018   7.820   5.050   7.031  0.2289 -0.1051  0.0812
  147MOL     C747019   7.848   4.938   7.115  0.1927 -0.0234  0.1857
  147MOL     C847020   7.747   4.877   7.192 -0.4751  0.3744 -0.2391
  147MOL     C947021   7.471   4.728   7.206 -0.2064  0.0248 -0.5070
  147MOL    H1047022   7.551   4.840   7.378 -0.7229  0.0556  0.4858
  147MOL    H1147023   7.673   5.198   6.982 -0.8752  0.0185  0.2306
  147MOL    H1247024   7.906   5.083   6.975 -0.0687  0.3270 -0.1262
  147MOL    H1347025   7.948   4.898   7.128  0.3248 -0.7236 -2.4916
  147MOL    H1447026   7.764   4.785   7.246 -0.7581 -0.2121 -1.1384
  147MOL    H1547027   7.558   4.662   7.204  0.1949  0.3747  2.7051
  147MOL    H1647028   7.459   4.741   7.099  0.6925  1.0243 -0.4885
  147MOL    H1747029   7.430   4.920   7.291  2.3651  3.1151 -0.4971
  147MOL    C1847030   7.356   4.648   7.258  0.5677 -0.0248 -0.5802
  147MOL    C1947031   7.372   4.617   7.412 -0.2414 -0.1251  0.3744
  147MOL    C2047032   7.277   4.671   7.505 -1.5608  0.1308  0.3415
  147MOL   Cl2147033   7.156   4.791   7.468  0.3877 -0.3040 -0.1280
  147MOL    C2247034   7.291   4.637   7.647  0.2030 -0.7486  0.3863
  147MOL    C2347035   7.402   4.567   7.693 -0.5144  1.0158 -0.0707
  147MOL    C2447036   7.494   4.514   7.598  0.4122  0.2784 -0.4756
  147MOL    C2547037   7.468   4.527   7.461 -0.0855  1.0378  0.1787
  147MOL    C2647038   7.332   4.517   7.175 -0.4346  0.2851  0.6488
  147MOL    H2747039   7.269   4.712   7.245  0.7312  0.1961 -0.5711
  147MOL    H2847040   7.227   4.682   7.722  0.8496  1.4371 -0.3464
  147MOL    H2947041   7.428   4.553   7.797  1.1926 -0.8879 -0.7278
  147MOL    H3047042   7.579   4.461   7.639 -1.0481 -0.6985  1.3737
  147MOL    H3147043   7.521   4.460   7.396  0.9238  0.8050  1.2214
  147MOL    H3247044   7.382   4.429   7.215  0.4319 -0.2417 -1.5008
  147MOL    H3347045   7.378   4.528   7.076  0.6142 -1.5697  0.9152
  147MOL    C3447046   7.176   4.492   7.147  0.0280  0.1584 -0.2615
  147MOL    C3547047   7.085   4.500   7.269  0.5200 -0.3575 -0.2337
  147MOL    C3647048   6.982   4.599   7.284 -0.3495 -0.9331  0.1652
  147MOL   Cl3747049   6.952   4.720   7.163 -0.2045  0.2236  0.4908
  147MOL    C3847050   6.912   4.605   7.403  0.3307  0.4623 -0.5706
  147MOL    C3947051   6.937   4.507   7.503 -0.1043 -0.1867  0.1621
  147MOL    C4047052   7.035   4.415   7.488  0.0621  0.4854 -0.1809
  147MOL    C4147053   7.114   4.407   7.374 -0.2563  0.4108  0.2978
  147MOL    C4247054   7.158   4.369   7.057  0.2234 -0.3766 -0.1124
  147MOL    H4347055   7.152   4.582   7.089 -2.1670  1.1565  2.1215
  147MOL    H4447056   6.837   4.680   7.421 -1.1076 -1.2117  0.5587
  147MOL    H4547057   6.872   4.504   7.589 -0.3328  1.1590  0.0376
  147MOL    H4647058   7.044   4.342   7.567 -2.9280  2.0267  1.6871
  147MOL    H4747059   7.193   4.337   7.353  1.2137  1.8583  0.8714
  147MOL    H4847060   7.213   4.288   7.105 -1.3712 -2.5585 -1.8834
  147MOL    H4947061   7.227   4.385   6.974  0.5024 -0.2536  0.1406
  147MOL    C5047062   7.016   4.317   7.025  0.4273  0.0631  0.2807
  147MOL    C5147063   7.006   4.175   6.976  0.9727  0.8705 -0.8217
  147MOL    C5247064   6.947   4.061   7.046  0.1118 -0.3486  0.2325
  147MOL   Cl5347065   6.886   4.086   7.207  0.0325 -0.0298  0.1542
  147MOL    C5447066   6.936   3.934   6.986  0.6331  0.2782 -0.8674
  147MOL    C5547067   6.995   3.921   6.856 -0.6291 -0.4497  0.0868
  147MOL    C5647068   7.060   4.030   6.796 -0.2311 -0.4444  0.2729
  147MOL    C5747069   7.078   4.150   6.859 -0.1128 -0.2194 -0.0612
  147MOL    C5847070   6.943   4.425   6.941 -0.3160 -0.1005 -0.0756
  147MOL    H5947071   6.956   4.313   7.115 -0.4839  0.3528 -0.3089
  147MOL    H6047072   6.883   3.853   7.034  1.8941 -0.9409 -1.4797
  147MOL    H6147073   6.985   3.828   6.803 -1.5451 -0.0329 -0.5009
  147MOL    H6247074   7.113   4.019   6.702  0.9491  0.0709  0.8612
  147MOL    H6347075   7.120   4.235   6.806 -0.6014  0.7807  1.1256
  147MOL    H6447076   7.007   4.433   6.853  0.3914 -0.3510  0.4065
  147MOL    H6547077   6.956   4.525   6.980 -0.3768  1.1043 -3.0194
  147MOL    C6647078   6.796   4.388   6.898 -0.2461  0.3885  0.5211
  147MOL    C6747079   6.750   4.485   6.790 -0.2848  0.6951  0.3678
  147MOL    C6847080   6.746   4.445   6.651  0.6891  0.3283  0.2724
  147MOL   Cl6947081   6.775   4.281   6.599 -0.2205  0.3152  0.4832
  147MOL    C7047082   6.710   4.537   6.550 -0.5509 -0.2122 -0.2012
  147MOL    C7147083   6.670   4.669   6.579 -0.1124  0.0708 -0.0941
  147MOL    C7247084   6.672   4.708   6.719 -0.1971 -0.0314  0.2842
  147MOL    C7347085   6.716   4.620   6.815  0.0767  0.1619 -0.4307
  147MOL    C7447086   6.699   4.385   7.020 -0.0066  0.2357 -0.4172
  147MOL    H7547087   6.813   4.288   6.859 -1.0810  1.2175 -2.0685
  147MOL    H7647088   6.708   4.508   6.446  2.7398  2.4301 -1.0913
  147MOL    H7747089   6.640   4.723   6.490 -1.0070 -0.8957 -0.3903
  147MOL    H7847090   6.660   4.808   6.759 -2.5100  0.4752 -1.5573
  147MOL    H7947091   6.720   4.647   6.920 -1.7053  1.6764 -0.7181
  147MOL    H8047092   6.631   4.469   7.006  1.0646  0.9899 -1.1520
  147MOL    H8147093   6.762   4.402   7.108 -0.2519 -0.1284 -0.1709
  147MOL    C8247094   6.609   4.259   7.034  0.2142  0.4568 -0.1420
  147MOL    C8347095   6.538   4.236   6.897 -0.0956  0.6097  0.3548
  147MOL    C8447096   6.536   4.108   6.832 -0.0754 -0.3332  0.9873
  147MOL   Cl8547097   6.623   3.969   6.891  0.0665 -0.2681 -0.2703
  147MOL    C8647098   6.459   4.090   6.714 -0.4052 -0.2140  0.9026
  147MOL    C8747099   6.396   4.203   6.654 -0.1575  0.5174  0.3371
  147MOL    C8847100   6.405   4.328   6.716  0.2511 -0.4316  0.1174
  147MOL    C8947101   6.473   4.346   6.836 -0.0697 -0.4985 -0.1080
  147MOL    C9047102   6.503   4.274   7.145 -0.1864 -0.1779 -0.6442
  147MOL    H9147103   6.673   4.177   7.066  1.2959  1.7675  1.1608
  147MOL    H9247104   6.462   3.986   6.686 -0.1914  0.3660 -1.3357
  147MOL    H9347105   6.348   4.181   6.559 -0.7651 -0.3527  0.8271
  147MOL    H9447106   6.367   4.417   6.669 -4.4960 -2.2513  0.2648
  147MOL    H9547107   6.480   4.448   6.872  1.1672 -0.6987  0.2501
  147MOL    H9647108   6.433   4.349   7.109 -0.9961 -0.7689 -0.3120
  147MOL    H9747109   6.560   4.314   7.230 -0.2750 -1.9029  0.2353
  147MOL    C9847110   6.439   4.142   7.187  0.3951  0.0114 -0.0781
  147MOL    C9947111   6.290   4.150   7.211 -0.6751 -0.2133  0.4314
  147MOL   C10047112   6.204   4.066   7.137  0.0811 -0.1325 -0.8794
  147MOL  Cl10147113   6.271   3.969   7.010 -0.2165  0.0322 -0.3431
  147MOL   C10247114   6.064   4.075   7.168 -0.5752 -0.4711  0.8694
  147MOL   C10347115   6.011   4.163   7.268  0.1783  0.0436  0.2083
  147MOL   C10447116   6.101   4.240   7.340 -0.3247  0.7700  0.0391
  147MOL   C10547117   6.237   4.243   7.302  0.6110  0.3629  0.5856
  147MOL   C10647118   6.501   4.086   7.318  0.1592 -0.0011  0.1163
  147MOL   H10747119   6.471   4.062   7.120 -0.0259  0.6944 -1.0871
  147MOL   H10847120   6.002   4.011   7.107  1.0641 -1.9753  0.7387
  147MOL   H10947121   5.905   4.177   7.286  0.0062 -0.3412 -0.4822
  147MOL   H11047122   6.074   4.312   7.416 -4.4303  1.4394 -1.9083
  147MOL   H11147123   6.306   4.302   7.359  1.4602 -0.7704  0.7485
  147MOL   H11247124   6.463   4.151   7.396  3.6789  0.0130  1.9371
  147MOL   H11347125   6.609   4.101   7.314 -0.1219  1.8134 -0.8308
  147MOL   C11447126   6.472   3.928   7.338  0.2556  0.0627 -0.3535
  147MOL   C11547127   6.481   3.913   7.489 -0.0744 -0.3687  0.0273
  147MOL   C11647128   6.362   3.886   7.560  0.4427  0.4918 -0.4539
  147MOL  Cl11747129   6.208   3.869   7.487  0.6858 -0.0471  0.1136
  147MOL   C11847130   6.368   3.871   7.697 -0.1175  0.0039 -0.2310
  147MOL   C11947131   6.494   3.883   7.761 -0.2853 -0.0918  0.4070
  147MOL   C12047132   6.612   3.922   7.691  0.2184 -0.4903  0.6086
  147MOL   C12147133   6.604   3.933   7.550 -0.0091  0.3582  0.6397
  147MOL   C12247134   6.573   3.844   7.258  0.7135  0.0089 -0.1487
  147MOL   H12347135   6.373   3.908   7.295  0.2914  1.0920 -0.9475
  147MOL   H12447136   6.275   3.859   7.750 -0.4069 -1.3688 -1.0437
  147MOL   H12547137   6.500   3.867   7.867 -1.8640 -2.3829  0.1796
  147MOL   H12647138   6.703   3.925   7.748 -0.4274 -1.5144  1.7191
  147MOL   H12747139   6.691   3.960   7.492 -1.1252  1.5188 -0.5181
  147MOL   H12847140   6.671   3.876   7.294  0.9297 -0.2022 -0.5385
  147MOL   H12947141   6.573   3.875   7.153 -0.1057  2.6941  0.5983
  147MOL   C13047142   6.553   3.691   7.265  0.1032  0.2454  0.5836
  147MOL   C13147143   6.665   3.618   7.184  0.7329 -0.2237 -0.0999
  147MOL   C13247144   6.765   3.535   7.244 -0.2929 -0.6009 -0.2184
  147MOL  Cl13347145   6.806   3.537   7.411  0.3120  0.0959  0.1514
  147MOL   C13447146   6.855   3.467   7.165 -0.5196  0.2096  0.7398
  147MOL   C13547147   6.849   3.475   7.022  0.4501 -0.4305 -0.1904
  147MOL   C13647148   6.755   3.560   6.964  1.2544  0.6499 -0.1453
  147MOL   C13747149   6.658   3.625   7.041 -0.3877 -0.3743 -0.3781
  147MOL   C13847150   6.406   3.643   7.234 -0.1412 -0.2069 -0.0773
  147MOL   H13947151   6.580   3.672   7.369 -2.8970  0.2937  1.4152
  147MOL   H14047152   6.935   3.401   7.196 -0.7756 -1.7010 -2.4485
  147MOL   H14147153   6.906   3.394   6.981  2.5875 -0.6317  3.0458
  147MOL   H14247154   6.742   3.558   6.857 -0.3714  0.9911  0.0307
  147MOL   H14347155   6.579   3.680   6.993 -0.8098 -2.7808 -2.5431
  147MOL   H14447156   6.369   3.689   7.142 -0.2335 -1.2068 -0.5418
  147MOL   H14547157   6.338   3.669   7.314  0.9909 -1.1477  1.2060
  147MOL   C14647158   6.374   3.494   7.193  0.1639 -0.2486 -1.1429
  147MOL   C14747159   6.226   3.481   7.157  0.0679 -0.1760 -0.1103
  147MOL   C14847160   6.190   3.480   7.022 -0.2326 -0.4705  0.2434
  147MOL  Cl14947161   6.303   3.475   6.892 -0.0933 -0.3578  0.7625
  147MOL   C15047162   6.051   3.483   6.990 -0.0568  0.6702 -0.1734
  147MOL   C15147163   5.949   3.475   7.085  0.8787 -0.1768  0.1259
  147MOL   C15247164   5.985   3.470   7.216  0.0369 -0.2976 -0.2274
  147MOL   C15347165   6.122   3.474   7.254  0.1840 -0.4281 -0.1765
  147MOL   C15447166   6.420   3.388   7.301 -1.2037  0.0636 -0.3622
  147MOL   H15547167   6.432   3.484   7.101  0.2076  2.1320 -1.3944
  147MOL   H15647168   6.020   3.474   6.887  3.5418  3.3974 -1.5940
  147MOL   H15747169   5.845   3.459   7.060 -0.1826  3.0192  2.0947
  147MOL   H15847170   5.911   3.456   7.293  0.7940 -1.5289  0.2923
  147MOL   H15947171   6.139   3.476   7.361 -1.2032 -2.3271  0.1155
  147MOL   H16047172   6.337   3.357   7.364 -1.0802  2.0670  0.8236
  147MOL   H16147173   6.478   3.437   7.379 -1.3487 -2.2275  1.2300
  147MOL   C16247174   6.485   3.258   7.238 -0.3390 -0.2235  0.0191
  147MOL   C16347175   6.390   3.184   7.145 -0.4296  0.2988  0.2188
  147MOL   C16447176   6.429   3.154   7.005  0.1525 -0.2132 -0.0207
  147MOL  Cl16547177   6.582   3.191   6.940  0.1048 -0.2728  0.2970
  147MOL   C16647178   6.334   3.080   6.924 -0.5355 -0.3248  0.0670
  147MOL   C16747179   6.211   3.030   6.977 -0.0193  0.4410  0.2322
  147MOL   C16847180   6.168   3.071   7.101 -1.1593 -0.3212 -0.0510
  147MOL   C16947181   6.258   3.140   7.184  0.0861 -0.1994  0.1560
  147MOL   C17047182   6.553   3.174   7.346  0.5575  0.2988  0.5887
  147MOL   H17147183   6.570   3.295   7.179 -0.4797 -0.2016 -0.1694
  147MOL   H17247184   6.372   3.056   6.826  1.7233 -1.1636  1.1011
  147MOL   H17347185   6.143   2.971   6.917  1.2828 -0.3116 -0.5238
  147MOL   H17447186   6.069   3.047   7.137 -0.3075 -0.5500  2.2396
  147MOL   H17547187   6.215   3.161   7.281 -1.7798  0.7685 -0.8423
  147MOL   H17647188   6.480   3.153   7.424 -0.7909  2.1422 -0.1453
  147MOL   H17747189   6.636   3.220   7.398  1.3249 -0.6044  0.1777
  147MOL   C17847190   6.616   3.042   7.284  0.1919  0.1099  0.7072
  147MOL   C17947191   6.571   2.915   7.366 -0.4268  0.1583 -0.4136
  147MOL   C18047192   6.482   2.812   7.310  0.0344 -0.5998  0.0239
  147MOL  Cl18147193   6.421   2.816   7.156  0.1944  0.4777 -0.2197
  147MOL   C18247194   6.440   2.711   7.396 -0.2751  0.8558 -0.0637
  147MOL   C18347195   6.487   2.692   7.528  0.2344 -0.7161  0.0536
  147MOL   C18447196   6.577   2.788   7.579  0.6883 -0.4646  0.1487
  147MOL   C18547197   6.613   2.897   7.501 -0.1998 -0.3148 -0.0946
  147MOL   C18647198   6.764   3.066   7.270  0.2472  0.9056 -0.4148
  147MOL   H18747199   6.583   3.019   7.183  2.9442  1.9442 -0.6670
  147MOL   H18847200   6.369   2.638   7.361 -0.3124  0.7604  0.2157
  147MOL   H18947201   6.458   2.610   7.593 -0.7914 -1.1466 -0.9336
  147MOL   H19047202   6.610   2.785   7.682 -1.3673 -0.1833  0.8384
  147MOL   H19147203   6.665   2.976   7.553 -1.2543  1.5499 -1.7870
  147MOL   H19247204   6.808   3.074   7.370 -0.9257  1.9360  0.0458
  147MOL   H19347205   6.791   3.160   7.222 -0.8380  0.2271 -2.3866
  147MOL   C19447206   6.846   2.958   7.193  0.0611  0.6171  0.5928
  147MOL   C19547207   6.997   2.980   7.216 -0.2436  0.5702 -0.3886
  147MOL   C19647208   7.076   2.891   7.302 -0.6998  0.0055  0.0570
  147MOL  Cl19747209   7.028   2.738   7.368  0.4466 -0.0013  0.4500
  147MOL   C19847210   7.210   2.920   7.326  0.1072 -0.6596 -0.0442
  147MOL   C19947211   7.269   3.037   7.283 -0.0091  0.1319  0.2127
  147MOL   C20047212   7.192   3.131   7.210  0.7325  0.3207  0.6826
  147MOL   C20147213   7.057   3.099   7.172  0.1726  0.7367  0.5076
  147MOL   C20247214   6.811   2.953   7.043  0.0220 -0.0215  0.1212
  147MOL   H20347215   6.818   2.863   7.238 -0.2202 -0.0750 -0.9786
  147MOL   H20447216   7.270   2.860   7.394  1.3716  0.4969 -0.1290
  147MOL   H20547217   7.373   3.055   7.305 -1.1321  3.1343  3.7639
  147MOL   H20647218   7.242   3.219   7.174  0.7613  0.5307  1.2251
  147MOL   H20747219   7.005   3.165   7.105 -1.7831 -2.3922 -1.1760
  147MOL   H20847220   6.841   3.047   6.997 -0.0949  0.3655  0.8399
  147MOL   H20947221   6.702   2.950   7.038  0.0530 -1.1734 -0.0224
  147MOL   C21047222   6.865   2.841   6.957 -0.5640 -0.1694  0.4510
  147MOL   C21147223   6.935   2.896   6.830  0.6121 -0.1112 -0.0301
  147MOL   C21247224   7.073   2.906   6.804 -0.3424 -0.2525  0.5315
  147MOL  Cl21347225   7.189   2.851   6.909  0.1123 -0.1365  0.0571
  147MOL   C21447226   7.121   2.963   6.686  0.8246  0.0722 -0.0978
  147MOL   C21547227   7.037   3.024   6.592  0.1777 -0.4044 -0.4243
  147MOL   C21647228   6.896   3.021   6.615 -0.1867  0.4272 -0.0575
  147MOL   C21747229   6.850   2.967   6.733  0.0331  0.4433 -0.1553
  147MOL   C21847230   6.754   2.729   6.942 -0.8138  0.4483 -0.0596
  147MOL   H21947231   6.947   2.795   7.013 -1.6283  0.8292  2.8971
  147MOL   H22047232   7.227   2.972   6.670  0.3194  2.2636 -2.6817
  147MOL   H22147233   7.075   3.054   6.495  0.1513 -1.1497 -0.6664
  147MOL   H22247234   6.829   3.051   6.536 -1.6077 -0.2535  0.8832
  147MOL   H22347235   6.751   2.984   6.772  0.9587  1.1136  2.0298
  147MOL   H22447236   6.669   2.772   6.889 -1.1205 -1.5375 -1.2156
  147MOL   H22547237   6.719   2.713   7.044  3.2811 -1.2892  1.1656
  147MOL   C22647238   6.790   2.597   6.870 -0.1952  0.1278  0.2617
  147MOL   C22747239   6.890   2.525   6.956 -0.4422  0.4972  0.1672
  147MOL   C22847240   6.845   2.444   7.064 -0.5129  0.0283  0.1166
  147MOL  Cl22947241   6.672   2.424   7.094  0.1405  0.4034 -0.0540
  147MOL   C23047242   6.937   2.401   7.163 -0.0819  0.0307  0.2609
  147MOL   C23147243   7.075   2.423   7.144  0.5436 -0.1093  0.5401
  147MOL   C23247244   7.118   2.486   7.020 -0.1040  0.0684  0.3908
  147MOL   C23347245   7.030   2.543   6.929  0.0059 -0.2705 -0.5212
  147MOL   C23447246   6.819   2.599   6.719 -0.3686  0.7763 -0.0997
  147MOL   H23547247   6.699   2.536   6.872 -0.9551  1.1565 -1.4739
  147MOL   H23647248   6.912   2.346   7.253 -0.5700  0.9319  0.6770
  147MOL   H23747249   7.136   2.365   7.212 -1.0888 -2.5743 -0.0175
  147MOL   H23847250   7.224   2.480   6.996 -0.4253 -0.5963 -0.9226
  147MOL   H23947251   7.060   2.588   6.836 -0.5949 -0.3208 -0.7438
  147MOL   H24047252   6.863   2.505   6.686 -1.3567  0.3726 -0.2749
  147MOL   H24147253   6.894   2.673   6.691  1.6701 -0.8413  0.9590
  147MOL   C24247254   6.705   2.639   6.618  0.0684  0.5591 -0.7358
  147MOL   C24347255   6.584   2.543   6.631  0.3705 -0.2050 -0.5637
  147MOL   C24447256   6.462   2.589   6.681 -0.0006 -0.3859 -0.1486
  147MOL  Cl24547257   6.435   2.748   6.749 -0.3251 -0.1796  0.2071
  147MOL   C24647258   6.350   2.504   6.689 -0.6587 -0.5744  0.1662
  147MOL   C24747259   6.360   2.372   6.641  0.0682 -0.4599  0.0947
  147MOL   C24847260   6.480   2.320   6.600  0.7201 -0.4905  0.5590
  147MOL   C24947261   6.593   2.411   6.595  0.1565  0.7260 -0.1767
  147MOL   C25047262   6.766   2.640   6.473  0.2395  0.9187  0.7879
  147MOL   H25147263   6.674   2.739   6.648 -1.6589 -0.0804 -0.3677
  147MOL   H25247264   6.256   2.537   6.730  1.0207  2.4742  1.7449
  147MOL   H25347265   6.272   2.309   6.645  0.1806 -0.5111  1.9383
  147MOL   H25447266   6.482   2.221   6.559  0.6195  0.5070 -1.9142
  147MOL   H25547267   6.690   2.381   6.558  0.3916  2.0526 -0.6624
  147MOL   H25647268   6.830   2.553   6.462  0.2968  1.1706 -0.8839
  147MOL   H25747269   6.842   2.717   6.470  0.7467  0.5001  2.2439
  147MOL   C25847270   6.667   2.648   6.347 -0.0673 -0.3207 -0.5421
  147MOL   C25947271   6.754   2.612   6.227 -0.3753 -0.0799 -0.8708
  147MOL   C26047272   6.762   2.479   6.173  0.3933  0.0012 -0.7262
  147MOL  Cl26147273   6.672   2.352   6.244  0.1829 -0.0101 -0.0207
  147MOL   C26247274   6.846   2.441   6.072 -0.0863 -0.0626  0.2484
  147MOL   C26347275   6.928   2.540   6.016  0.0933 -0.0653  0.1444
  147MOL   C26447276   6.913   2.674   6.048  0.9360  0.6272  0.2009
  147MOL   C26547277   6.831   2.709   6.156  0.4144 -0.7855  0.0246
  147MOL   C26647278   6.593   2.778   6.337  0.0083 -0.0170  0.2613
  147MOL   H26747279   6.594   2.569   6.365  0.2428 -0.0982  1.9762
  147MOL   H26847280   6.860   2.339   6.040 -0.1030  0.6729 -2.1575
  147MOL   H26947281   7.009   2.516   5.949 -0.5117 -0.8593 -0.2940
  147MOL   H27047282   6.968   2.750   5.996  0.2443  1.7394  1.0868
  147MOL   H27147283   6.824   2.811   6.190  0.2897 -1.2735  1.4790
  147MOL   H27247284   6.661   2.856   6.303 -1.2072  0.8146 -0.3068
  147MOL   H27347285   6.561   2.811   6.436 -2.1168 -0.2600 -0.3216
  147MOL   C27447286   6.461   2.783   6.258 -0.2291 -0.1513  0.8001
  147MOL   C27547287   6.475   2.728   6.115  0.3662 -0.6294 -0.1143
  147MOL   C27647288   6.428   2.601   6.080 -0.0312 -0.7519  0.3222
  147MOL  Cl27747289   6.367   2.488   6.203 -0.1236  0.2098 -0.1252
  147MOL   C27847290   6.441   2.553   5.945  0.4685  0.4848 -0.0040
  147MOL   C27947291   6.516   2.625   5.849  0.3299  0.1071  0.7047
  147MOL   C28047292   6.559   2.756   5.878  0.6215  0.1733 -0.2836
  147MOL   C28147293   6.546   2.804   6.008 -0.0062  0.0125 -0.4297
  147MOL   C28247294   6.418   2.928   6.266 -0.2360  0.6930  0.0213
  147MOL   H28347295   6.395   2.716   6.312  0.0984 -0.2461  1.0873
  147MOL   H28447296   6.416   2.449   5.931  1.4714  0.0060  1.6448
  147MOL   H28547297   6.517   2.573   5.755 -1.2805 -0.9445  1.2546
  147MOL   H28647298   6.621   2.816   5.813  1.5146  1.1127  1.3812
  147MOL   H28747299   6.592   2.897   6.039 -0.7539  0.7552 -1.5094
  147MOL   H28847300   6.409   2.978   6.170  1.4246  2.6558  0.8532
  147MOL   H28947301   6.495   2.991   6.311 -0.7653  2.1592 -1.0830
  147MOL   C29047302   6.293   2.940   6.354  0.4532 -0.1983  0.1728
  147MOL   C29147303   6.171   2.906   6.262 -0.2546  0.5321  0.8114
  147MOL   C29247304   6.091   2.785   6.275  0.1577 -0.9605 -0.3748
  147MOL  Cl29347305   6.123   2.669   6.394  0.0906 -0.1965  0.4500
  147MOL   C29447306   5.987   2.752   6.186 -0.4165  0.4123  0.0534
  147MOL   C29547307   5.964   2.840   6.076  0.4784 -0.1454  0.0717
  147MOL   C29647308   6.027   2.966   6.070 -0.1818 -0.5372  0.1055
  147MOL   C29747309   6.134   2.996   6.157  0.6015 -0.4368  0.6520
  147MOL   C29847310   6.274   3.081   6.420  0.0527 -0.1722 -0.8898
  147MOL   H29947311   6.295   2.872   6.440 -0.6572  0.9981  1.1621
  147MOL   H30047312   5.934   2.658   6.187  0.3852 -0.0322  2.2341
  147MOL   H30147313   5.890   2.817   6.001 -1.2743 -1.2104  2.0743
  147MOL   H30247314   6.008   3.034   5.988 -0.2544  0.9817  1.3647
  147MOL   H30347315   6.195   3.082   6.132 -0.4709 -0.1902 -1.2179
  147MOL   H30447316   6.246   3.150   6.341 -0.7267  0.1625 -0.3337
  147MOL   H30547317   6.377   3.111   6.441 -0.5168  0.7561  0.5972
  147MOL   C30647318   6.195   3.092   6.550  0.7456 -0.3546 -0.4323
  147MOL   C30747319   6.051   3.049   6.550 -0.2849 -0.3822  0.7966
  147MOL   C30847320   5.957   3.108   6.459 -0.4743  0.7275 -0.0873
  147MOL  Cl30947321   5.998   3.250   6.364 -0.1500  0.1565  0.1263
  147MOL   C31047322   5.830   3.052   6.443  0.1539  0.7549 -0.4278
  147MOL   C31147323   5.796   2.948   6.533 -0.2228 -0.1288  0.5883
  147MOL   C31247324   5.871   2.904   6.636 -0.3371 -0.9256 -1.0856
  147MOL   C31347325   6.007   2.949   6.637  0.1495  0.0948 -0.0842
  147MOL   C31447326   6.213   3.236   6.609 -0.2811 -0.3135  0.4580
  147MOL   H31547327   6.251   3.036   6.625 -1.0599  1.6654  2.5103
  147MOL   H31647328   5.764   3.096   6.370 -1.2151 -0.0906  0.2626
  147MOL   H31747329   5.701   2.898   6.521 -0.7805  1.5398 -2.4420
  147MOL   H31847330   5.823   2.838   6.707  0.9843 -0.9231 -0.1646
  147MOL   H31947331   6.081   2.900   6.698 -0.2472 -0.6878 -0.2251
  147MOL   H32047332   6.170   3.255   6.708 -0.4082  0.9338  0.1694
  147MOL   H32147333   6.188   3.316   6.540  3.5514  0.3899 -0.2643
  147MOL   H32247334   6.321   3.244   6.621  0.0584  0.1389 -2.5357
  148MOL     C147335   8.255   7.720   0.082  0.4390 -0.1536 -0.1045
  148MOL     C247336   8.243   7.616   8.390  0.5073 -0.8331 -0.9348
  148MOL     C347337   8.276   7.631   8.254 -0.4372  0.0496 -0.4742
  148MOL    Cl447338   8.356   7.772   8.191  0.0124 -0.2157  0.1611
  148MOL     C547339   8.261   7.521   8.157  0.2386 -1.0958 -0.6835
  148MOL     C647340   8.202   7.407   8.199  0.1549  0.3359 -0.2482
  148MOL     C747341   8.155   7.392   8.334 -0.5293  0.9068 -0.0597
  148MOL     C847342   8.182   7.493   0.003  0.3516 -0.4440  0.4558
  148MOL     C947343   8.377   7.705   0.163  0.1373  0.1403 -0.0035
  148MOL    H1047344   8.250   7.816   0.030 -1.1085 -0.3691 -0.3751
  148MOL    H1147345   8.286   7.547   8.055 -0.8073  1.9397 -0.2067
  148MOL    H1247346   8.190   7.336   8.119 -1.5703  1.1259 -0.7085
  148MOL    H1347347   8.095   7.306   8.362  1.8046 -0.2761  1.5288
  148MOL    H1447348   8.158   7.466   0.105  1.8815  2.0818  1.5402
  148MOL    H1547349   0.015   7.620   0.126  1.3799  1.6214 -1.5359
  148MOL    H1647350   8.354   7.676   0.265  0.6186 -0.4246 -0.0521
  148MOL    H1747351   8.171   7.708   0.151  1.6657  1.3583  1.6957
  148MOL    C1847352   0.051   7.823   0.185 -0.4553  0.2721 -0.2064
  148MOL    C1947353   0.183   7.773   0.244 -0.2237 -0.2598 -0.0496
  148MOL    C2047354   0.296   7.759   0.171  0.0080  0.1803 -0.0117
  148MOL   Cl2147355   0.291   7.799   0.003 -0.0393  0.0346 -0.1670
  148MOL    C2247356   0.418   7.721   0.231  0.0430 -0.6114  0.1339
  148MOL    C2347357   0.425   7.674   0.364 -0.5632 -0.4226 -0.7466
  148MOL    C2447358   0.297   7.673   0.432 -0.3539 -0.1075  0.1151
  148MOL    C2547359   0.180   7.730   0.380  0.3704  0.6333  0.2122
  148MOL    C2647360   8.402   7.937   0.268  0.3012  0.0589  0.1043
  148MOL    H2747361   0.065   7.872   0.089 -0.8932  0.2630 -0.2757
  148MOL    H2847362   0.511   7.699   0.180  2.1238 -2.2588  4.4034
  148MOL    H2947363   0.509   7.615   0.396  0.3849  2.3091  2.0565
  148MOL    H3047364   0.294   7.625   0.529 -2.1869 -1.0663 -0.4006
  148MOL    H3147365   0.083   7.723   0.427  0.3758 -1.4960 -0.0745
  148MOL    H3247366   8.379   7.886   0.362  1.1146 -0.0969  0.2196
  148MOL    H3347367   8.306   7.953   0.220  1.4801  2.1811 -1.6324
  148MOL    C3447368   0.049   8.075   0.270 -0.1521  0.0393 -0.1972
  148MOL    C3547369   0.172   8.075   0.374  0.1400 -0.0172  0.0420
  148MOL    C3647370   0.304   8.102   0.327  0.2017  0.0675 -0.4491
  148MOL   Cl3747371   0.333   8.118   0.155 -0.4271 -0.1351 -0.3722
  148MOL    C3847372   0.407   8.107   0.422 -0.3275 -0.1021 -0.1645
  148MOL    C3947373   0.379   8.094   0.562 -0.5762 -0.4153 -0.6280
  148MOL    C4047374   0.249   8.058   0.600  0.6095 -0.2334 -0.2108
  148MOL    C4147375   0.144   8.050   0.505  0.3844  0.0988  0.0365
  148MOL    C4247376   8.365   8.195   0.282 -0.3885  0.4952 -0.5318
  148MOL    H4347377   0.095   8.082   0.172  1.0048  0.7985  0.3932
  148MOL    H4447378   0.506   8.123   0.379 -0.8123 -1.6976 -1.9461
  148MOL    H4547379   0.460   8.086   0.633 -1.6142 -0.3891  0.5780
  148MOL    H4647380   0.234   8.018   0.699 -1.1043 -0.6034 -0.6011
  148MOL    H4747381   0.041   8.029   0.530 -0.0591 -4.4716 -4.8835
  148MOL    H4847382   0.004   8.285   0.298 -0.9933  0.8828 -0.4656
  148MOL    H4947383   8.303   8.187   0.372  0.8096  1.7917  0.4326
  148MOL    C5047384   8.281   8.224   0.153  0.3417  0.1764 -0.0336
  148MOL    C5147385   8.365   8.228   0.023  1.1013 -0.2623 -0.5141
  148MOL    C5247386   8.325   8.164   8.327 -0.3085  0.7272  0.5891
  148MOL   Cl5347387   8.187   8.062   8.325  0.0069  0.4914 -0.3405
  148MOL    C5447388   8.403   8.180   8.208 -0.2881  0.7077 -0.8342
  148MOL    C5547389   0.090   8.271   8.207 -0.0784  0.4240 -0.9539
  148MOL    C5647390   0.127   8.340   8.325  0.5221  0.5403 -0.1819
  148MOL    C5747391   0.051   8.319   0.024  0.3787  0.1574  0.5320
  148MOL    C5847392   8.197   8.349   0.174 -0.7484  0.5687  0.1322
  148MOL    H5947393   8.212   8.141   0.139 -1.3658  1.4109  0.8720
  148MOL    H6047394   8.370   8.121   8.124 -2.1831  0.3679  0.1102
  148MOL    H6147395   0.156   8.281   8.122  1.2553  2.0460  0.2353
  148MOL    H6247396   0.199   0.000   8.324  0.0265  1.0031  1.3977
  148MOL    H6347397   0.070   8.381   0.110 -1.5935 -0.1187  1.1959
  148MOL    H6447398   8.155   8.404   0.090 -0.1368  1.7615  0.5922
  148MOL    H6547399   8.262   8.420   0.225 -0.9678  0.9638 -0.1380
  148MOL    C6647400   8.069   8.324   0.252 -0.0189 -0.1247 -0.4656
  148MOL    C6747401   7.970   8.241   0.179  0.1824 -0.3268 -0.1344
  148MOL    C6847402   7.942   8.100   0.203  0.0889  0.7813 -0.0940
  148MOL   Cl6947403   7.999   8.024   0.342  0.1571  0.7822  0.0507
  148MOL    C7047404   7.859   8.029   0.118 -0.0408 -0.2153 -0.0971
  148MOL    C7147405   7.813   8.088   8.415 -0.6580 -0.2439 -0.7695
  148MOL    C7247406   7.845   8.223   8.384  0.0392  0.1587 -0.8223
  148MOL    C7347407   7.919   8.298   0.054 -0.9251 -0.0037  0.2541
  148MOL    C7447408   8.007   0.035   0.306  0.2151  0.4863 -0.3829
  148MOL    H7547409   8.081   8.262   0.341  0.6934 -0.8014 -1.0382
  148MOL    H7647410   7.825   7.929   0.139 -1.2759  0.3711  0.7908
  148MOL    H7747411   7.752   8.030   8.347  0.3466 -1.9146 -0.2922
  148MOL    H7847412   7.807   8.271   8.295  0.6370 -1.2629 -1.8623
  148MOL    H7947413   7.938   8.402   0.034  0.6260 -0.6176 -1.5952
  148MOL    H8047414   7.918   0.014   0.365 -0.3009  0.4324 -1.1707
  148MOL    H8147415   7.970   0.102   0.228 -1.7845  0.7320  0.7523
  148MOL    C8247416   8.103   0.111   0.401  0.1898  0.2215  0.1389
  148MOL    C8347417   8.165   0.021   0.508 -0.4426 -0.4108 -0.0284
  148MOL    C8447418   8.307   0.028   0.531  0.2681 -0.3383  0.2025
  148MOL   Cl8547419   8.412   0.127   0.433 -0.0537 -0.7062 -0.0899
  148MOL    C8647420   8.372   8.369   0.628 -0.2795 -0.5235 -0.2523
  148MOL    C8747421   8.300   8.285   0.712  0.4088 -0.5882  0.0739
  148MOL    C8847422   8.161   8.278   0.692 -0.6067 -0.6261  0.0686
  148MOL    C8947423   8.094   8.361   0.597  0.2775 -0.0059  0.2746
  148MOL    C9047424   8.028   0.235   0.462  0.3666  1.1065 -0.0130
  148MOL    H9147425   8.180   0.151   0.334 -0.6484  1.5231 -0.0708
  148MOL    H9247426   0.059   8.380   0.637 -0.4597  1.1580  0.0190
  148MOL    H9347427   8.343   8.226   0.792  1.7489  0.7808  0.3913
  148MOL    H9447428   8.099   8.216   0.755  2.2785 -0.5391  3.1263
  148MOL    H9547429   7.986   8.355   0.597  0.3757 -1.9180  0.0768
  148MOL    H9647430   7.939   0.201   0.514  1.8583  1.6658  2.9920
  148MOL    H9747431   7.968   0.289   0.389 -0.7511 -0.5722 -0.3525
  148MOL    C9847432   8.097   0.333   0.551 -1.3512  0.1794  0.0252
  148MOL    C9947433   7.986   0.424   0.613 -0.2876 -0.4530 -0.1243
  148MOL   C10047434   7.924   0.403   0.739  0.3915  0.2182  0.7854
  148MOL  Cl10147435   7.982   0.285   0.850  0.1588  0.2462  0.1374
  148MOL   C10247436   7.807   0.474   0.781  0.0527 -0.0661 -0.2056
  148MOL   C10347437   7.756   0.575   0.693  1.0040  0.4766  1.1483
  148MOL   C10447438   7.816   0.605   0.565 -0.2402  0.1904 -0.0269
  148MOL   C10547439   7.924   0.521   0.523  0.1685 -0.2482 -1.1334
  148MOL   C10647440   8.211   0.409   0.466  1.0234  0.5720  0.2536
  148MOL   H10747441   8.148   0.299   0.642  1.5402  2.8487 -0.5033
  148MOL   H10847442   7.749   0.441   0.866  1.2005  0.6773  0.8828
  148MOL   H10947443   7.665   0.630   0.715 -1.5650 -2.7575 -0.8695
  148MOL   H11047444   7.762   0.665   0.493  0.1885  0.2074 -0.3361
  148MOL   H11147445   7.960   0.524   0.421  2.6440  0.8481 -0.2753
  148MOL   H11247446   8.168   0.467   0.385  2.8267  0.8149 -0.5579
  148MOL   H11347447   8.267   0.331   0.413 -0.7877 -0.3253 -0.3788
  148MOL   C11447448   8.319   0.482   0.544 -0.4082  0.7256  0.5041
  148MOL   C11547449   8.255   0.589   0.628 -0.5699 -0.1274 -0.9665
  148MOL   C11647450   8.247   0.585   0.772 -0.5225  0.1076  0.0659
  148MOL  Cl11747451   8.300   0.448   0.859  0.4764 -0.0634  0.0929
  148MOL   C11847452   8.194   0.697   0.838  0.7883  0.1222  0.2176
  148MOL   C11947453   8.163   0.819   0.776  0.4621  1.0475 -0.5386
  148MOL   C12047454   8.181   0.824   0.637  0.2241 -0.8381  0.0721
  148MOL   C12147455   8.222   0.713   0.565 -0.1371  0.9465 -0.5627
  148MOL   C12247456   0.020   0.528   0.452  0.0230  0.1985 -0.2963
  148MOL   H12347457   8.370   0.411   0.610  1.7071  0.8450 -0.9279
  148MOL   H12447458   8.187   0.693   0.945  0.0620 -1.4439  0.1261
  148MOL   H12547459   8.124   0.900   0.835  1.1699  0.1198  1.2477
  148MOL   H12647460   8.172   0.915   0.580  0.2861 -0.9569 -0.1293
  148MOL   H12747461   8.245   0.731   0.461 -0.6844  0.6572 -0.7356
  148MOL   H12847462   0.003   0.633   0.428 -0.7395  0.1303 -0.0670
  148MOL   H12947463   0.019   0.474   0.358  1.0339  0.4714 -0.4666
  148MOL   C13047464   0.162   0.511   0.515 -0.9517  0.1419 -0.5322
  148MOL   C13147465   0.179   0.526   0.668 -0.5256 -0.8198 -0.3278
  148MOL   C13247466   0.230   0.420   0.744  0.1746  0.4844 -0.4465
  148MOL  Cl13347467   0.258   0.257   0.683  0.0897  0.4752  0.2308
  148MOL   C13447468   0.255   0.436   0.877  0.2249  0.6370 -0.0489
  148MOL   C13547469   0.235   0.558   0.942  0.4022  0.3995 -0.0265
  148MOL   C13647470   0.181   0.666   0.868  0.1182 -0.1167 -0.7111
  148MOL   C13747471   0.154   0.649   0.729 -0.1818 -0.0051 -0.1909
  148MOL   C13847472   0.288   0.581   0.454 -0.5380  0.1485 -1.0954
  148MOL   H13947473   0.174   0.405   0.495 -2.1706 -0.4028  1.5036
  148MOL   H14047474   0.283   0.350   0.935 -2.2319 -0.6343 -0.6610
  148MOL   H14147475   0.248   0.577   1.047 -0.4919  0.0612  0.1501
  148MOL   H14247476   0.164   0.759   0.919  3.0370 -0.2316  0.6199
  148MOL   H14347477   0.119   0.737   0.677 -0.0554 -0.7277 -1.5442
  148MOL   H14447478   0.373   0.562   0.520 -0.6745  2.7613 -0.1085
  148MOL   H14547479   0.276   0.688   0.469 -0.4567  0.2185 -1.5282
  148MOL   C14647480   0.295   0.538   0.304 -0.4629 -0.1189  0.1263
  148MOL   C14747481   0.311   0.387   0.280  0.1415 -0.0997  0.6544
  148MOL   C14847482   0.226   0.313   0.197 -0.4020  0.1118  0.1222
  148MOL  Cl14947483   0.079   0.369   0.109  0.0161  0.2994 -0.0464
  148MOL   C15047484   0.256   0.178   0.165  0.9311 -0.6015  0.2690
  148MOL   C15147485   0.372   0.118   0.219 -0.4071 -0.0402 -0.1663
  148MOL   C15247486   0.448   0.194   0.310  0.6505 -0.3349 -0.1187
  148MOL   C15347487   0.420   0.326   0.343 -0.3895  0.5965 -0.5258
  148MOL   C15447488   0.407   0.618   0.233  0.1993 -0.1403 -0.4108
  148MOL   H15547489   0.204   0.556   0.246  0.4958  2.2237 -0.6919
  148MOL   H15647490   0.192   0.127   0.095  0.7430  1.3426 -1.0112
  148MOL   H15747491   0.388   0.016   0.188  1.3554 -0.1487  1.0437
  148MOL   H15847492   0.535   0.148   0.353  1.4709  2.6359  1.5392
  148MOL   H15947493   0.486   0.386   0.404 -1.2168  0.4090  0.5545
  148MOL   H16047494   0.438   0.566   0.142 -0.7844  0.8830 -1.3476
  148MOL   H16147495   0.488   0.616   0.306 -0.0461 -0.9727 -0.1488
  148MOL   C16247496   0.367   0.764   0.202 -0.1468 -0.0371  0.2250
  148MOL   C16347497   0.297   0.773   0.068 -0.6348  0.0884 -0.2248
  148MOL   C16447498   0.158   0.795   0.054 -0.6911  0.1904  0.2811
  148MOL  Cl16547499   0.065   0.831   0.190 -0.0032  0.0338 -0.3190
  148MOL   C16647500   0.101   0.786   8.345 -0.4631  0.0055 -0.7379
  148MOL   C16747501   0.186   0.776   8.233 -0.0623 -0.4491 -0.5340
  148MOL   C16847502   0.325   0.757   8.249 -0.2654  0.4643 -0.3676
  148MOL   C16947503   0.382   0.756   8.378  1.0034  0.3298 -0.9651
  148MOL   C17047504   0.492   0.861   0.205 -0.1075  0.0861  0.1589
  148MOL   H17147505   0.303   0.792   0.286 -1.9742  1.9175 -1.7580
  148MOL   H17247506   8.417   0.802   8.322 -0.0145  0.3409 -2.6193
  148MOL   H17347507   0.144   0.774   8.134 -3.1248 -0.2375  0.7061
  148MOL   H17447508   0.386   0.737   8.161  0.5934  1.2982  0.0362
  148MOL   H17547509   0.487   0.732   8.381  1.1371  0.9414 -0.5299
  148MOL   H17647510   0.466   0.950   0.147  0.1349 -0.0095 -0.0993
  148MOL   H17747511   0.575   0.818   0.149  1.9555 -0.4201  3.4649
  148MOL   C17847512   0.527   0.903   0.353 -0.3555  0.2238  0.4386
  148MOL   C17947513   0.413   0.993   0.411  0.8134 -0.1204  0.0986
  148MOL   C18047514   0.359   0.972   0.543  0.5115  0.3511 -0.0783
  148MOL  Cl18147515   0.451   0.870   0.649 -0.4325  0.3268  0.1497
  148MOL   C18247516   0.249   1.040   0.591  1.1406 -0.7734  0.0018
  148MOL   C18347517   0.188   1.133   0.506 -0.1171 -0.5731 -0.2722
  148MOL   C18447518   0.240   1.157   0.380 -0.8930  0.3140 -0.4101
  148MOL   C18547519   0.349   1.087   0.331 -0.0154 -0.3082  0.4118
  148MOL   C18647520   0.671   0.958   0.371  0.0943  0.8278  0.1820
  148MOL   H18747521   0.518   0.809   0.409  0.1714 -0.0995 -0.0106
  148MOL   H18847522   0.216   1.014   0.690 -3.1927  0.4112 -1.0084
  148MOL   H18947523   0.101   1.187   0.541  0.8581 -0.5002  2.0713
  148MOL   H19047524   0.194   1.232   0.316  0.4707  1.3543 -0.2162
  148MOL   H19147525   0.395   1.121   0.239  0.5103 -0.4111  0.6315
  148MOL   H19247526   0.688   0.988   0.474  1.7153  0.6797 -0.0218
  148MOL   H19347527   0.672   1.049   0.310 -0.3220  1.5842  1.2902
  148MOL   C19447528   0.784   0.865   0.327  0.1473 -0.5267  0.0364
  148MOL   C19547529   0.771   0.723   0.381 -0.2383  0.0571 -0.7561
  148MOL   C19647530   0.753   0.607   0.292  0.7614 -0.3048 -0.3116
  148MOL  Cl19747531   0.767   0.617   0.127  0.2482  0.5348  0.4716
  148MOL   C19847532   0.728   0.481   0.349  0.2879  0.3203 -0.5014
  148MOL   C19947533   0.733   0.459   0.485 -0.6603 -0.3402  0.4344
  148MOL   C20047534   0.743   0.566   0.573  0.3524 -0.7284  0.1022
  148MOL   C20147535   0.769   0.695   0.522  1.0542 -0.9951  0.2297
  148MOL   C20247536   0.919   0.919   0.385 -0.3308 -0.2074 -0.1025
  148MOL   H20347537   0.792   0.861   0.219 -1.0658 -0.2873 -0.0620
  148MOL   H20447538   0.704   0.400   0.281 -1.3344  0.7369 -0.4372
  148MOL   H20547539   0.707   0.363   0.528  1.6024 -1.5778 -0.9240
  148MOL   H20647540   0.746   0.561   0.680 -0.1583 -0.1532  0.1486
  148MOL   H20747541   0.769   0.779   0.590  0.3053 -1.6077  1.0002
  148MOL   H20847542   1.002   0.852   0.364 -0.2066  0.5953 -2.3522
  148MOL   H20947543   0.901   0.917   0.492  1.0743 -4.1090  0.1404
  148MOL   C21047544   0.969   1.059   0.334 -0.0435 -0.6181  0.2448
  148MOL   C21147545   0.960   1.072   0.183  0.1355 -0.1879  0.0232
  148MOL   C21247546   0.905   1.188   0.118  0.1137  0.0701  0.2874
  148MOL  Cl21347547   0.852   1.326   0.214  0.3288  0.0370  0.5423
  148MOL   C21447548   0.895   1.186   8.396  0.1909 -0.2853 -0.0122
  148MOL   C21547549   0.945   1.073   8.322 -0.1632 -0.0058  0.3235
  148MOL   C21647550   0.988   0.963   8.388  0.0470 -0.0153  0.0426
  148MOL   C21747551   1.006   0.966   0.104 -0.2257  0.3458 -0.2438
  148MOL   C21847552   1.110   1.089   0.385 -0.4574  0.2575  0.3066
  148MOL   H21947553   0.908   1.134   0.386  0.5533 -0.7996  1.2248
  148MOL   H22047554   0.860   1.280   8.357  1.4207  0.9914  1.8587
  148MOL   H22147555   0.940   1.071   8.214 -0.1642 -0.2941  0.3278
  148MOL   H22247556   1.013   0.872   8.334  0.2297 -0.7121  1.2892
  148MOL   H22347557   1.039   0.879   0.160 -2.6104  0.2586  1.1247
  148MOL   H22447558   1.139   1.188   0.352 -1.1623  0.7193  1.0691
  148MOL   H22547559   1.179   1.018   0.338 -2.0489 -0.0372 -1.6806
  148MOL   C22647560   1.136   1.097   0.539 -0.5722  0.8000 -1.2368
  148MOL   C22747561   1.021   1.165   0.613  0.1919  0.2427  0.1093
  148MOL   C22847562   0.947   1.091   0.715 -0.5682  0.4339  0.1468
  148MOL  Cl22947563   1.004   0.934   0.783  0.2762 -0.4548  0.1213
  148MOL   C23047564   0.821   1.145   0.763  0.3598  0.2305 -0.2437
  148MOL   C23147565   0.772   1.269   0.715  0.5826 -0.4648 -0.0034
  148MOL   C23247566   0.853   1.340   0.623 -0.2808  0.3403 -0.1774
  148MOL   C23347567   0.976   1.289   0.576  0.8235  0.1853  0.2398
  148MOL   C23447568   1.277   1.145   0.587  0.4549 -0.3063  0.0541
  148MOL   H23547569   1.124   0.990   0.555 -1.1442  0.7375 -2.0600
  148MOL   H23647570   0.757   1.079   0.819 -0.8297  2.0474  0.6028
  148MOL   H23747571   0.685   1.324   0.747  1.0359  1.0243 -1.2623
  148MOL   H23847572   0.823   1.431   0.574 -2.6069 -0.1516  0.2715
  148MOL   H23947573   1.031   1.347   0.503  0.5323 -1.1465 -1.0627
  148MOL   H24047574   1.277   1.174   0.692 -0.8093  0.7681 -0.2239
  148MOL   H24147575   1.281   1.239   0.532  0.4918 -1.2843 -1.6731
  148MOL   C24247576   1.400   1.058   0.556 -0.6994  0.3032 -0.2618
  148MOL   C24347577   1.396   0.929   0.644  0.3128 -0.2473  0.0619
  148MOL   C24447578   1.379   0.795   0.592  0.3758  0.7138  0.5108
  148MOL  Cl24547579   1.348   0.771   0.424  0.4103  0.1964 -0.2205
  148MOL   C24647580   1.351   0.682   0.669 -0.2691  0.6039  0.3575
  148MOL   C24747581   1.368   0.689   0.807 -0.4500 -0.2753 -0.7122
  148MOL   C24847582   1.393   0.814   0.863  0.1975  0.1588  0.4630
  148MOL   C24947583   1.400   0.934   0.790 -0.1249  0.1667  0.0841
  148MOL   C25047584   1.531   1.134   0.577  0.5481 -0.3033  0.1497
  148MOL   H25147585   1.399   1.030   0.451  1.3964  1.1752 -0.5395
  148MOL   H25247586   1.313   0.594   0.620  0.7231  0.9478 -1.0454
  148MOL   H25347587   1.341   0.609   0.875  0.0274 -0.3327 -0.5845
  148MOL   H25447588   1.398   0.811   0.970 -2.1268  0.0904  0.5904
  148MOL   H25547589   1.403   1.032   0.834 -1.8688  1.0163 -1.6147
  148MOL   H25647590   1.532   1.169   0.680  1.4239  0.2203 -0.0306
  148MOL   H25747591   1.512   1.233   0.535 -2.0500 -0.9508 -0.2910
  148MOL   C25847592   1.655   1.076   0.517 -0.2912  0.7678 -0.2345
  148MOL   C25947593   1.722   0.979   0.616 -0.2972 -0.5893 -0.1816
  148MOL   C26047594   1.740   0.842   0.590 -0.3352 -0.1683 -0.5652
  148MOL  Cl26147595   1.692   0.763   0.448  0.0982  0.0578 -0.3545
  148MOL   C26247596   1.809   0.762   0.679 -0.0611  1.0209 -0.3360
  148MOL   C26347597   1.852   0.810   0.801 -0.3171 -0.3900  0.8040
  148MOL   C26447598   1.837   0.947   0.836 -0.5076  0.1700  0.2370
  148MOL   C26547599   1.765   1.028   0.743  0.2009 -0.5223 -0.5535
  148MOL   C26647600   1.755   1.185   0.464  0.0902  0.1814  0.4318
  148MOL   H26747601   1.639   1.024   0.423  1.4853  0.5112 -0.4126
  148MOL   H26847602   1.821   0.657   0.654  4.3071  1.6143 -1.2405
  148MOL   H26947603   1.899   0.746   0.874  0.9228 -0.1277  0.2440
  148MOL   H27047604   1.859   0.975   0.938  0.4400 -2.9747  0.9489
  148MOL   H27147605   1.749   1.131   0.771 -0.8105 -0.1338 -2.5009
  148MOL   H27247606   1.844   1.127   0.437  2.8847  2.5241  4.1171
  148MOL   H27347607   1.788   1.251   0.545  0.7017  1.2233 -0.6503
  148MOL   C27447608   1.716   1.259   0.332 -0.0373  0.1774 -0.4334
  148MOL   C27547609   1.653   1.162   0.232 -0.0459  0.6047  0.1547
  148MOL   C27647610   1.519   1.174   0.190  0.0755 -0.8843 -0.1226
  148MOL  Cl27747611   1.414   1.295   0.252  0.4457  0.0379 -0.0393
  148MOL   C27847612   1.468   1.077   0.108 -0.0066  0.6876  0.1819
  148MOL   C27947613   1.550   0.971   0.056 -0.3726 -0.2378 -0.1802
  148MOL   C28047614   1.691   0.970   0.085  0.6249  0.2198 -0.5758
  148MOL   C28147615   1.743   1.067   0.172  0.0186 -0.1287  0.1622
  148MOL   C28247616   1.832   1.344   0.268 -0.3809 -0.3366 -0.3511
  148MOL   H28347617   1.639   1.330   0.361 -0.2153  1.0792 -3.0260
  148MOL   H28447618   1.362   1.074   0.087 -0.0691  1.0854  0.4340
  148MOL   H28547619   1.500   0.895   8.418 -2.9623 -1.0995  2.9947
  148MOL   H28647620   1.758   0.891   0.057  2.2463  1.7240 -1.0252
  148MOL   H28747621   1.843   1.056   0.209  1.0066  0.8923 -2.1169
  148MOL   H28847622   1.817   1.382   0.166  0.9913 -1.7230 -1.0900
  148MOL   H28947623   1.921   1.283   0.259 -0.1510 -0.0520 -0.0131
  148MOL   C29047624   1.865   1.465   0.354 -0.7745 -0.0327  0.5729
  148MOL   C29147625   1.762   1.573   0.349 -0.1442 -0.0411 -0.2438
  148MOL   C29247626   1.693   1.615   0.463  0.3738 -0.1950 -0.5126
  148MOL  Cl29347627   1.722   1.542   0.614  0.4287  0.2433 -0.2582
  148MOL   C29447628   1.587   1.710   0.461  0.3487 -0.1524  1.0014
  148MOL   C29547629   1.545   1.765   0.340  0.5095 -0.3562  0.1465
  148MOL   C29647630   1.617   1.725   0.222 -0.4663  0.1447  0.5121
  148MOL   C29747631   1.716   1.626   0.227 -0.4114 -0.9255 -0.0458
  148MOL   C29847632   1.996   1.531   0.321 -0.2239 -0.1881  0.4982
  148MOL   H29947633   1.878   1.430   0.456  2.6592 -1.1745 -0.1620
  148MOL   H30047634   1.529   1.736   0.548 -0.5479 -0.0558  0.3794
  148MOL   H30147635   1.462   1.835   0.343  0.6341 -0.2301  0.8227
  148MOL   H30247636   1.597   1.780   0.131 -1.3124  1.1639  1.2898
  148MOL   H30347637   1.761   1.585   0.137 -0.6641 -1.3186  0.0036
  148MOL   H30447638   1.994   1.622   0.381 -0.2523  0.7443 -0.8955
  148MOL   H30547639   1.991   1.564   0.218  0.8967  0.4102  0.6285
  148MOL   C30647640   2.119   1.442   0.354  1.1051 -0.4214  0.3168
  148MOL   C30747641   2.116   1.392   0.501 -0.4834  0.4923  0.0281
  148MOL   C30847642   2.120   1.255   0.530  0.0866 -0.3339  0.8523
  148MOL  Cl30947643   2.187   1.136   0.415 -0.0259 -0.2163 -0.3225
  148MOL   C31047644   2.068   1.209   0.654  0.0017  0.2492 -0.0556
  148MOL   C31147645   2.029   1.304   0.749 -0.4315  0.6021  0.1690
  148MOL   C31247646   2.030   1.444   0.721 -0.0401 -0.2699 -0.7270
  148MOL   C31347647   2.077   1.489   0.601 -0.1519 -0.5547  1.1233
  148MOL   C31447648   2.255   1.504   0.322  0.1376  0.2434 -0.5068
  148MOL   H31547649   2.115   1.360   0.283  3.3357  0.8507 -1.3355
  148MOL   H31647650   2.062   1.102   0.671 -0.9527  0.3426  0.2310
  148MOL   H31747651   1.985   1.276   0.843 -1.4376 -0.5180 -0.6163
  148MOL   H31847652   1.990   1.515   0.792 -2.2192 -0.8234 -1.3772
  148MOL   H31947653   2.074   1.596   0.586 -1.9598 -0.9557 -1.8648
  148MOL   H32047654   2.270   1.524   0.216  1.8708  0.4124 -0.2300
  148MOL   H32147655   2.335   1.447   0.368  0.9294  2.5915  1.0964
  148MOL   H32247656   2.277   1.597   0.374  2.0382 -0.4894 -0.0011
  149MOL     C147657   6.902   7.726   0.252  0.1087  1.1341  0.0953
  149MOL     C247658   6.923   7.587   0.179 -0.5267 -0.4926 -0.4866
  149MOL     C347659   7.058   7.530   0.177 -0.3179 -0.1025 -0.5216
  149MOL    Cl447660   7.198   7.614   0.240  0.3095 -0.1674  0.0202
  149MOL     C547661   7.090   7.418   0.102  0.6969  0.2618 -0.2453
  149MOL     C647662   6.983   7.348   0.035 -0.3400  0.0808 -0.1787
  149MOL     C747663   6.850   7.397   0.044 -0.4630 -0.0244 -0.0561
  149MOL     C847664   6.821   7.519   0.113 -0.1313  0.0688  0.1984
  149MOL     C947665   6.802   7.736   0.369 -0.1292 -0.3488  0.0853
  149MOL    H1047666   6.993   7.769   0.293 -0.8531  0.8690  2.6203
  149MOL    H1147667   7.193   7.388   0.087  1.7374  1.6139  3.5755
  149MOL    H1247668   7.005   7.263   8.393 -0.2687  0.7309 -1.0392
  149MOL    H1347669   6.774   7.348   8.406 -0.4696 -1.5081  1.1775
  149MOL    H1447670   6.724   7.565   0.109 -0.5787 -1.0663 -2.6447
  149MOL    H1547671   6.702   7.773   0.344  0.5324  0.4419 -1.4847
  149MOL    H1647672   6.838   7.823   0.425  1.6468  0.4227 -2.1754
  149MOL    H1747673   6.871   7.797   0.176 -0.9759  0.8061  0.2243
  149MOL    C1847674   6.797   7.607   0.457  0.6621 -0.4549  0.0256
  149MOL    C1947675   6.675   7.601   0.548  0.2604 -0.0513 -0.7864
  149MOL    C2047676   6.582   7.495   0.547  0.5155 -0.3760 -0.1878
  149MOL   Cl2147677   6.575   7.371   0.428 -0.1447 -0.2685  0.1096
  149MOL    C2247678   6.472   7.494   0.637 -0.0652 -0.0744 -0.5775
  149MOL    C2347679   6.453   7.593   0.731  0.3423  0.5715 -0.2141
  149MOL    C2447680   6.538   7.710   0.727 -0.3249  0.5372 -0.2295
  149MOL    C2547681   6.650   7.707   0.638 -0.1033  0.0084  0.3455
  149MOL    C2647682   6.927   7.590   0.544  0.2807 -0.1286 -0.8767
  149MOL    H2747683   6.795   7.523   0.388 -0.9392  0.4151 -1.0139
  149MOL    H2847684   6.412   7.404   0.637  0.3184 -0.3636  1.1804
  149MOL    H2947685   6.373   7.581   0.803  1.0947  0.7972  0.6792
  149MOL    H3047686   6.522   7.787   0.802  1.7713 -0.5049  1.3289
  149MOL    H3147687   6.719   7.789   0.636  1.1244 -0.9763  1.2948
  149MOL    H3247688   6.940   7.679   0.604  0.2451 -1.0953  0.5960
  149MOL    H3347689   7.015   7.584   0.480  0.9328  1.2314 -0.1285
  149MOL    C3447690   6.936   7.470   0.644  0.1918  0.2759 -0.3792
  149MOL    C3547691   7.049   7.484   0.740 -0.0704  0.4153 -0.4746
  149MOL    C3647692   7.024   7.535   0.871  0.2049  0.2254  0.2163
  149MOL   Cl3747693   6.864   7.567   0.930  0.4742 -0.2655 -0.0330
  149MOL    C3847694   7.129   7.564   0.959  0.0478 -0.0554 -0.3818
  149MOL    C3947695   7.261   7.555   0.915 -0.4685 -0.2000  0.1835
  149MOL    C4047696   7.294   7.511   0.788  0.5450 -0.5662  0.0689
  149MOL    C4147697   7.183   7.483   0.698 -0.0169 -0.1165  0.3606
  149MOL    C4247698   6.928   7.331   0.574 -0.0149  0.3904 -0.4446
  149MOL    H4347699   6.849   7.469   0.709  2.1572 -1.6174  2.2859
  149MOL    H4447700   7.113   7.613   1.054 -0.7335 -0.8011 -0.1260
  149MOL    H4547701   7.342   7.587   0.980 -1.6190  2.4535  0.3813
  149MOL    H4647702   7.395   7.494   0.756 -0.1237 -0.8472 -1.9384
  149MOL    H4747703   7.197   7.478   0.591 -0.2376  0.8519  0.2805
  149MOL    H4847704   7.012   7.326   0.505 -0.8799  1.1076 -1.5635
  149MOL    H4947705   6.846   7.325   0.502  0.3226 -1.9698 -0.6884
  149MOL    C5047706   6.939   7.208   0.662  0.0858  0.7535  0.3337
  149MOL    C5147707   6.963   7.085   0.570 -0.7145 -0.2381  0.1802
  149MOL    C5247708   7.082   7.015   0.563 -0.4383 -0.1500 -0.6455
  149MOL   Cl5347709   7.216   7.072   0.662  0.1212 -0.0102  0.2789
  149MOL    C5447710   7.096   6.910   0.469 -0.1051 -0.0031  0.3328
  149MOL    C5547711   6.988   6.869   0.384 -0.1491 -0.1780 -0.2032
  149MOL    C5647712   6.860   6.925   0.403 -0.0167 -0.2967 -0.0268
  149MOL    C5747713   6.856   7.035   0.494  0.1634 -0.4600 -0.3812
  149MOL    C5847714   6.823   7.196   0.765 -0.4303  0.0509  0.4294
  149MOL    H5947715   7.021   7.221   0.732 -0.9211  1.4762  1.4062
  149MOL    H6047716   7.191   6.859   0.466  0.0451 -0.0297  3.5800
  149MOL    H6147717   6.988   6.782   0.321  0.1652  0.6948 -1.4216
  149MOL    H6247718   6.774   6.904   0.341 -1.7059  1.0212  1.8217
  149MOL    H6347719   6.768   7.098   0.498 -1.6756 -2.9077 -1.4027
  149MOL    H6447720   6.724   7.166   0.729 -0.8202 -2.4960  3.4532
  149MOL    H6547721   6.806   7.293   0.811 -1.1509  0.0222  0.2299
  149MOL    C6647722   6.857   7.104   0.885 -1.0515 -0.8381  0.6218
  149MOL    C6747723   6.729   7.075   0.964 -0.1610  0.6314 -0.4479
  149MOL    C6847724   6.688   6.948   1.008 -0.1319 -0.4638  0.2677
  149MOL   Cl6947725   6.800   6.823   0.987  0.4321  0.2541 -0.3821
  149MOL    C7047726   6.565   6.925   1.069  0.2721  0.2381 -0.1230
  149MOL    C7147727   6.485   7.040   1.097  0.0325 -0.0288 -0.1574
  149MOL    C7247728   6.527   7.165   1.051  0.4818  0.0080  0.2821
  149MOL    C7347729   6.646   7.188   0.995 -0.1064 -0.1706  0.7557
  149MOL    C7447730   6.961   7.169   0.980 -0.8690 -1.0531 -0.1067
  149MOL    H7547731   6.888   7.013   0.835  1.0207 -0.0160  0.3694
  149MOL    H7647732   6.538   6.824   1.096  0.1596  0.4459  0.5454
  149MOL    H7747733   6.396   7.030   1.158  2.0103 -1.9763  2.5651
  149MOL    H7847734   6.459   7.246   1.071 -0.9611 -0.7346 -1.4688
  149MOL    H7947735   6.681   7.285   0.964  2.1067 -1.2879 -0.3588
  149MOL    H8047736   6.906   7.237   1.045 -0.2445 -0.0383 -0.6435
  149MOL    H8147737   7.030   7.239   0.935 -1.4583 -1.2472 -1.3385
  149MOL    C8247738   7.042   7.076   1.079  0.3863  0.6510  0.6003
  149MOL    C8347739   7.080   7.171   1.185 -0.3514  1.1883 -0.0373
  149MOL    C8447740   7.002   7.192   1.307 -0.2358 -0.2518  0.6596
  149MOL   Cl8547741   6.855   7.103   1.346 -0.6596  0.0736  0.3970
  149MOL    C8647742   7.034   7.286   1.408 -0.0287  0.2987  0.2733
  149MOL    C8747743   7.147   7.367   1.384 -0.1317  0.3346  0.6342
  149MOL    C8847744   7.228   7.352   1.269 -0.3011 -0.7207 -0.1539
  149MOL    C8947745   7.189   7.259   1.170 -0.1910 -0.2635  0.5118
  149MOL    C9047746   7.159   7.014   1.008 -0.2222 -0.1340  0.3350
  149MOL    H9147747   6.978   7.002   1.127 -0.8695  2.5223  1.9130
  149MOL    H9247748   6.982   7.288   1.503 -0.7557  0.9582 -0.1296
  149MOL    H9347749   7.183   7.427   1.466  1.1418  0.5946 -0.0948
  149MOL    H9447750   7.314   7.418   1.268 -0.7868  0.1387  4.0010
  149MOL    H9547751   7.263   7.252   1.091  0.1633 -2.5356  1.0049
  149MOL    H9647752   7.215   7.087   0.950 -0.4923  1.9291  2.5747
  149MOL    H9747753   7.104   6.951   0.938 -1.7806  1.7746 -0.1855
  149MOL    C9847754   7.264   6.931   1.097 -0.3095  0.6906  0.3004
  149MOL    C9947755   7.390   6.917   1.015  0.8241  0.9034 -0.2579
  149MOL   C10047756   7.514   6.977   1.059  0.1857 -0.5266 -0.7532
  149MOL  Cl10147757   7.528   7.053   1.214 -0.0928 -0.0684  0.5856
  149MOL   C10247758   7.627   6.960   0.982 -0.0765  0.1824 -0.1490
  149MOL   C10347759   7.629   6.874   0.869 -0.4478 -0.9051 -0.5866
  149MOL   C10447760   7.512   6.809   0.832 -0.2788 -0.1916 -0.3640
  149MOL   C10547761   7.394   6.844   0.898 -0.0389  0.3688  0.6258
  149MOL   C10647762   7.207   6.797   1.144  0.1415 -0.6285  0.3180
  149MOL   H10747763   7.285   6.991   1.185 -0.8820  0.1065  0.8441
  149MOL   H10847764   7.724   7.001   1.005 -0.3651 -0.1993  1.8250
  149MOL   H10947765   7.723   6.857   0.819 -0.0336 -0.8771  0.1736
  149MOL   H11047766   7.519   6.748   0.743 -1.5177  0.9501 -1.2541
  149MOL   H11147767   7.305   6.809   0.847  0.2488  0.4844  0.0390
  149MOL   H11247768   7.165   6.742   1.060  0.9089  0.8230 -1.0292
  149MOL   H11347769   7.117   6.824   1.199 -0.7417  1.2080 -1.9329
  149MOL   C11447770   7.291   6.703   1.238  0.2723  0.1575 -0.2960
  149MOL   C11547771   7.386   6.619   1.152 -0.7017  0.1905  0.4200
  149MOL   C11647772   7.527   6.608   1.183  0.1597  0.0772  0.3051
  149MOL  Cl11747773   7.595   6.674   1.331  0.0655  0.0204  0.6416
  149MOL   C11847774   7.620   6.548   1.096  0.0975  0.1398  0.5538
  149MOL   C11947775   7.579   6.493   0.976 -0.0939 -0.0143  0.1078
  149MOL   C12047776   7.438   6.501   0.939  0.0217 -1.0510 -0.3966
  149MOL   C12147777   7.344   6.554   1.032  0.3332 -0.7441 -0.3663
  149MOL   C12247778   7.204   6.601   1.316 -0.2075 -0.3783 -0.5574
  149MOL   H12347779   7.360   6.759   1.301 -2.1035  0.9787  1.6165
  149MOL   H12447780   7.725   6.553   1.120  0.5605 -0.6710 -1.2119
  149MOL   H12547781   7.654   6.450   0.911  0.5488  1.2763 -0.0243
  149MOL   H12647782   7.408   6.456   0.845 -1.3931 -2.3947  0.6634
  149MOL   H12747783   7.243   6.551   0.993  0.6619  2.2447 -1.5435
  149MOL   H12847784   7.267   6.522   1.357  0.1053  0.0459 -0.2125
  149MOL   H12947785   7.133   6.546   1.254  0.1396  0.1917 -1.4670
  149MOL   C13047786   7.137   6.654   1.439  0.0723 -0.0390  0.3304
  149MOL   C13147787   7.233   6.727   1.527  0.7354 -0.2572 -0.7157
  149MOL   C13247788   7.235   6.864   1.559 -0.3002  0.5290  0.2571
  149MOL  Cl13347789   7.122   6.970   1.485 -0.4235  0.5218  0.0678
  149MOL   C13447790   7.322   6.917   1.655  0.3191 -0.1943 -0.1468
  149MOL   C13547791   7.404   6.835   1.736 -0.6619  0.4922  0.4764
  149MOL   C13647792   7.411   6.697   1.700  0.5256 -0.1122  0.1091
  149MOL   C13747793   7.325   6.646   1.600 -0.8322  0.3997 -0.0535
  149MOL   C13847794   7.076   6.535   1.521  0.8930  0.3353  0.1670
  149MOL   H13947795   7.059   6.725   1.412 -0.9017 -0.4872  1.8895
  149MOL   H14047796   7.314   7.022   1.677 -0.3290 -0.1944 -0.3633
  149MOL   H14147797   7.469   6.872   1.814 -0.7498  1.5338  0.0609
  149MOL   H14247798   7.476   6.630   1.754  0.1981 -0.7822 -0.3241
  149MOL   H14347799   7.331   6.540   1.585  0.1829  0.2443  1.3507
  149MOL   H14447800   7.073   6.579   1.620  2.3917  1.0156 -0.0873
  149MOL   H14547801   7.140   6.448   1.537 -1.0653 -1.0031  0.8622
  149MOL   C14647802   6.932   6.499   1.473  0.0517  0.8468  0.5923
  149MOL   C14747803   6.837   6.617   1.493 -0.4064  0.0470  0.5672
  149MOL   C14847804   6.765   6.670   1.385 -0.0523 -0.1199 -0.2741
  149MOL  Cl14947805   6.800   6.627   1.225 -0.1101  0.0627  0.2235
  149MOL   C15047806   6.666   6.772   1.410  0.2545  0.4411 -0.1290
  149MOL   C15147807   6.643   6.811   1.537  0.3324 -0.0984  0.1862
  149MOL   C15247808   6.725   6.766   1.639 -0.5143  0.2236 -0.0668
  149MOL   C15347809   6.821   6.671   1.622  0.1311  0.1654  0.2822
  149MOL   C15447810   6.874   6.373   1.549 -0.5877  0.7477  1.0509
  149MOL   H15547811   6.938   6.480   1.366  0.3405 -3.5132  1.2874
  149MOL   H15647812   6.595   6.801   1.334  2.7327  0.3072 -2.5660
  149MOL   H15747813   6.570   6.886   1.562  0.0894 -0.4961  0.6689
  149MOL   H15847814   6.720   6.813   1.736  1.6902 -0.5145  0.4203
  149MOL   H15947815   6.879   6.625   1.700  1.4001 -2.4212 -2.1102
  149MOL   H16047816   6.767   6.368   1.529 -0.2601  0.4068 -0.6774
  149MOL   H16147817   6.874   6.394   1.656 -0.1359  1.5633  0.8896
  149MOL   C16247818   6.931   6.235   1.500 -0.0670 -0.0986  0.8210
  149MOL   C16347819   6.952   6.225   1.344  0.0067 -0.4605  0.1108
  149MOL   C16447820   7.081   6.220   1.286 -0.2926  0.3640  0.3824
  149MOL  Cl16547821   7.225   6.217   1.383  0.1388 -0.3835  0.1122
  149MOL   C16647822   7.102   6.224   1.148 -0.6371  0.0986 -0.0694
  149MOL   C16747823   6.990   6.197   1.067 -0.5565  0.5981 -0.8368
  149MOL   C16847824   6.861   6.212   1.120 -0.0170 -0.7630  0.0273
  149MOL   C16947825   6.844   6.233   1.259  0.1400 -0.4136 -0.3069
  149MOL   C17047826   6.847   6.125   1.572 -0.0850  0.5725  0.1219
  149MOL   H17147827   7.031   6.234   1.544  0.8737 -0.5061 -1.2573
  149MOL   H17247828   7.204   6.218   1.112  0.2652 -0.2482  2.4223
  149MOL   H17347829   7.008   6.180   0.962 -0.6003  0.2847 -0.7942
  149MOL   H17447830   6.780   6.195   1.050 -1.5765 -0.0971  1.6175
  149MOL   H17547831   6.745   6.247   1.300  0.5517  0.2343  0.4943
  149MOL   H17647832   6.746   6.119   1.532  0.2100 -2.5696 -0.2570
  149MOL   H17747833   6.834   6.160   1.674  0.9457  0.3477  0.3364
  149MOL   C17847834   6.904   5.979   1.584 -0.3248 -0.5175  0.0872
  149MOL   C17947835   6.946   5.923   1.445  0.0625 -0.1578 -0.2249
  149MOL   C18047836   7.081   5.884   1.416  0.0386  0.2265  0.3477
  149MOL  Cl18147837   7.212   5.901   1.534  0.2204  0.3988 -0.3644
  149MOL   C18247838   7.105   5.822   1.293 -1.1883  0.5054  1.0777
  149MOL   C18347839   7.005   5.809   1.200 -0.6803  0.1871 -1.0803
  149MOL   C18447840   6.869   5.856   1.226 -0.4911  0.6797  0.7925
  149MOL   C18547841   6.843   5.913   1.349  0.1087 -0.6401 -0.4643
  149MOL   C18647842   6.820   5.880   1.669  0.4469 -0.1007 -1.2425
  149MOL   H18747843   6.996   5.990   1.641 -0.1776  0.5963 -0.3558
  149MOL   H18847844   7.207   5.789   1.275 -1.4023  0.5591 -0.3178
  149MOL   H18947845   7.025   5.760   1.105 -0.0873  1.9778 -1.8973
  149MOL   H19047846   6.796   5.853   1.146  1.0604  0.5054 -0.6692
  149MOL   H19147847   6.748   5.958   1.372  0.6182  0.0960  0.2283
  149MOL   H19247848   6.720   5.881   1.625  0.2511  0.7070 -0.7774
  149MOL   H19347849   6.812   5.916   1.771  1.1224  1.6341 -1.7934
  149MOL   C19447850   6.867   5.735   1.670 -0.7447 -0.0919 -0.1461
  149MOL   C19547851   6.750   5.644   1.698 -0.0681  0.0421  0.0439
  149MOL   C19647852   6.683   5.569   1.597  0.5249  0.2606  0.1266
  149MOL  Cl19747853   6.718   5.585   1.426  0.1785  0.2252 -0.2312
  149MOL   C19847854   6.582   5.476   1.626 -0.6147 -0.0475 -0.2426
  149MOL   C19947855   6.543   5.458   1.760  1.0332 -0.7213 -0.5682
  149MOL   C20047856   6.616   5.522   1.865  0.1189 -0.1596  0.4564
  149MOL   C20147857   6.714   5.618   1.830  0.2626 -0.5355  0.4219
  149MOL   C20247858   6.990   5.714   1.766 -0.7428 -0.0677  0.1651
  149MOL   H20347859   6.898   5.713   1.567  0.4654  0.6082  0.0566
  149MOL   H20447860   6.532   5.426   1.544  0.6393  1.0403 -1.6768
  149MOL   H20547861   6.455   5.397   1.773  2.0323 -1.5368  2.7266
  149MOL   H20647862   6.583   5.521   1.968 -0.6265  0.5936  0.2310
  149MOL   H20747863   6.765   5.663   1.913 -0.8728  0.9293  0.3333
  149MOL   H20847864   6.962   5.737   1.869 -0.0764  1.9381 -0.0668
  149MOL   H20947865   7.069   5.785   1.741  0.2916 -0.9452  0.8803
  149MOL   C21047866   7.057   5.573   1.760  0.2383 -0.5053  0.4039
  149MOL   C21147867   6.981   5.460   1.837  0.3713  0.3091 -0.7162
  149MOL   C21247868   6.934   5.338   1.774  0.1145 -0.6556 -0.3107
  149MOL  Cl21347869   6.946   5.317   1.607  0.3540 -0.0725 -0.0196
  149MOL   C21447870   6.873   5.237   1.848  0.2163 -0.2572  0.5953
  149MOL   C21547871   6.853   5.258   1.991 -0.0940  0.7074 -0.3201
  149MOL   C21647872   6.917   5.363   2.056  0.5129  0.5741 -0.4497
  149MOL   C21747873   6.978   5.467   1.977  0.2881 -0.3952  0.5901
  149MOL   C21847874   7.205   5.588   1.811  0.5802  0.2929 -0.0042
  149MOL   H21947875   7.070   5.553   1.654 -2.0241 -2.0245  0.3738
  149MOL   H22047876   6.827   5.163   1.785 -1.8174  0.6001  1.0191
  149MOL   H22147877   6.783   5.194   2.043 -1.8709  3.3137  0.5887
  149MOL   H22247878   6.914   5.353   2.164 -0.7520 -0.9768 -0.6095
  149MOL   H22347879   7.029   5.546   2.031  0.9785 -0.1296 -0.4355
  149MOL   H22447880   7.207   5.638   1.908  2.1570  1.3081 -0.5304
  149MOL   H22547881   7.268   5.647   1.743  1.0412 -0.6685 -0.4224
  149MOL   C22647882   7.284   5.453   1.832  0.1215  0.2856  0.0282
  149MOL   C22747883   7.395   5.489   1.934 -0.1234 -0.6015 -0.5761
  149MOL   C22847884   7.392   5.466   2.076  0.1558  0.4617 -0.2099
  149MOL  Cl22947885   7.260   5.380   2.157 -0.0879 -0.0543  0.3061
  149MOL   C23047886   7.499   5.504   2.156  0.3352  0.7207 -0.5127
  149MOL   C23147887   7.610   5.571   2.104 -0.2394 -0.8453  0.1546
  149MOL   C23247888   7.615   5.598   1.966 -0.3490 -0.2944  0.3309
  149MOL   C23347889   7.512   5.546   1.882  0.6289 -0.9384  0.6589
  149MOL   C23447890   7.328   5.370   1.706 -0.2258 -0.6580  0.2633
  149MOL   H23547891   7.219   5.389   1.892  2.2350 -0.9137  1.0903
  149MOL   H23647892   7.492   5.482   2.261  0.6706  1.3758 -0.3532
  149MOL   H23747893   7.694   5.583   2.171  1.0147  0.5006 -1.5998
  149MOL   H23847894   7.701   5.644   1.920  0.4502  0.3169  2.3963
  149MOL   H23947895   7.520   5.553   1.774  1.4537 -0.4765  0.7506
  149MOL   H24047896   7.372   5.440   1.634 -0.1188 -1.4277 -0.4261
  149MOL   H24147897   7.239   5.348   1.647  0.5538  1.4471 -1.7819
  149MOL   C24247898   7.420   5.252   1.728  0.6435  0.0600  0.7916
  149MOL   C24347899   7.515   5.238   1.606  0.6911  0.1596  0.0675
  149MOL   C24447900   7.646   5.286   1.609 -0.2738 -0.1494  0.0137
  149MOL  Cl24547901   7.720   5.348   1.754 -0.3015  0.0415  0.0406
  149MOL   C24647902   7.713   5.299   1.486 -0.6258 -0.4946  0.8317
  149MOL   C24747903   7.667   5.246   1.361  0.5877  0.1801  0.1906
  149MOL   C24847904   7.536   5.204   1.358  0.1597  0.5059 -0.8026
  149MOL   C24947905   7.460   5.191   1.480 -0.5816 -0.5003 -0.7526
  149MOL   C25047906   7.336   5.133   1.775  0.1861  0.3108 -0.0418
  149MOL   H25147907   7.482   5.283   1.812  0.7637  1.3129  0.2576
  149MOL   H25247908   7.816   5.331   1.489 -0.5186 -0.0441 -3.9324
  149MOL   H25347909   7.727   5.257   1.272 -0.5104  0.0333 -0.5764
  149MOL   H25447910   7.493   5.169   1.265 -2.7448 -0.0457  0.6698
  149MOL   H25547911   7.362   5.146   1.475  0.2848 -2.4140 -1.0123
  149MOL   H25647912   7.269   5.114   1.691  0.3458  0.8659 -0.2989
  149MOL   H25747913   7.268   5.165   1.854  0.8821  0.7474  0.3879
  149MOL   C25847914   7.414   5.016   1.831  0.1365  0.5932  0.4429
  149MOL   C25947915   7.332   4.888   1.820 -0.5093 -0.2446 -0.1051
  149MOL   C26047916   7.378   4.778   1.750 -0.0708 -0.2887 -0.2346
  149MOL  Cl26147917   7.512   4.791   1.639  0.2000 -0.5443  0.0431
  149MOL   C26247918   7.308   4.657   1.752 -0.2537 -0.4343 -0.4961
  149MOL   C26347919   7.187   4.652   1.830 -0.3906  0.1251 -0.0124
  149MOL   C26447920   7.139   4.762   1.903  0.1114  0.1337  0.1522
  149MOL   C26547921   7.212   4.877   1.894  0.0687  0.3060  0.4459
  149MOL   C26647922   7.454   5.046   1.974 -0.2670 -0.0853 -0.0855
  149MOL   H26747923   7.508   5.021   1.776 -0.3686  0.0905 -0.4794
  149MOL   H26847924   7.344   4.576   1.691 -0.7590 -1.1637  0.1575
  149MOL   H26947925   7.130   4.560   1.834  0.1831 -0.1970  1.0569
  149MOL   H27047926   7.042   4.763   1.951  0.5110 -2.3996  1.1175
  149MOL   H27147927   7.175   4.962   1.950  0.6022  1.0394 -0.3135
  149MOL   H27247928   7.365   5.067   2.034 -0.0070 -0.8555  0.5757
  149MOL   H27347929   7.503   5.143   1.973  0.3223 -0.3339  1.8567
  149MOL   C27447930   7.542   4.940   2.055  0.2846 -0.1015  0.2030
  149MOL   C27547931   7.553   4.984   2.200  0.0934  0.0558  0.3003
  149MOL   C27647932   7.469   4.932   2.297 -0.1089  0.6260  0.3679
  149MOL  Cl27747933   7.346   4.812   2.261  0.2093  0.2008 -0.1091
  149MOL   C27847934   7.483   4.987   2.429 -0.0345 -0.5888  1.1139
  149MOL   C27947935   7.571   5.090   2.455 -0.7079  0.0317  0.2391
  149MOL   C28047936   7.647   5.146   2.357 -0.0285 -0.5735  0.1762
  149MOL   C28147937   7.640   5.092   2.230  0.4157 -0.2996 -0.1833
  149MOL   C28247938   7.676   4.926   1.982  0.4599  0.0803  0.0566
  149MOL   H28347939   7.486   4.846   2.048  0.1447  0.0371 -0.6004
  149MOL   H28447940   7.419   4.949   2.508 -1.0297 -0.2286  0.4921
  149MOL   H28547941   7.599   5.120   2.554  0.2479  1.1652 -0.3626
  149MOL   H28647942   7.726   5.212   2.390  0.8819 -0.9355 -1.2403
  149MOL   H28747943   7.705   5.138   2.158  0.2594  0.6123  0.2433
  149MOL   H28847944   7.717   5.022   1.948  0.4087 -0.5871 -1.9788
  149MOL   H28947945   7.651   4.869   1.892  1.1377 -0.7982  0.4238
  149MOL   C29047946   7.795   4.850   2.047  0.3765 -0.3065  0.3321
  149MOL   C29147947   7.924   4.862   1.963 -0.4952  0.2240 -0.2760
  149MOL   C29247948   8.044   4.912   2.013 -0.3583 -0.3202  0.1474
  149MOL  Cl29347949   8.055   4.991   2.167  0.4946  0.4662 -0.2736
  149MOL   C29447950   8.158   4.917   1.938 -0.1837 -0.4814 -0.4354
  149MOL   C29547951   8.153   4.863   1.809  0.3508 -0.5181 -0.9265
  149MOL   C29647952   8.039   4.810   1.750 -0.1560 -0.3944 -0.6212
  149MOL   C29747953   7.926   4.799   1.833  0.2974 -0.5430  0.3664
  149MOL   C29847954   7.757   4.703   2.086 -0.0520  0.1789 -1.1241
  149MOL   H29947955   7.803   4.903   2.142 -1.6432  0.9929 -0.2098
  149MOL   H30047956   8.254   4.955   1.969  0.7566 -2.4444 -0.9277
  149MOL   H30147957   8.242   4.876   1.749  1.3002  0.5327  0.6646
  149MOL   H30247958   8.043   4.765   1.652 -0.7280  1.8680 -1.7224
  149MOL   H30347959   7.835   4.751   1.800 -0.0420  0.4497 -0.1802
  149MOL   H30447960   7.739   4.660   1.987  1.0184 -1.2879 -0.6998
  149MOL   H30547961   7.661   4.694   2.138  1.0186 -1.6130  0.6193
  149MOL   C30647962   7.864   4.617   2.155 -0.5342 -0.0918  0.3418
  149MOL   C30747963   7.825   4.474   2.151 -0.3081  0.6709 -0.1368
  149MOL   C30847964   7.840   4.394   2.035 -0.3945 -0.8418 -0.2361
  149MOL  Cl30947965   7.922   4.459   1.896 -0.4127  0.1191  0.1174
  149MOL   C31047966   7.790   4.263   2.027 -0.5812 -0.6690 -0.5866
  149MOL   C31147967   7.739   4.202   2.141 -0.1737 -0.7454 -0.5888
  149MOL   C31247968   7.720   4.279   2.252  0.3441 -0.7690  0.5743
  149MOL   C31347969   7.750   4.414   2.253  1.3229  0.0163  0.1127
  149MOL   C31447970   7.899   4.657   2.294 -0.2410  0.7841 -0.8611
  149MOL   H31547971   7.955   4.625   2.096 -0.2069  0.0374  0.8615
  149MOL   H31647972   7.800   4.214   1.932  1.9805  1.3458 -1.4300
  149MOL   H31747973   7.702   4.101   2.137 -2.5080 -0.0221  1.5840
  149MOL   H31847974   7.674   4.235   2.339  0.9273 -2.0213  0.2565
  149MOL   H31947975   7.725   4.472   2.340  0.4549 -0.2917  0.0699
  149MOL   H32047976   7.805   4.664   2.347 -0.2685 -0.6967 -0.7166
  149MOL   H32147977   7.952   4.753   2.294 -0.4592  0.9153  0.6731
  149MOL   H32247978   7.961   4.582   2.344  0.3670  1.8156 -0.0315
  150MOL     C147979   6.011   5.988   8.355 -0.5337  0.8500 -0.5316
  150MOL     C247980   5.920   5.904   0.029  1.0308 -0.1108  0.2554
  150MOL     C347981   5.960   5.862   0.160 -0.6217  0.3672 -0.1829
  150MOL    Cl447982   6.125   5.904   0.203 -0.1383 -0.2338 -0.2157
  150MOL     C547983   5.873   5.793   0.248 -0.5098  0.2409 -0.9964
  150MOL     C647984   5.746   5.760   0.199  0.6972 -0.2136 -0.4933
  150MOL     C747985   5.707   5.796   0.071 -1.0979 -0.8195 -0.4376
  150MOL     C847986   5.792   5.869   8.404  0.0482 -0.0220 -0.1005
  150MOL     C947987   5.981   6.138   8.353  0.6911  0.4168 -0.8986
  150MOL    H1047988   6.116   5.963   8.368 -0.9912 -0.3685  0.8873
  150MOL    H1147989   5.917   5.756   0.339  1.6030  1.4194 -1.4861
  150MOL    H1247990   5.683   5.697   0.260  2.1432 -0.1139  1.1675
  150MOL    H1347991   5.613   5.752   0.041 -2.8815  1.3094  1.8626
  150MOL    H1447992   5.760   5.881   8.302  0.1374 -0.4608 -0.1840
  150MOL    H1547993   6.001   6.171   0.035  0.0459 -0.2086 -0.5644
  150MOL    H1647994   5.873   6.149   8.346  0.6261  1.6007  1.3064
  150MOL    H1747995   6.001   5.949   8.254  0.1535  2.4592 -1.2337
  150MOL    C1847996   6.047   6.219   8.233 -0.4978  0.3090  0.3047
  150MOL    C1947997   6.198   6.216   8.221 -0.4832 -0.6361 -1.1943
  150MOL    C2047998   6.269   6.217   8.097  0.0379 -0.4171  0.2232
  150MOL   Cl2147999   6.194   6.221   7.941 -0.2501  0.1178 -0.1390
  150MOL    C2248000   6.402   6.244   8.100  0.3857 -0.4959  0.1499
  150MOL    C2348001   6.474   6.259   8.221 -0.4275 -0.3967 -1.2800
  150MOL    C2448002   6.405   6.238   8.343 -0.4824 -0.1690  0.4442
  150MOL    C2548003   6.270   6.230   8.343 -0.2339 -0.2405 -0.0361
  150MOL    C2648004   6.001   6.363   8.237 -0.5099 -0.3876 -0.3444
  150MOL    H2748005   6.007   6.174   8.142 -0.4293 -1.2374  1.0198
  150MOL    H2848006   6.440   6.271   8.002 -0.1040 -1.9044 -0.4284
  150MOL    H2948007   6.580   6.277   8.217  0.2691 -3.6989  1.1114
  150MOL    H3048008   6.449   6.239   0.021  0.6546  0.5458 -0.0535
  150MOL    H3148009   6.226   6.241   0.021  0.0884  0.3333  0.0440
  150MOL    H3248010   6.069   6.422   8.176 -1.3038  0.3832 -0.4845
  150MOL    H3348011   6.013   6.399   8.339 -0.0706 -1.2412 -0.0839
  150MOL    C3448012   5.856   6.389   8.192  0.2502 -0.3534 -0.1331
  150MOL    C3548013   5.828   6.346   8.056 -0.8068 -0.4500 -0.2127
  150MOL    C3648014   5.733   6.244   8.027 -0.5133 -0.3542  0.7908
  150MOL   Cl3748015   5.622   6.170   8.142 -0.2324 -0.4080  0.0563
  150MOL    C3848016   5.722   6.190   7.898 -0.6219 -0.5686  0.1147
  150MOL    C3948017   5.795   6.243   7.792  0.9042 -0.2157 -0.5785
  150MOL    C4048018   5.882   6.351   7.821  0.1083  0.4326 -0.5712
  150MOL    C4148019   5.909   6.391   7.953 -0.5539 -0.4159 -0.0855
  150MOL    C4248020   5.809   6.533   8.230 -0.3547  0.2304  0.7628
  150MOL    H4348021   5.793   6.326   8.255 -0.1229 -0.8936 -1.0384
  150MOL    H4448022   5.652   6.111   7.877  0.6955 -2.0980  1.4016
  150MOL    H4548023   5.779   6.209   7.690  0.8396 -0.5288 -0.4656
  150MOL    H4648024   5.948   6.404   7.754  2.0858 -4.6179 -2.8441
  150MOL    H4748025   5.989   6.463   7.964  0.1506 -0.8024 -2.5003
  150MOL    H4848026   5.701   6.526   8.214 -0.1750  0.0215 -0.3728
  150MOL    H4948027   5.850   6.607   8.162  2.1473 -1.0597  0.8107
  150MOL    C5048028   5.829   6.596   8.371 -0.0215  0.1998  0.7256
  150MOL    C5148029   5.818   6.490   0.063  0.1708 -0.4843  0.5706
  150MOL    C5248030   5.926   6.458   0.149 -0.1046  0.4730 -0.1737
  150MOL   Cl5348031   6.068   6.560   0.169  0.0440  0.0518  0.2516
  150MOL    C5448032   5.918   6.338   0.228  0.0500  0.1328 -0.4078
  150MOL    C5548033   5.805   6.260   0.225  1.0095 -1.0649 -0.0275
  150MOL    C5648034   5.699   6.292   0.142  0.2845 -0.2907  0.0388
  150MOL    C5748035   5.704   6.408   0.067 -0.4101  0.4024 -0.0302
  150MOL    C5848036   5.738   6.722   8.393 -0.7081  0.1594  0.2021
  150MOL    H5948037   5.934   6.623   8.361  0.0346  0.5078  2.0988
  150MOL    H6048038   6.001   6.319   0.294 -1.0775 -0.9777  0.7004
  150MOL    H6148039   5.792   6.171   0.285  0.0435 -0.5661  0.5025
  150MOL    H6248040   5.618   6.223   0.122 -1.0349  1.3596 -0.4709
  150MOL    H6348041   5.637   6.419   8.404 -0.1743 -0.2348 -0.3134
  150MOL    H6448042   5.634   6.699   8.416 -0.3347 -0.6741  1.0811
  150MOL    H6548043   5.754   6.782   8.303 -0.3932 -1.9171 -1.1659
  150MOL    C6648044   5.776   6.810   0.094 -0.1707 -0.1458 -0.7302
  150MOL    C6748045   5.661   6.852   0.191 -0.0528 -0.6187  0.6367
  150MOL    C6848046   5.547   6.914   0.140 -0.3032 -0.0126  0.9681
  150MOL   Cl6948047   5.522   6.945   8.394 -0.4740  0.2797 -0.3470
  150MOL    C7048048   5.436   6.953   0.229 -0.7825 -0.2861 -0.2328
  150MOL    C7148049   5.445   6.922   0.365 -0.2198  0.2315 -0.0178
  150MOL    C7248050   5.565   6.866   0.419  0.4895 -0.4023 -0.0862
  150MOL    C7348051   5.669   6.830   0.328 -0.3193 -0.7819  0.2779
  150MOL    C7448052   5.863   6.929   0.043 -0.0114 -0.1317 -0.0630
  150MOL    H7548053   5.840   6.744   0.153 -1.7376 -0.6114  0.4628
  150MOL    H7648054   5.353   6.998   0.177 -1.4213 -0.0894  0.9380
  150MOL    H7748055   5.365   6.941   0.436 -1.1531 -0.4861 -0.8624
  150MOL    H7848056   5.582   6.867   0.526  0.4073 -0.9291 -0.0660
  150MOL    H7948057   5.760   6.792   0.372 -1.1241 -1.0431  1.7663
  150MOL    H8048058   5.805   6.987   8.392  0.7050 -0.4718 -0.9233
  150MOL    H8148059   5.963   6.895   0.015  0.0115  0.8901 -1.2770
  150MOL    C8248060   5.898   7.034   0.159 -0.3965  0.2380  0.3329
  150MOL    C8348061   5.931   7.177   0.110  0.1876  0.2762  0.1013
  150MOL    C8448062   5.862   7.292   0.157 -0.2160 -0.4971  0.1216
  150MOL   Cl8548063   5.739   7.285   0.275  0.0218 -0.0981  0.1459
  150MOL    C8648064   5.892   7.419   0.105 -0.1272  0.3376 -0.1966
  150MOL    C8748065   6.000   7.436   0.016 -0.4467 -0.6196 -0.2699
  150MOL    C8848066   6.065   7.322   8.379 -0.1837 -0.1354 -0.3141
  150MOL    C8948067   6.032   7.191   0.011  0.2170 -1.5000  0.4289
  150MOL    C9048068   6.012   6.967   0.253  0.0467 -0.6297  0.8122
  150MOL    H9148069   5.812   7.042   0.227 -2.5427 -1.8261 -2.0230
  150MOL    H9248070   5.838   7.505   0.141  1.7071  0.6636  1.9497
  150MOL    H9348071   6.028   7.535   8.405 -1.9419 -0.1061 -0.0206
  150MOL    H9448072   6.147   7.319   8.309  0.5198 -0.8823  0.5370
  150MOL    H9548073   6.089   7.105   8.403  1.2942 -0.5495 -0.3466
  150MOL    H9648074   6.097   6.979   0.186 -0.6987 -0.9476 -0.1980
  150MOL    H9748075   5.988   6.864   0.279 -1.1033 -0.3709  0.7849
  150MOL    C9848076   6.059   7.039   0.383  0.4256  0.3726  0.4738
  150MOL    C9948077   6.214   7.005   0.404  0.9069  0.3310 -0.2887
  150MOL   C10048078   6.327   7.091   0.374 -0.3782  0.6490 -0.3645
  150MOL  Cl10148079   6.306   7.237   0.290 -0.1883 -0.1215 -0.1741
  150MOL   C10248080   6.460   7.050   0.409 -0.4297  0.4588  0.4425
  150MOL   C10348081   6.488   6.932   0.481 -0.1528 -0.3244 -0.4101
  150MOL   C10448082   6.378   6.842   0.503  0.1870 -0.7011 -0.2777
  150MOL   C10548083   6.246   6.878   0.460 -0.0784 -0.3128 -0.6084
  150MOL   C10648084   5.957   7.009   0.498 -0.5736 -0.0317 -0.3295
  150MOL   H10748085   6.052   7.146   0.364  1.1145  0.2954 -0.2652
  150MOL   H10848086   6.544   7.107   0.374 -0.3575  0.4077  0.5345
  150MOL   H10948087   6.588   6.903   0.509 -0.5548 -2.3579 -0.9895
  150MOL   H11048088   6.401   6.754   0.562  0.0334 -0.2888  0.4072
  150MOL   H11148089   6.161   6.819   0.491 -0.2274  0.4166  0.3856
  150MOL   H11248090   5.952   6.901   0.506  1.2003 -0.0308  1.0434
  150MOL   H11348091   5.854   7.041   0.481 -0.6306  0.5061  1.0077
  150MOL   C11448092   5.997   7.074   0.625  0.6720  0.0131 -0.2058
  150MOL   C11548093   6.092   6.986   0.707  0.0828  0.0049 -0.1881
  150MOL   C11648094   6.225   7.027   0.739 -0.2202  0.5309 -0.0564
  150MOL  Cl11748095   6.287   7.173   0.678  0.1263  0.1265  0.3448
  150MOL   C11848096   6.312   6.948   0.810 -0.2939  0.2530  0.4977
  150MOL   C11948097   6.271   6.827   0.864  0.3938 -0.1711  0.4383
  150MOL   C12048098   6.138   6.784   0.842 -0.3884 -0.0952 -0.4754
  150MOL   C12148099   6.047   6.864   0.763 -0.2880 -0.1341 -0.7437
  150MOL   C12248100   5.877   7.107   0.716  0.1686 -0.8393  0.0980
  150MOL   H12348101   6.033   7.173   0.596 -0.1434  0.7607  1.2682
  150MOL   H12448102   6.408   6.993   0.833 -0.1640  0.7769 -0.9755
  150MOL   H12548103   6.340   6.769   0.924 -1.2647 -2.6495  0.0468
  150MOL   H12648104   6.096   6.693   0.883  0.2196 -0.6019 -0.9609
  150MOL   H12748105   5.944   6.833   0.753  0.5438 -3.4219  0.0984
  150MOL   H12848106   5.850   7.028   0.786  1.2597 -0.0202  1.4475
  150MOL   H12948107   5.793   7.118   0.647  3.2949 -0.7705 -3.8581
  150MOL   C13048108   5.891   7.239   0.797 -0.2241 -0.9345  0.1241
  150MOL   C13148109   5.911   7.360   0.711  0.0108 -0.7930  0.0936
  150MOL   C13248110   5.805   7.416   0.635  0.0633  0.1556 -0.0015
  150MOL  Cl13348111   5.639   7.375   0.653  0.1171  0.2401  0.3511
  150MOL   C13448112   5.841   7.512   0.539 -0.4281  0.5211 -0.0069
  150MOL   C13548113   5.970   7.565   0.524 -0.3513 -0.0501  0.5320
  150MOL   C13648114   6.068   7.511   0.603 -0.1794 -0.0540 -0.0014
  150MOL   C13748115   6.037   7.415   0.701  0.5106  0.0788 -0.0240
  150MOL   C13848116   5.994   7.223   0.918  0.7851  0.4167  0.6856
  150MOL   H13948117   5.795   7.256   0.847  1.0036  0.9724  1.9347
  150MOL   H14048118   5.768   7.561   0.476  0.8615 -1.2549 -3.0213
  150MOL   H14148119   5.992   7.629   0.439  0.5556  1.2580  1.7176
  150MOL   H14248120   6.170   7.539   0.585 -0.4192 -0.2627 -1.7758
  150MOL   H14348121   6.124   7.365   0.740  0.8699  0.3471 -0.4755
  150MOL   H14448122   5.998   7.326   0.953 -0.6668  0.4029  0.9155
  150MOL   H14548123   6.093   7.201   0.880  0.4280 -0.6997  0.3814
  150MOL   C14648124   5.947   7.124   1.029  0.2912 -0.3500  0.1897
  150MOL   C14748125   5.823   7.177   1.102 -0.5614 -0.9500  0.3588
  150MOL   C14848126   5.696   7.122   1.083 -0.0507  0.6625 -0.3461
  150MOL  Cl14948127   5.687   6.962   1.020  0.2249  0.0268 -0.3789
  150MOL   C15048128   5.580   7.195   1.116 -0.2046  0.5667  0.6827
  150MOL   C15148129   5.594   7.316   1.190  0.4207  0.3836 -0.2802
  150MOL   C15248130   5.718   7.368   1.217  0.2556 -0.0222  1.0265
  150MOL   C15348131   5.832   7.299   1.170 -0.5831  0.4241 -0.5891
  150MOL   C15448132   6.070   7.111   1.126 -0.0478 -0.8666 -0.1939
  150MOL   H15548133   5.913   7.032   0.981 -3.5660 -0.4997  3.0275
  150MOL   H15648134   5.483   7.148   1.105  0.2981 -0.4920  0.7750
  150MOL   H15748135   5.516   7.374   1.235 -0.8369 -0.2359 -1.6204
  150MOL   H15848136   5.712   7.468   1.259 -1.3449  0.0466  0.6871
  150MOL   H15948137   5.928   7.348   1.181 -0.1655 -0.8515  2.0057
  150MOL   H16048138   6.120   7.207   1.140 -1.8597  0.0385  0.1684
  150MOL   H16148139   6.144   7.069   1.057 -0.2406  0.3170 -1.1442
  150MOL   C16248140   6.063   7.037   1.266  0.0904  0.5178  0.2350
  150MOL   C16348141   6.012   6.894   1.247  0.1102 -0.0566 -0.5255
  150MOL   C16448142   6.097   6.781   1.240  0.3368  0.1676  0.2546
  150MOL  Cl16548143   6.266   6.802   1.237  0.2009  0.2243  0.1695
  150MOL   C16648144   6.044   6.658   1.208 -0.1387  0.2247 -0.1954
  150MOL   C16748145   5.910   6.633   1.200  0.3677 -0.7079 -0.8390
  150MOL   C16848146   5.826   6.737   1.226  0.3192 -0.6388  0.2448
  150MOL   C16948147   5.873   6.869   1.251  0.8424 -0.1840 -0.3668
  150MOL   C17048148   5.986   7.096   1.387  0.4213  0.2044 -0.5085
  150MOL   H17148149   6.168   7.039   1.297 -0.1298  0.2844  0.9967
  150MOL   H17248150   6.112   6.575   1.196 -0.7179 -0.3940  0.7017
  150MOL   H17348151   5.874   6.533   1.183  0.7922 -1.4665  2.2628
  150MOL   H17448152   5.721   6.718   1.237 -0.2925  3.0283  1.4042
  150MOL   H17548153   5.799   6.945   1.270  2.1203  0.7884  0.8719
  150MOL   H17648154   5.959   7.023   1.463  2.3070  3.0153  3.0108
  150MOL   H17748155   5.888   7.142   1.373  1.4164  2.5967  0.0714
  150MOL   C17848156   6.070   7.213   1.442  0.0198 -0.3797  0.1331
  150MOL   C17948157   6.186   7.160   1.522  0.8032  0.2934 -0.0778
  150MOL   C18048158   6.321   7.188   1.483  0.0618  0.5493  0.4908
  150MOL  Cl18148159   6.360   7.264   1.331 -0.5106  0.3856 -0.2404
  150MOL   C18248160   6.427   7.135   1.559 -0.3438 -0.6231 -0.1140
  150MOL   C18348161   6.403   7.060   1.673  0.8746 -0.5332  0.7731
  150MOL   C18448162   6.272   7.030   1.715  0.7943  0.3539 -0.2775
  150MOL   C18548163   6.161   7.067   1.627 -0.3345  0.5907  0.2310
  150MOL   C18648164   5.993   7.326   1.518 -0.3291  0.1525  0.2627
  150MOL   H18748165   6.114   7.280   1.368 -3.3890  0.8778 -0.8088
  150MOL   H18848166   6.527   7.161   1.527  0.1030 -2.0898  0.0341
  150MOL   H18948167   6.490   7.025   1.728  3.3961  3.4358 -0.4685
  150MOL   H19048168   6.246   6.976   1.805 -0.2471  3.1586  1.1474
  150MOL   H19148169   6.066   7.038   1.671 -0.0671 -1.8489 -0.7273
  150MOL   H19248170   5.933   7.274   1.594 -1.2772  3.1585  1.6451
  150MOL   H19348171   5.914   7.358   1.450  1.0306 -1.9290 -2.4122
  150MOL   C19448172   6.069   7.449   1.561  0.6402 -0.6715 -0.2527
  150MOL   C19548173   6.179   7.437   1.665  0.8150 -0.3726  0.1034
  150MOL   C19648174   6.298   7.507   1.657  0.7602  0.1145  0.3834
  150MOL  Cl19748175   6.334   7.620   1.535  0.3815 -0.0793  0.2777
  150MOL   C19848176   6.399   7.484   1.756  0.0034 -0.0071  0.2811
  150MOL   C19948177   6.380   7.397   1.856  0.9251 -0.5933  0.1079
  150MOL   C20048178   6.257   7.329   1.861  0.6350 -1.2147  0.6786
  150MOL   C20148179   6.156   7.350   1.772  0.4565 -0.4488  0.3852
  150MOL   C20248180   5.957   7.553   1.607  0.2718  0.1889  0.5969
  150MOL   H20348181   6.124   7.483   1.473  0.3060 -0.3644 -0.3471
  150MOL   H20448182   6.493   7.537   1.750  1.1901 -2.1130 -0.3759
  150MOL   H20548183   6.458   7.371   1.925  1.9493  0.8178 -0.4878
  150MOL   H20648184   6.239   7.258   1.941 -0.4149  0.1735  1.6978
  150MOL   H20748185   6.061   7.299   1.772 -0.9510  2.0632 -0.0890
  150MOL   H20848186   5.973   7.586   1.709 -1.8340 -1.5657  1.5545
  150MOL   H20948187   5.858   7.508   1.590 -0.1177  0.8776  1.0409
  150MOL   C21048188   5.962   7.682   1.529  0.0515 -0.3703 -0.0366
  150MOL   C21148189   5.888   7.796   1.610  0.3025 -0.6573 -0.2539
  150MOL   C21248190   5.951   7.920   1.653  0.9624 -0.2739 -0.0074
  150MOL  Cl21348191   6.116   7.957   1.626 -0.1847 -0.0527  0.1970
  150MOL   C21448192   5.868   8.015   1.719 -0.5810  0.6596 -0.0355
  150MOL   C21548193   5.732   7.986   1.744 -0.7887 -0.3321  0.0189
  150MOL   C21648194   5.670   7.866   1.701  0.0666 -0.2220  0.5893
  150MOL   C21748195   5.753   7.771   1.636  0.3425  0.1344 -0.0383
  150MOL   C21848196   5.907   7.676   1.386  0.0987 -0.1569  0.0403
  150MOL   H21948197   6.062   7.726   1.530 -0.6570  1.3074  1.0720
  150MOL   H22048198   5.896   8.108   1.768 -1.6360  0.1580  1.5544
  150MOL   H22148199   5.666   8.053   1.797 -0.3968  0.5891 -0.6582
  150MOL   H22248200   5.568   7.843   1.729  0.2461  0.5972  1.9667
  150MOL   H22348201   5.704   7.682   1.602  0.1779  0.7084 -1.3207
  150MOL   H22448202   5.799   7.690   1.388  0.0935 -0.2747  0.5315
  150MOL   H22548203   5.912   7.576   1.342  1.9905  0.3956 -1.0380
  150MOL   C22648204   5.971   7.770   1.282  0.1039  0.9676  0.3534
  150MOL   C22748205   5.893   7.764   1.147  0.3420  0.6429  0.0823
  150MOL   C22848206   5.812   7.875   1.104  0.2202  0.6365 -0.0936
  150MOL  Cl22948207   5.800   8.017   1.211  0.0809  0.1555 -0.0934
  150MOL   C23048208   5.727   7.867   0.998  0.9462  0.7079  0.1122
  150MOL   C23148209   5.721   7.746   0.923 -0.5239 -0.2181 -0.8949
  150MOL   C23248210   5.806   7.639   0.957 -0.5257 -0.4274 -0.4077
  150MOL   C23348211   5.893   7.641   1.069  0.5966 -0.2503 -0.5446
  150MOL   C23448212   6.124   7.744   1.273  0.4895  0.4011  0.2203
  150MOL   H23548213   5.964   7.868   1.328 -0.1594 -0.1803  2.8409
  150MOL   H23648214   5.661   7.951   0.977 -0.6653  0.2357  3.0272
  150MOL   H23748215   5.651   7.732   0.842  0.3113 -1.5185 -1.4033
  150MOL   H23848216   5.813   7.546   0.904  0.6064 -1.6136  1.7585
  150MOL   H23948217   5.948   7.553   1.098 -1.1257 -1.4490 -0.8793
  150MOL   H24048218   6.149   7.639   1.288 -0.9287  0.2156  1.3945
  150MOL   H24148219   6.168   7.786   1.363 -0.4996  0.3419  0.7371
  150MOL   C24248220   6.198   7.786   1.148 -0.3475  0.3015  1.0487
  150MOL   C24348221   6.341   7.733   1.144 -0.2502  0.8532 -0.1649
  150MOL   C24448222   6.371   7.598   1.110  0.0955  0.4404 -0.1502
  150MOL  Cl24548223   6.238   7.486   1.054 -0.0894  0.3929  0.0650
  150MOL   C24648224   6.502   7.538   1.133 -0.1069 -0.6634 -0.8256
  150MOL   C24748225   6.605   7.612   1.189  0.0039 -0.5424 -0.3540
  150MOL   C24848226   6.572   7.745   1.224 -0.1154 -0.1993  0.1445
  150MOL   C24948227   6.447   7.806   1.207 -0.0853 -0.6637 -0.1909
  150MOL   C25048228   6.189   7.944   1.118  0.0118 -0.7129 -0.1289
  150MOL   H25148229   6.149   7.734   1.066  1.0795  2.7523 -1.4247
  150MOL   H25248230   6.526   7.442   1.091  0.8830 -1.3446  1.1929
  150MOL   H25348231   6.706   7.575   1.198 -0.4746 -1.9080 -0.5269
  150MOL   H25448232   6.643   7.802   1.283 -0.7349  1.0010 -0.2602
  150MOL   H25548233   6.424   7.900   1.256  0.7350  0.3336 -1.6933
  150MOL   H25648234   6.254   8.001   1.185  0.3066 -0.9549 -0.2067
  150MOL   H25748235   6.085   7.970   1.133  0.3421 -0.1317  1.1913
  150MOL   C25848236   6.221   7.983   0.978 -0.3105  0.0211  0.8473
  150MOL   C25948237   6.261   8.127   0.965 -0.9850 -0.7044  0.3698
  150MOL   C26048238   6.396   8.163   0.971  0.0696  0.0983 -0.0083
  150MOL  Cl26148239   6.525   8.045   1.000  0.0326  0.0635 -0.1158
  150MOL   C26248240   6.441   8.297   0.960 -0.0157 -0.0476 -1.0031
  150MOL   C26348241   6.343   8.399   0.927 -0.6631  0.5118  0.0634
  150MOL   C26448242   6.210   8.367   0.928 -0.0024  0.1635  0.2045
  150MOL   C26548243   6.170   8.231   0.941  0.1224 -0.4577 -0.4893
  150MOL   C26648244   6.097   7.948   0.886 -0.0096 -0.1000  0.1454
  150MOL   H26748245   6.299   7.920   0.934 -0.0971 -0.0136  1.2707
  150MOL   H26848246   6.541   8.338   0.960 -0.6675  1.5592 -0.3651
  150MOL   H26948247   6.365   0.082   0.907 -2.5214  0.8034 -0.5544
  150MOL   H27048248   6.131   0.017   0.906 -2.6272 -1.9805  2.4181
  150MOL   H27148249   6.066   8.203   0.940  0.7269 -2.9878  1.0909
  150MOL   H27248250   6.006   7.995   0.922  0.4083  1.5488 -0.9017
  150MOL   H27348251   6.066   7.844   0.892  0.0752 -0.0986  0.6349
  150MOL   C27448252   6.105   7.983   0.737  0.2584  0.1492  0.5704
  150MOL   C27548253   5.963   7.978   0.667  0.1518  0.2039  0.0615
  150MOL   C27648254   5.917   8.096   0.601 -0.1148 -0.1509  0.0612
  150MOL  Cl27748255   6.010   8.245   0.592 -0.0489 -0.0485 -0.2381
  150MOL   C27848256   5.794   8.087   0.535 -0.0614 -0.1531 -0.4574
  150MOL   C27948257   5.721   7.970   0.536  0.8994  0.8106 -0.6612
  150MOL   C28048258   5.763   7.854   0.598 -0.0395 -0.0140  0.5147
  150MOL   C28148259   5.886   7.861   0.662 -0.1272  0.4784  0.1600
  150MOL   C28248260   6.205   7.890   0.660 -0.0370  0.0266 -0.1390
  150MOL   H28348261   6.147   8.083   0.732  0.1790  0.1270 -0.5923
  150MOL   H28448262   5.741   8.167   0.485  0.5664 -1.6073 -3.5949
  150MOL   H28548263   5.624   7.957   0.491  1.0259 -0.9398 -0.4423
  150MOL   H28648264   5.698   7.768   0.590 -0.3356  0.2130  0.4608
  150MOL   H28748265   5.926   7.775   0.715  1.6928  1.4293  0.3526
  150MOL   H28848266   6.156   7.794   0.647 -2.8689  1.5219 -1.1350
  150MOL   H28948267   6.296   7.870   0.716 -0.3388 -0.2775  0.2430
  150MOL   C29048268   6.242   7.949   0.523  0.6907  0.6109  0.4243
  150MOL   C29148269   6.236   7.844   0.414  0.0987 -0.0907  0.2420
  150MOL   C29248270   6.128   7.841   0.312  0.7987 -0.1092  0.3103
  150MOL  Cl29348271   6.031   7.981   0.298 -0.2251  0.0143 -0.0571
  150MOL   C29448272   6.115   7.742   0.221 -0.1663 -0.2481  0.5557
  150MOL   C29548273   6.205   7.631   0.231  0.0283  0.4878 -0.0107
  150MOL   C29648274   6.310   7.632   0.333 -0.1211 -0.1286 -0.2747
  150MOL   C29748275   6.321   7.737   0.425 -0.6053 -0.2702  0.2026
  150MOL   C29848276   6.376   8.021   0.536  1.0305 -0.2618  0.7890
  150MOL   H29948277   6.162   8.019   0.499 -1.4817 -1.9072  0.0934
  150MOL   H30048278   6.037   7.750   0.146 -0.6185  0.4015  1.0966
  150MOL   H30148279   6.206   7.540   0.173 -3.4098  0.2473  0.2101
  150MOL   H30248280   6.379   7.549   0.335  0.2015  0.0498 -2.5627
  150MOL   H30348281   6.400   7.738   0.498 -1.0665  2.5086  0.7004
  150MOL   H30448282   6.442   7.938   0.564 -0.6202 -1.6262  0.7507
  150MOL   H30548283   6.372   8.087   0.622  0.4323 -0.9057  1.2635
  150MOL   C30648284   6.415   8.095   0.407 -0.4697  0.5537  0.2272
  150MOL   C30748285   6.567   8.109   0.384 -0.3215  1.1622 -0.1205
  150MOL   C30848286   6.617   8.142   0.259 -0.2015  0.1820  0.8802
  150MOL  Cl30948287   6.511   8.160   0.128 -0.3392 -0.6960 -0.5528
  150MOL   C31048288   6.754   8.150   0.232 -0.0029  0.1926 -0.0882
  150MOL   C31148289   6.853   8.134   0.332  0.7862 -0.2928 -0.0537
  150MOL   C31248290   6.803   8.089   0.455  0.2862  0.7227 -0.5827
  150MOL   C31348291   6.668   8.080   0.485  0.1666  0.3846 -0.3518
  150MOL   C31448292   6.352   8.240   0.401  0.5972 -0.2772 -0.4708
  150MOL   H31548293   6.378   8.041   0.320 -0.6113  0.8420  0.1063
  150MOL   H31648294   6.791   8.169   0.133  0.7427 -0.2499  0.1023
  150MOL   H31748295   6.961   8.140   0.320  0.5738  2.5013 -0.9119
  150MOL   H31848296   6.880   8.069   0.529  1.0763  0.8094 -1.3734
  150MOL   H31948297   6.640   8.054   0.586  3.1009  0.9821  0.6599
  150MOL   H32048298   6.417   8.306   0.343  0.4565 -1.3612 -1.8816
  150MOL   H32148299   6.337   8.277   0.502 -0.3912  0.2401 -0.8069
  150MOL   H32248300   6.258   8.230   0.347  1.0105 -1.5096 -0.9766
  151MOL     C148301   3.210   0.968   3.873 -0.0021 -0.2798 -0.4654
  151MOL     C248302   3.342   0.896   3.870  0.7551  0.0360 -0.1836
  151MOL     C348303   3.457   0.955   3.804  0.2365 -0.8650  0.1977
  151MOL    Cl448304   3.436   1.093   3.706  0.2003 -0.1497  0.3467
  151MOL     C548305   3.581   0.889   3.811  0.0137 -0.3209 -0.7415
  151MOL     C648306   3.589   0.770   3.873 -0.1332  0.1043 -0.1321
  151MOL     C748307   3.475   0.708   3.939  1.3907  0.1492  0.8168
  151MOL     C848308   3.354   0.781   3.944  0.1552 -0.2627  0.2513
  151MOL     C948309   3.216   1.075   3.986 -0.2033 -0.7390  0.1033
  151MOL    H1048310   3.202   1.011   3.773 -0.5317  0.0441 -0.2788
  151MOL    H1148311   3.656   0.937   3.751  1.3966 -2.7463 -1.0208
  151MOL    H1248312   3.667   0.697   3.856 -0.8162 -1.2512  2.2273
  151MOL    H1348313   3.491   0.615   3.993 -2.4495 -1.1317 -0.0593
  151MOL    H1448314   3.274   0.734   3.999  0.9129 -0.4409  1.1933
  151MOL    H1548315   3.261   1.165   3.943  0.9882 -0.7074  1.3965
  151MOL    H1648316   3.266   1.037   4.075  1.1525  3.5663  1.3293
  151MOL    H1748317   3.127   0.899   3.885 -0.0304  0.0270  1.2059
  151MOL    C1848318   3.079   1.124   4.024  0.3248  0.4191  0.8032
  151MOL    C1948319   2.988   1.158   3.910  0.2630 -0.3113 -0.2134
  151MOL    C2048320   2.849   1.103   3.907  0.1481  0.4511 -0.1689
  151MOL   Cl2148321   2.795   1.001   4.036  0.1759  0.0198  0.4558
  151MOL    C2248322   2.759   1.151   3.809  0.3153  0.2716 -0.5250
  151MOL    C2348323   2.806   1.245   3.713 -1.1420 -0.2088  0.0864
  151MOL    C2448324   2.934   1.298   3.721  0.4518 -0.9055 -0.0801
  151MOL    C2548325   3.029   1.253   3.811 -0.0419  0.3348  0.0262
  151MOL    C2648326   3.088   1.248   4.125 -0.0217 -0.6236  0.6542
  151MOL    H2748327   3.038   1.046   4.089 -1.1681 -0.6556 -1.3722
  151MOL    H2848328   2.657   1.116   3.806 -0.6587  3.0556 -1.2002
  151MOL    H2948329   2.749   1.286   3.631  0.2080 -1.0636 -1.3179
  151MOL    H3048330   2.962   1.371   3.647  0.4448 -0.8893 -0.0669
  151MOL    H3148331   3.129   1.293   3.812  0.0330  0.1497  1.0900
  151MOL    H3248332   2.988   1.287   4.146  0.4218  0.5480  0.6185
  151MOL    H3348333   3.142   1.329   4.077  0.6709 -0.2007  2.1262
  151MOL    C3448334   3.146   1.220   4.270  0.3715 -1.1564 -0.0270
  151MOL    C3548335   3.072   1.116   4.349 -0.0958 -0.1628  0.1913
  151MOL    C3648336   3.137   1.000   4.397  0.0932  0.5892 -0.8935
  151MOL   Cl3748337   3.296   0.951   4.352 -0.2367 -0.0673 -0.2554
  151MOL    C3848338   3.063   0.905   4.476  0.6176 -0.1951  1.1133
  151MOL    C3948339   2.934   0.944   4.522  0.4040  0.4159  0.0989
  151MOL    C4048340   2.873   1.063   4.484 -0.4483  0.4844 -0.2684
  151MOL    C4148341   2.936   1.138   4.387  0.3404 -0.5638  0.5205
  151MOL    C4248342   3.165   1.356   4.346  0.0065 -0.8112 -0.2544
  151MOL    H4348343   3.243   1.173   4.253 -0.2702 -1.6342 -2.4994
  151MOL    H4448344   3.111   0.814   4.507 -0.5515 -0.3823  2.4554
  151MOL    H4548345   2.880   0.896   4.602  0.2776  1.3966  0.5989
  151MOL    H4648346   2.779   1.097   4.527 -1.4470 -0.8269 -1.3704
  151MOL    H4748347   2.886   1.230   4.359  3.0435  0.4715 -1.1780
  151MOL    H4848348   3.075   1.417   4.349 -0.1466 -1.0999  1.6099
  151MOL    H4948349   3.239   1.414   4.291 -3.9279  2.8258 -2.0217
  151MOL    C5048350   3.204   1.362   4.501  0.5245  0.0618  1.4252
  151MOL    C5148351   3.175   1.498   4.560 -0.1045  0.3567 -0.0061
  151MOL    C5248352   3.060   1.532   4.624  0.6667 -0.1171 -0.2606
  151MOL   Cl5348353   2.924   1.421   4.626 -0.3220  0.6923  0.0366
  151MOL    C5448354   3.037   1.667   4.659 -1.4253  0.2250  0.1291
  151MOL    C5548355   3.139   1.763   4.645 -0.0359  0.0624  0.2494
  151MOL    C5648356   3.261   1.725   4.589 -0.6519 -0.4992 -0.1599
  151MOL    C5748357   3.278   1.593   4.542  0.9932  0.3181 -0.1693
  151MOL    C5848358   3.331   1.292   4.539 -0.6673  0.0720 -0.2233
  151MOL    H5948359   3.126   1.295   4.537 -0.5810  0.2082 -0.6129
  151MOL    H6048360   2.943   1.694   4.706 -1.0629  0.8051  0.5254
  151MOL    H6148361   3.120   1.864   4.680 -2.0685 -0.5095  0.8432
  151MOL    H6248362   3.339   1.799   4.583 -2.8174  1.8667 -0.0830
  151MOL    H6348363   3.370   1.575   4.488  0.4056  0.2798 -1.1618
  151MOL    H6448364   3.419   1.338   4.492 -1.0986  1.0571 -0.0836
  151MOL    H6548365   3.319   1.191   4.500  1.4691  0.1973 -1.3102
  151MOL    C6648366   3.360   1.277   4.690 -0.2601  0.4097  0.5020
  151MOL    C6748367   3.430   1.393   4.753 -0.2906  0.2027 -0.7580
  151MOL    C6848368   3.367   1.474   4.848 -0.1064 -0.3978  0.4525
  151MOL   Cl6948369   3.216   1.428   4.912  0.2622  0.1664  0.2313
  151MOL    C7048370   3.427   1.590   4.900 -0.4710  0.2921 -0.1631
  151MOL    C7148371   3.561   1.621   4.865  0.0291  0.3304 -0.1359
  151MOL    C7248372   3.632   1.537   4.782  0.4441 -0.7065 -0.0083
  151MOL    C7348373   3.567   1.431   4.716 -0.4612  0.1354 -0.4137
  151MOL    C7448374   3.459   1.149   4.711 -0.0171 -0.1158  0.2013
  151MOL    H7548375   3.265   1.250   4.736 -0.3684  0.6395  0.4115
  151MOL    H7648376   3.382   1.657   4.971 -0.0431 -0.3467  0.7197
  151MOL    H7748377   3.604   1.713   4.900  0.8855  0.7766 -2.3028
  151MOL    H7848378   3.725   1.582   4.753  0.3356 -0.3483  0.2001
  151MOL    H7948379   3.621   1.379   4.638 -1.0439 -1.2815  0.0919
  151MOL    H8048380   3.538   1.166   4.637 -0.8538 -0.8429 -0.8689
  151MOL    H8148381   3.408   1.059   4.677  1.9804 -0.4889 -1.9953
  151MOL    C8248382   3.525   1.106   4.846  0.8237 -0.3869 -0.3214
  151MOL    C8348383   3.651   1.028   4.815 -0.0047 -0.3146 -0.5669
  151MOL    C8448384   3.776   1.054   4.876  0.2878 -0.3661  0.4818
  151MOL   Cl8548385   3.796   1.173   5.001 -0.1057 -0.2127  0.6423
  151MOL    C8648386   3.884   0.964   4.842  0.5550  0.5439  0.1820
  151MOL    C8748387   3.873   0.856   4.748  0.1317 -0.1477 -0.5165
  151MOL    C8848388   3.747   0.840   4.687 -0.9970 -0.4156  0.2686
  151MOL    C8948389   3.636   0.915   4.730 -0.6401 -0.5450  0.0590
  151MOL    C9048390   3.439   1.014   4.934 -0.5367  0.2242 -0.5564
  151MOL    H9148391   3.548   1.199   4.898 -1.7241 -0.3486  0.8459
  151MOL    H9248392   3.986   0.991   4.864  1.1782 -0.0480 -1.8344
  151MOL    H9348393   3.949   0.788   4.714 -1.4263 -3.6659  2.6692
  151MOL    H9448394   3.730   0.750   4.629  3.1553 -1.7616  0.9344
  151MOL    H9548395   3.540   0.892   4.685 -0.2255 -1.7803 -0.2195
  151MOL    H9648396   3.460   0.907   4.931 -0.2605  0.2642 -0.1167
  151MOL    H9748397   3.335   1.027   4.904 -0.1680  2.5264 -0.9030
  151MOL    C9848398   3.438   1.055   5.083  0.2213 -0.5859  0.2723
  151MOL    C9948399   3.339   0.974   5.171  0.1926  0.2323  0.5484
  151MOL   C10048400   3.382   0.878   5.271  0.1073  0.4692 -0.3093
  151MOL  Cl10148401   3.549   0.856   5.306 -0.1525  0.0130 -0.0169
  151MOL   C10248402   3.285   0.808   5.344  0.6814 -0.0730  0.3122
  151MOL   C10348403   3.151   0.825   5.322 -0.3475  0.7692 -0.4392
  151MOL   C10448404   3.107   0.907   5.220 -0.3935 -0.1423 -0.1153
  151MOL   C10548405   3.201   0.977   5.141  0.4056  0.2898  0.5167
  151MOL   C10648406   3.431   1.214   5.117 -0.1544  0.0571  0.1150
  151MOL   H10748407   3.541   1.038   5.113 -0.6598 -3.9171  1.7826
  151MOL   H10848408   3.314   0.733   5.416  1.0625 -2.3612 -2.1523
  151MOL   H10948409   3.085   0.768   5.385 -0.0194 -0.1251 -0.8982
  151MOL   H11048410   3.003   0.909   5.192 -0.0978 -0.5773 -1.2720
  151MOL   H11148411   3.164   1.042   5.063 -0.9728 -0.9605  0.1093
  151MOL   H11248412   3.356   1.252   5.048 -2.0882 -1.6488  1.2225
  151MOL   H11348413   3.525   1.263   5.093 -0.1121  0.0139  0.1933
  151MOL   C11448414   3.376   1.259   5.255  0.4196 -0.2395 -0.1177
  151MOL   C11548415   3.343   1.408   5.244 -0.4097 -0.1181  0.6425
  151MOL   C11648416   3.213   1.465   5.270 -0.3725 -0.5844  0.1568
  151MOL  Cl11748417   3.078   1.364   5.294  0.4831  0.4774  0.2727
  151MOL   C11848418   3.195   1.609   5.279 -0.4281  1.2434 -0.6203
  151MOL   C11948419   3.309   1.698   5.260 -0.9677  0.6559  0.1942
  151MOL   C12048420   3.438   1.642   5.239  0.3548  0.3556  0.5516
  151MOL   C12148421   3.453   1.504   5.230 -0.8394 -0.1608 -0.2212
  151MOL   C12248422   3.469   1.236   5.377  0.1411  0.0263  0.1925
  151MOL   H12348423   3.281   1.209   5.272  1.4297 -1.7034  1.3874
  151MOL   H12448424   3.097   1.655   5.281 -0.6340  0.8775 -1.6253
  151MOL   H12548425   3.293   1.804   5.266  0.7139  1.0242 -1.1661
  151MOL   H12648426   3.519   1.709   5.211  1.5899 -0.3010  2.4029
  151MOL   H12748427   3.550   1.470   5.198 -0.7229  0.1461 -0.1954
  151MOL   H12848428   3.559   1.296   5.379 -0.3829  0.8219  0.0931
  151MOL   H12948429   3.518   1.139   5.379  1.8265  0.7855 -2.0713
  151MOL   C13048430   3.397   1.246   5.515  0.3955  0.1253 -0.2742
  151MOL   C13148431   3.487   1.296   5.626 -0.0127  0.1791  0.2380
  151MOL   C13248432   3.501   1.429   5.658 -0.0139  0.8778 -0.3552
  151MOL  Cl13348433   3.431   1.542   5.547 -0.1697  0.5930 -0.4320
  151MOL   C13448434   3.585   1.473   5.761 -0.9984 -0.0883 -0.4098
  151MOL   C13548435   3.666   1.380   5.825  0.0131  0.0577 -0.1088
  151MOL   C13648436   3.654   1.243   5.805  0.2148 -0.1210 -0.2442
  151MOL   C13748437   3.566   1.202   5.698 -0.0046  0.4399 -0.0389
  151MOL   C13848438   3.320   1.115   5.548 -0.5947 -0.0985 -0.1997
  151MOL   H13948439   3.327   1.330   5.502 -0.0897  0.0238  1.5870
  151MOL   H14048440   3.606   1.578   5.775 -0.5888 -0.1286 -0.7228
  151MOL   H14148441   3.744   1.411   5.893  2.6851 -0.4732 -2.8328
  151MOL   H14248442   3.713   1.174   5.863 -1.4556 -2.3449 -1.1315
  151MOL   H14348443   3.548   1.098   5.675 -0.6899  0.3075  1.0775
  151MOL   H14448444   3.396   1.038   5.561  1.0653  1.6196  0.4979
  151MOL   H14548445   3.253   1.088   5.466 -3.8533  4.4192  0.7814
  151MOL   C14648446   3.234   1.128   5.679  0.5023  0.3262 -0.4230
  151MOL   C14748447   3.225   0.989   5.738  0.1096 -0.0646 -0.0861
  151MOL   C14848448   3.291   0.962   5.859 -0.2578 -0.2953 -0.0969
  151MOL  Cl14948449   3.380   1.072   5.955 -0.3952 -0.2452  0.1497
  151MOL   C15048450   3.272   0.835   5.920 -0.0165  0.5800  0.2734
  151MOL   C15148451   3.211   0.730   5.846 -0.0231  0.1161 -0.0148
  151MOL   C15248452   3.158   0.753   5.719 -0.0936 -0.4922 -0.5797
  151MOL   C15348453   3.157   0.879   5.672 -0.4159  0.2024  0.4681
  151MOL   C15448454   3.098   1.190   5.644 -1.0651 -0.0395 -0.2868
  151MOL   H15548455   3.289   1.197   5.743 -0.9922  1.3270 -0.1970
  151MOL   H15648456   3.324   0.816   6.013  0.1741 -1.1619 -0.1820
  151MOL   H15748457   3.204   0.630   5.886  1.7377  0.4987  1.3193
  151MOL   H15848458   3.099   0.672   5.678 -1.6197  0.5837 -0.5532
  151MOL   H15948459   3.093   0.906   5.589 -0.6905 -1.7942  0.0129
  151MOL   H16048460   3.023   1.117   5.614  0.4629 -2.4872  1.6708
  151MOL   H16148461   3.109   1.257   5.559 -0.9878  0.2671 -0.0342
  151MOL   C16248462   3.055   1.268   5.765  0.3698  0.4067 -0.5883
  151MOL   C16348463   2.909   1.267   5.794 -0.1213 -0.3874  0.5483
  151MOL   C16448464   2.852   1.207   5.907 -0.2342 -0.7326  0.6968
  151MOL  Cl16548465   2.948   1.116   6.017 -0.3226 -0.1404 -0.1296
  151MOL   C16648466   2.717   1.219   5.939 -0.5268 -0.2153  0.2647
  151MOL   C16748467   2.635   1.277   5.842 -0.4593  0.6074  0.1353
  151MOL   C16848468   2.687   1.329   5.717  0.0224 -0.1559  0.7545
  151MOL   C16948469   2.827   1.332   5.701  0.2806  0.2293 -0.0747
  151MOL   C17048470   3.109   1.409   5.765 -0.6514  0.4672 -0.3531
  151MOL   H17148471   3.106   1.222   5.850  0.1024 -0.2606 -0.7852
  151MOL   H17248472   2.690   1.177   6.035  0.5961  1.3134  1.2851
  151MOL   H17348473   2.534   1.286   5.878 -1.2962  1.2277 -2.2868
  151MOL   H17448474   2.619   1.384   5.655  0.3563  2.0485  2.2796
  151MOL   H17548475   2.880   1.382   5.621  1.1663  0.1856  0.4843
  151MOL   H17648476   3.057   1.457   5.682 -3.0537 -1.8469 -0.2661
  151MOL   H17748477   3.215   1.409   5.739 -0.0656 -3.0012  1.6610
  151MOL   C17848478   3.099   1.488   5.892  0.5175  0.1576 -0.0994
  151MOL   C17948479   3.102   1.640   5.863 -0.7478 -0.8765 -0.6109
  151MOL   C18048480   2.983   1.722   5.883  0.3088  0.3104 -0.3394
  151MOL  Cl18148481   2.842   1.655   5.961 -0.0488  0.0897  0.2507
  151MOL   C18248482   2.988   1.855   5.836  0.3036  0.2152 -0.8266
  151MOL   C18348483   3.103   1.903   5.771  0.1254 -0.0455 -0.4401
  151MOL   C18448484   3.226   1.830   5.769  0.2233  0.0713  0.1249
  151MOL   C18548485   3.225   1.699   5.815  0.4692 -0.1600  0.2751
  151MOL   C18648486   3.191   1.444   6.005 -0.2082  0.0047 -1.0946
  151MOL   H18748487   3.000   1.462   5.928  1.2484  1.0664  2.6583
  151MOL   H18848488   2.899   1.912   5.858  0.5250  0.6136 -0.9708
  151MOL   H18948489   3.104   2.003   5.730  2.2962  0.9506  1.9137
  151MOL   H19048490   3.312   1.870   5.718 -0.1041  1.7782  0.8725
  151MOL   H19148491   3.307   1.629   5.807 -0.6603 -1.7752  2.3685
  151MOL   H19248492   3.291   1.429   5.963 -0.6332 -0.1723 -2.0358
  151MOL   H19348493   3.172   1.341   6.035 -0.6166  0.5259  0.4941
  151MOL   C19448494   3.205   1.533   6.131  0.0416 -0.0293  0.6883
  151MOL   C19548495   3.324   1.477   6.212 -0.2535 -0.5198 -0.1984
  151MOL   C19648496   3.433   1.562   6.238 -0.2473  0.4173  0.0580
  151MOL  Cl19748497   3.426   1.726   6.198  0.0263  0.2581 -0.3215
  151MOL   C19848498   3.553   1.506   6.297  0.0707 -0.7856 -0.0333
  151MOL   C19948499   3.554   1.375   6.344 -0.5541 -0.1306 -0.8334
  151MOL   C20048500   3.444   1.292   6.323 -0.3801 -0.3029 -0.6895
  151MOL   C20148501   3.334   1.340   6.255  0.6582  0.6393 -0.1076
  151MOL   C20248502   3.069   1.530   6.214  0.7587 -0.6423 -1.0413
  151MOL   H20348503   3.216   1.639   6.106 -1.1354 -0.1504 -0.3895
  151MOL   H20448504   3.643   1.566   6.304 -1.2281  1.0410  1.8324
  151MOL   H20548505   3.638   1.337   6.400 -1.5990 -0.3131  0.6382
  151MOL   H20648506   3.443   1.189   6.357 -1.1172  0.0067  0.2417
  151MOL   H20748507   3.247   1.278   6.247  1.7698 -1.0005  0.3621
  151MOL   H20848508   3.071   1.434   6.267 -0.0279  0.4606  1.0461
  151MOL   H20948509   2.981   1.537   6.150  0.1383 -1.6593 -0.3185
  151MOL   C21048510   3.056   1.639   6.321 -0.1995  0.1307 -0.2666
  151MOL   C21148511   2.980   1.589   6.449  0.0939 -0.5606  0.3770
  151MOL   C21248512   3.026   1.613   6.583 -0.0404  0.2171 -0.8047
  151MOL  Cl21348513   3.176   1.691   6.623 -0.5522  0.3922 -0.1233
  151MOL   C21448514   2.942   1.574   6.690  0.2619  0.5423 -0.6120
  151MOL   C21548515   2.813   1.520   6.664 -0.1202  0.6062  0.0567
  151MOL   C21648516   2.769   1.494   6.532 -0.0963 -0.0887  0.2387
  151MOL   C21748517   2.853   1.527   6.428  0.0042 -0.3009  0.6468
  151MOL   C21848518   3.001   1.773   6.261 -0.6865  0.6592 -0.1625
  151MOL   H21948519   3.160   1.653   6.353 -0.5090 -1.0797  1.3002
  151MOL   H22048520   2.969   1.589   6.794 -0.6830  1.3366 -0.4735
  151MOL   H22148521   2.746   1.501   6.746  2.2710  2.7566  2.6070
  151MOL   H22248522   2.673   1.453   6.507  0.6841 -1.3823 -0.7042
  151MOL   H22348523   2.827   1.509   6.325  1.7906  0.0065  0.1160
  151MOL   H22448524   2.906   1.742   6.219 -0.8599 -0.1597  0.7878
  151MOL   H22548525   3.056   1.805   6.172 -1.9734 -0.8026 -1.5049
  151MOL   C22648526   3.000   1.889   6.364  0.4461  0.6675 -0.3102
  151MOL   C22748527   2.876   1.977   6.331  0.0977  0.4435  0.0590
  151MOL   C22848528   2.771   1.993   6.428  0.0697 -0.6031  0.8257
  151MOL  Cl22948529   2.776   1.939   6.592  0.2545 -0.1787  0.0068
  151MOL   C23048530   2.670   2.086   6.393  0.3925  0.4547  1.1720
  151MOL   C23148531   2.659   2.149   6.262 -0.0646  0.3220  0.1855
  151MOL   C23248532   2.757   2.126   6.170  0.0948 -0.1390  0.0436
  151MOL   C23348533   2.871   2.049   6.204  0.5128 -0.9254  0.2642
  151MOL   C23448534   3.124   1.983   6.355 -0.5092  0.0583  0.2559
  151MOL   H23548535   2.975   1.851   6.464  1.5636  0.0418 -0.2609
  151MOL   H23648536   2.592   2.111   6.464 -0.1488 -3.6892  2.1400
  151MOL   H23748537   2.568   2.202   6.237 -0.5615 -1.5011 -2.0197
  151MOL   H23848538   2.745   2.162   6.069 -0.7704  0.4231  0.3474
  151MOL   H23948539   2.948   2.037   6.128 -1.2577 -4.4601 -1.0768
  151MOL   H24048540   3.147   2.028   6.259 -0.9281  0.3003  0.2722
  151MOL   H24148541   3.211   1.917   6.355 -2.2384 -2.3173 -2.0887
  151MOL   C24248542   3.131   2.096   6.457 -0.2707 -0.3784 -0.3457
  151MOL   C24348543   3.245   2.198   6.431 -0.1321 -0.2019  0.4013
  151MOL   C24448544   3.208   2.333   6.394  0.0411  0.6037 -0.2582
  151MOL  Cl24548545   3.045   2.388   6.346  0.0352  0.0759  0.4823
  151MOL   C24648546   3.309   2.434   6.384  0.3060 -0.3050 -0.5669
  151MOL   C24748547   3.444   2.396   6.414 -0.2204  0.4055 -0.3792
  151MOL   C24848548   3.479   2.261   6.444 -0.4680 -0.4755 -0.3142
  151MOL   C24948549   3.381   2.163   6.454  0.4616 -0.1444  0.4850
  151MOL   C25048550   3.139   2.049   6.603 -0.1923  0.3218  0.2402
  151MOL   H25148551   3.036   2.150   6.449 -1.0676 -1.9613 -1.7058
  151MOL   H25248552   3.293   2.537   6.355 -0.8721 -0.4375 -0.4140
  151MOL   H25348553   3.524   2.468   6.411 -0.2002  0.3555 -1.1607
  151MOL   H25448554   3.582   2.230   6.432 -0.7786 -1.5645 -0.2207
  151MOL   H25548555   3.394   2.056   6.467 -0.6059 -0.2526  0.6759
  151MOL   H25648556   3.222   1.980   6.620  2.1886  3.0598 -0.0367
  151MOL   H25748557   3.051   1.989   6.628 -0.5652 -0.6341 -3.1677
  151MOL   C25848558   3.154   2.156   6.714 -0.5346  0.3551 -0.6475
  151MOL   C25948559   3.192   2.087   6.845  0.1413 -0.1710  0.2816
  151MOL   C26048560   3.318   2.109   6.907 -0.4242  0.0592  0.3855
  151MOL  Cl26148561   3.438   2.221   6.847  0.2060 -0.3043 -0.3159
  151MOL   C26248562   3.347   2.046   7.030  0.1563  0.1757 -0.2221
  151MOL   C26348563   3.258   1.953   7.085  0.0994  0.6319  0.5609
  151MOL   C26448564   3.130   1.933   7.021 -0.4693  0.5259 -0.5481
  151MOL   C26548565   3.097   1.999   6.902 -0.2486  0.7386  0.1322
  151MOL   C26648566   3.025   2.236   6.733  0.0998  0.7757  0.1980
  151MOL   H26748567   3.226   2.231   6.684  1.0524 -2.5952 -4.6680
  151MOL   H26848568   3.441   2.057   7.082 -1.3119  0.0350  2.5468
  151MOL   H26948569   3.284   1.909   7.180  1.1103  2.1449  0.9886
  151MOL   H27048570   3.063   1.861   7.066 -1.4026  1.7046 -0.0374
  151MOL   H27148571   3.001   1.978   6.856 -0.4917  1.6658  0.1972
  151MOL   H27248572   2.947   2.168   6.768  0.5186  0.8252  1.2430
  151MOL   H27348573   2.986   2.261   6.634 -0.1862 -3.4382 -0.8510
  151MOL   C27448574   3.036   2.364   6.815  0.3018  0.0493 -0.4831
  151MOL   C27548575   2.893   2.430   6.831 -0.1583  0.1620  0.3616
  151MOL   C27648576   2.831   2.439   6.960 -0.0296  0.2927 -0.2261
  151MOL  Cl27748577   2.891   2.351   7.095 -0.1142 -0.0482 -0.4339
  151MOL   C27848578   2.726   2.527   6.990  0.4157  0.1622 -0.2230
  151MOL   C27948579   2.670   2.611   6.888  0.2140  1.0223  0.3166
  151MOL   C28048580   2.736   2.606   6.756  0.5846 -0.0114 -0.2417
  151MOL   C28148581   2.836   2.514   6.730 -0.7938  0.4367  0.2243
  151MOL   C28248582   3.142   2.463   6.755  0.3078 -0.4700  0.7265
  151MOL   H28348583   3.057   2.335   6.919 -1.8533  0.4202  0.0747
  151MOL   H28448584   2.689   2.545   7.089  1.4717  0.3806  0.1390
  151MOL   H28548585   2.593   2.685   6.903 -2.0509 -1.5480  2.0091
  151MOL   H28648586   2.697   2.670   6.678  1.4094 -2.3198 -2.6001
  151MOL   H28748587   2.885   2.518   6.634  0.4161 -2.5542  0.6587
  151MOL   H28848588   3.110   2.485   6.653  2.4442 -0.0355  0.1240
  151MOL   H28948589   3.241   2.422   6.736 -0.3393 -2.1281  0.8591
  151MOL   C29048590   3.156   2.599   6.840  0.4940 -0.1525  0.7577
  151MOL   C29148591   3.199   2.708   6.743  0.6076 -0.6236 -0.3162
  151MOL   C29248592   3.125   2.826   6.731 -0.0875 -0.2754 -0.2223
  151MOL  Cl29348593   2.983   2.855   6.827 -0.1094  0.3829  0.1861
  151MOL   C29448594   3.159   2.929   6.645 -0.3119 -0.0492  0.3447
  151MOL   C29548595   3.278   2.912   6.569  0.1021 -0.1646 -0.2913
  151MOL   C29648596   3.361   2.804   6.592 -0.4542 -0.6918 -0.8991
  151MOL   C29748597   3.324   2.705   6.684  0.4456 -0.2764 -0.4579
  151MOL   C29848598   3.255   2.583   6.963  0.2701 -0.6104 -0.2366
  151MOL   H29948599   3.063   2.615   6.893  0.6429 -0.5580  1.1449
  151MOL   H30048600   3.102   3.020   6.632 -0.9889 -0.6624 -1.0371
  151MOL   H30148601   3.313   2.989   6.501  1.0063 -1.0236 -0.8025
  151MOL   H30248602   3.461   2.800   6.550  0.2856  1.6024  0.5264
  151MOL   H30348603   3.401   2.632   6.706  1.1413  0.1485 -1.4688
  151MOL   H30448604   3.350   2.549   6.923  1.6804  0.3093  2.2195
  151MOL   H30548605   3.230   2.497   7.026  0.1247 -1.2667 -1.1709
  151MOL   C30648606   3.267   2.713   7.049 -0.4838 -0.1773 -0.2152
  151MOL   C30748607   3.399   2.718   7.121  0.2137  0.4089 -0.3548
  151MOL   C30848608   3.475   2.837   7.136 -0.1322  0.0361 -0.4324
  151MOL  Cl30948609   3.448   2.975   7.033 -0.0552 -0.0737  0.0201
  151MOL   C31048610   3.591   2.839   7.209  0.5380  0.0234  1.0029
  151MOL   C31148611   3.639   2.721   7.267  0.0698  0.0498 -0.1238
  151MOL   C31248612   3.567   2.598   7.265  0.2177  0.5800  0.0308
  151MOL   C31348613   3.443   2.602   7.195 -0.0233  0.2460 -0.1285
  151MOL   C31448614   3.146   2.721   7.148  0.7040  0.3215  0.3871
  151MOL   H31548615   3.260   2.794   6.976 -0.5001 -1.0288 -1.1694
  151MOL   H31648616   3.652   2.928   7.205  2.4038 -1.1825  2.0636
  151MOL   H31748617   3.728   2.725   7.328  1.6385  0.9993 -2.4115
  151MOL   H31848618   3.611   2.506   7.301  0.3313  0.9884  0.9597
  151MOL   H31948619   3.380   2.515   7.193  1.7104 -1.1947  3.6851
  151MOL   H32048620   3.046   2.704   7.106  1.0330  0.4749 -0.4620
  151MOL   H32148621   3.136   2.820   7.192 -1.6945  0.5490 -0.5436
  151MOL   H32248622   3.172   2.651   7.226  1.0033  0.0254  0.0216
  152MOL     C148623   1.846   1.193   3.439  0.0182  0.3181 -0.1591
  152MOL     C248624   1.989   1.229   3.426 -0.2200 -0.2274 -0.0149
  152MOL     C348625   2.096   1.168   3.500  0.3076 -0.3677 -0.1847
  152MOL    Cl448626   2.063   1.047   3.616 -0.2752  0.1819  0.0830
  152MOL     C548627   2.233   1.204   3.476 -0.1126  0.1079 -0.2714
  152MOL     C648628   2.262   1.298   3.378  0.5495 -0.1062 -0.0682
  152MOL     C748629   2.155   1.365   3.317 -0.4568 -0.7007  0.4167
  152MOL     C848630   2.023   1.328   3.336 -0.5819  0.5077 -0.2037
  152MOL     C948631   1.762   1.307   3.497 -0.1061 -0.1216 -0.0110
  152MOL    H1048632   1.814   1.161   3.340 -1.3268 -0.4172  0.5035
  152MOL    H1148633   2.314   1.154   3.527  1.2818  1.3210 -1.2562
  152MOL    H1248634   2.366   1.324   3.370  0.7957 -1.7598 -2.6271
  152MOL    H1348635   2.171   1.439   3.240 -0.5447 -3.4877 -2.4053
  152MOL    H1448636   1.959   1.379   3.266 -0.4805 -2.2369 -2.4104
  152MOL    H1548637   1.774   1.401   3.443  0.6269  0.2740  0.8208
  152MOL    H1648638   1.798   1.328   3.598 -0.7274 -1.9550  0.6118
  152MOL    H1748639   1.833   1.108   3.506 -0.2173  1.4233  1.2083
  152MOL    C1848640   1.613   1.265   3.513 -1.0942  0.2610 -0.7158
  152MOL    C1948641   1.539   1.297   3.374  0.2096  0.6871  0.4270
  152MOL    C2048642   1.493   1.193   3.292 -0.0602  0.0072 -0.1923
  152MOL   Cl2148643   1.529   1.028   3.336 -0.0371  0.4175 -0.1436
  152MOL    C2248644   1.420   1.226   3.175 -0.2128  0.2653  0.2422
  152MOL    C2348645   1.385   1.356   3.140  0.0043  0.0279 -0.2330
  152MOL    C2448646   1.430   1.462   3.225  0.1499  0.0446 -0.1819
  152MOL    C2548647   1.506   1.430   3.337  0.1458  0.3243  0.7380
  152MOL    C2648648   1.549   1.340   3.627  0.6054 -0.2738  0.1338
  152MOL    H2748649   1.613   1.158   3.534 -0.6611  0.2197 -0.9086
  152MOL    H2848650   1.380   1.144   3.117 -0.2673  0.5640 -0.1491
  152MOL    H2948651   1.326   1.374   3.052  2.4809  0.0402 -1.9478
  152MOL    H3048652   1.415   1.564   3.193 -0.7919 -1.0379 -3.4008
  152MOL    H3148653   1.546   1.508   3.400 -0.8058  0.6542  0.9389
  152MOL    H3248654   1.440   1.343   3.616  0.9366 -0.9367 -4.1352
  152MOL    H3348655   1.571   1.447   3.627  0.6858 -0.2640 -1.8159
  152MOL    C3448656   1.582   1.302   3.773  0.4323  0.2457  0.3998
  152MOL    C3548657   1.543   1.159   3.811 -0.1171  0.1231 -0.0406
  152MOL    C3648658   1.638   1.064   3.854 -0.1124  0.2822 -0.5277
  152MOL   Cl3748659   1.808   1.091   3.857 -0.0758  0.2325  0.0084
  152MOL    C3848660   1.594   0.939   3.895  0.0617  0.1546  0.6855
  152MOL    C3948661   1.459   0.910   3.906 -0.0847 -0.3561 -0.0026
  152MOL    C4048662   1.370   1.002   3.860 -0.2101 -1.1068  0.1028
  152MOL    C4148663   1.408   1.132   3.817 -0.6150  0.0765 -0.4090
  152MOL    C4248664   1.521   1.408   3.872  0.4418  0.5006  0.1331
  152MOL    H4348665   1.690   1.313   3.787  0.6743 -0.7760 -0.5772
  152MOL    H4448666   1.670   0.874   3.938 -0.6978  0.0183  1.8691
  152MOL    H4548667   1.428   0.808   3.926  0.4620 -0.5113  0.0447
  152MOL    H4648668   1.263   0.984   3.859 -0.2588 -0.7350 -1.9582
  152MOL    H4748669   1.323   1.194   3.795 -2.3001 -2.0137  0.0426
  152MOL    H4848670   1.516   1.363   3.971 -1.4963 -1.7642 -0.9382
  152MOL    H4948671   1.416   1.430   3.855 -0.1199 -1.8667  0.3152
  152MOL    C5048672   1.593   1.544   3.900  0.8554 -0.5169  0.4539
  152MOL    C5148673   1.741   1.528   3.928  0.5891 -0.4499 -0.4781
  152MOL    C5248674   1.836   1.540   3.826 -1.0701 -0.7562  0.2120
  152MOL   Cl5348675   1.799   1.607   3.671 -0.1546 -0.1648 -0.1769
  152MOL    C5448676   1.971   1.502   3.848  1.1431  0.0755  0.3468
  152MOL    C5548677   2.008   1.465   3.977  0.8090 -0.5780 -0.2359
  152MOL    C5648678   1.913   1.450   4.084 -0.4597  0.3535  0.4986
  152MOL    C5748679   1.777   1.489   4.060 -0.6470  0.1618 -0.8634
  152MOL    C5848680   1.532   1.637   4.011  0.1000 -0.1018 -0.0136
  152MOL    H5948681   1.577   1.603   3.810 -2.5029  0.1921  1.4313
  152MOL    H6048682   2.048   1.521   3.775  0.4084 -0.2648 -0.5261
  152MOL    H6148683   2.110   1.433   3.992  0.3962 -2.5618 -1.4266
  152MOL    H6248684   1.940   1.412   4.182  1.5706  2.1331  0.6620
  152MOL    H6348685   1.704   1.482   4.139  0.8110  0.1497  0.4904
  152MOL    H6448686   1.596   1.710   4.061 -1.4246  1.9401 -0.9781
  152MOL    H6548687   1.505   1.574   4.096 -2.1468  3.9373  2.4475
  152MOL    C6648688   1.416   1.735   3.972 -0.3787 -0.4504 -0.5208
  152MOL    C6748689   1.464   1.831   3.861  0.1748  0.5575  0.0297
  152MOL    C6848690   1.446   1.807   3.719 -0.2558  0.8446  0.0729
  152MOL   Cl6948691   1.358   1.663   3.671  0.3332 -0.2731  0.3282
  152MOL    C7048692   1.510   1.885   3.625  0.5208  0.5891 -0.4713
  152MOL    C7148693   1.585   1.997   3.662  0.4207  0.1608  0.0618
  152MOL    C7248694   1.596   2.026   3.796  0.3629  0.3638 -0.2014
  152MOL    C7348695   1.542   1.943   3.894 -0.1904  0.4481  0.0553
  152MOL    C7448696   1.351   1.813   4.082  0.2780  0.3978  0.6954
  152MOL    H7548697   1.336   1.683   3.921 -2.7124  0.3567  2.1250
  152MOL    H7648698   1.493   1.871   3.519  0.0306  0.6085 -0.3929
  152MOL    H7748699   1.636   2.063   3.593  1.1284  0.0267  0.4561
  152MOL    H7848700   1.648   2.117   3.819  2.0999 -0.4677 -0.7138
  152MOL    H7948701   1.570   1.948   3.999 -0.9151 -0.9742  0.3180
  152MOL    H8048702   1.322   1.914   4.052  0.9935  0.1774 -0.7703
  152MOL    H8148703   1.429   1.841   4.152  0.1622 -1.1370  1.4623
  152MOL    C8248704   1.242   1.740   4.162  0.2896  0.1213 -0.5792
  152MOL    C8348705   1.267   1.594   4.182 -0.4432  0.4763 -0.1786
  152MOL    C8448706   1.325   1.548   4.305  0.1830  1.1308  0.4110
  152MOL   Cl8548707   1.374   1.661   4.429  0.1196  0.3385 -0.0941
  152MOL    C8648708   1.356   1.411   4.316  0.0156 -0.5135  0.1464
  152MOL    C8748709   1.317   1.312   4.224 -0.2307  0.3232 -0.1098
  152MOL    C8848710   1.257   1.360   4.108  0.0678 -0.1014  0.5500
  152MOL    C8948711   1.225   1.495   4.087 -0.1364  0.0809  0.3090
  152MOL    C9048712   1.093   1.768   4.116  0.9291 -0.1143 -0.8728
  152MOL    H9148713   1.238   1.782   4.263 -0.3326  1.5438 -1.1831
  152MOL    H9248714   1.419   1.388   4.401 -0.1936 -0.9848  0.1771
  152MOL    H9348715   1.335   1.207   4.241 -1.5621  0.0773 -0.1630
  152MOL    H9448716   1.234   1.279   4.040 -0.9433 -0.3567  1.1938
  152MOL    H9548717   1.184   1.522   3.991 -1.5344 -0.4461  0.7458
  152MOL    H9648718   1.033   1.685   4.153  1.0718  0.3666  0.4902
  152MOL    H9748719   1.076   1.763   4.009 -1.1538  0.5291 -0.5949
  152MOL    C9848720   1.023   1.899   4.177  0.4180  0.5099 -0.3245
  152MOL    C9948721   0.969   1.866   4.313  0.6346  0.6195  0.7989
  152MOL   C10048722   1.027   1.915   4.439  0.3638 -0.1357  0.3091
  152MOL  Cl10148723   1.163   2.017   4.443 -0.1655  0.6004  0.2055
  152MOL   C10248724   0.966   1.889   4.561 -0.5630  0.4844 -0.6645
  152MOL   C10348725   0.841   1.826   4.564  0.2802  0.8292  0.6625
  152MOL   C10448726   0.784   1.780   4.443  0.3545 -0.1113  0.1529
  152MOL   C10548727   0.844   1.797   4.315 -0.3815 -0.3222  0.0909
  152MOL   C10648728   0.913   1.950   4.074 -0.1901  0.5854 -0.8410
  152MOL   H10748729   1.103   1.973   4.173 -0.4000  1.3645 -1.0130
  152MOL   H10848730   0.999   1.929   4.656 -0.8924 -1.0003  0.0827
  152MOL   H10948731   0.798   1.814   4.662  1.5860  0.0057  1.1443
  152MOL   H11048732   0.681   1.746   4.439  0.4740 -0.5580  0.8098
  152MOL   H11148733   0.784   1.769   4.230  1.4226  1.8875 -1.9630
  152MOL   H11248734   0.855   2.022   4.132  0.4677  0.4403  0.0072
  152MOL   H11348735   0.848   1.870   4.039  0.5312 -0.7162  0.7304
  152MOL   C11448736   0.969   2.033   3.949  0.2021  0.5412  0.4861
  152MOL   C11548737   1.067   2.139   3.982  0.4291 -0.5894 -0.2927
  152MOL   C11648738   1.187   2.150   3.901  0.2724  0.1046  0.2436
  152MOL  Cl11748739   1.221   2.044   3.774  0.2936 -0.5855 -0.2792
  152MOL   C11848740   1.285   2.244   3.932  0.5768 -0.4767 -0.6750
  152MOL   C11948741   1.258   2.343   4.033  0.3471  0.2513  0.0053
  152MOL   C12048742   1.134   2.336   4.099 -0.6235 -0.5661 -0.0159
  152MOL   C12148743   1.043   2.230   4.081  0.4092  0.3120  0.1307
  152MOL   C12248744   0.843   2.095   3.888 -0.6700 -0.4003  0.7650
  152MOL   H12348745   1.016   1.960   3.884 -0.8618  0.7022 -0.4896
  152MOL   H12448746   1.377   2.245   3.876  1.5307  0.0894  0.8710
  152MOL   H12548747   1.321   2.428   4.056  0.5647 -0.3314  1.6612
  152MOL   H12648748   1.104   2.421   4.159 -0.4091  0.2014 -0.9965
  152MOL   H12748749   0.953   2.227   4.141 -1.6712  0.4911 -2.8924
  152MOL   H12848750   0.881   2.172   3.821  1.0222 -0.1780  1.9602
  152MOL   H12948751   0.780   2.149   3.959 -2.4306  0.6782 -1.5396
  152MOL   C13048752   0.756   1.997   3.791 -0.7293  0.2076  0.6357
  152MOL   C13148753   0.827   1.977   3.656 -0.5056  0.0235 -0.1392
  152MOL   C13248754   0.909   1.860   3.646  0.4471  0.2418 -0.5251
  152MOL  Cl13348755   0.908   1.740   3.769 -0.0315 -0.3533 -0.3730
  152MOL   C13448756   0.979   1.834   3.527 -0.6775 -0.1380 -0.4077
  152MOL   C13548757   0.983   1.927   3.423 -0.6445 -0.1022  0.5965
  152MOL   C13648758   0.910   2.050   3.439 -0.0550  0.0304  0.2722
  152MOL   C13748759   0.830   2.074   3.556 -0.2454 -0.2510  0.3607
  152MOL   C13848760   0.614   2.049   3.770 -0.2844  0.1470  0.0780
  152MOL   H13948761   0.738   1.895   3.825 -2.6791  0.3189  0.0251
  152MOL   H14048762   1.040   1.745   3.517 -0.0716  0.0601  1.2800
  152MOL   H14148763   1.049   1.918   3.338 -1.8808  0.9902 -0.5107
  152MOL   H14248764   0.912   2.128   3.364 -0.2279 -1.2668 -1.0875
  152MOL   H14348765   0.784   2.169   3.579 -1.6303 -0.6672 -0.6257
  152MOL   H14448766   0.573   1.998   3.683  0.5855  1.5414 -1.1811
  152MOL   H14548767   0.610   2.155   3.744  0.6528  0.8784  2.7477
  152MOL   C14648768   0.507   2.011   3.873  0.4525 -0.5276 -0.4284
  152MOL   C14748769   0.479   1.861   3.887 -0.7960 -0.6703 -0.8360
  152MOL   C14848770   0.486   1.783   4.008  0.4973 -0.6854  0.8723
  152MOL  Cl14948771   0.528   1.859   4.160  0.0162 -0.3044 -0.2407
  152MOL   C15048772   0.462   1.652   4.010  0.0671  0.3380  0.5628
  152MOL   C15148773   0.425   1.586   3.888  0.8210  0.5684  0.0285
  152MOL   C15248774   0.408   1.656   3.769 -0.2240  0.5514 -0.3704
  152MOL   C15348775   0.429   1.792   3.773 -0.0625  1.0216  0.2102
  152MOL   C15448776   0.376   2.101   3.851 -0.4525  0.1603  0.3521
  152MOL   H15548777   0.545   2.048   3.968 -1.1913  0.3155 -0.0810
  152MOL   H15648778   0.487   1.589   4.093  0.0129 -0.4496 -0.0105
  152MOL   H15748779   0.401   1.481   3.878  1.8807  0.1118  2.0510
  152MOL   H15848780   0.382   1.603   3.678  0.2583  2.9724 -1.9501
  152MOL   H15948781   0.409   1.841   3.679  1.4231 -0.6381 -0.9832
  152MOL   H16048782   0.320   2.088   3.758  1.8024  0.6198 -1.1122
  152MOL   H16148783   0.405   2.205   3.835 -0.7642 -0.1289 -2.3366
  152MOL   C16248784   0.271   2.093   3.968  0.2102 -1.3373 -0.2665
  152MOL   C16348785   0.139   2.020   3.939 -0.3402  0.3643 -0.0982
  152MOL   C16448786   0.093   1.923   4.026  0.1279 -0.5375  0.9007
  152MOL  Cl16548787   0.176   1.862   4.170  0.1319 -0.0910  0.1620
  152MOL   C16648788   8.395   1.857   3.990  0.0644 -0.3865 -0.9415
  152MOL   C16748789   8.309   1.897   3.886 -0.8334 -1.0043  0.3706
  152MOL   C16848790   8.354   2.004   3.803 -0.6509 -1.5591 -0.0745
  152MOL   C16948791   0.060   2.054   3.828 -0.1973 -0.3481 -0.2236
  152MOL   C17048792   0.241   2.241   4.022 -0.3051  0.4283 -0.0937
  152MOL   H17148793   0.320   2.037   4.048 -2.8165 -1.0151  1.8900
  152MOL   H17248794   8.354   1.779   4.051  1.4702  0.1950  0.7867
  152MOL   H17348795   8.217   1.842   3.880 -0.1785 -2.2737  1.5899
  152MOL   H17448796   8.304   2.049   3.718 -0.3630  0.4636  0.8057
  152MOL   H17548797   0.104   2.129   3.764  0.7478 -0.9365 -0.2582
  152MOL   H17648798   0.147   2.223   4.073  0.0511 -2.0462 -0.2496
  152MOL   H17748799   0.217   2.301   3.934  3.0086  2.8296  0.5236
  152MOL   C17848800   0.349   2.293   4.116 -0.0134 -0.2583  0.0275
  152MOL   C17948801   0.372   2.209   4.247 -0.4327  0.3959  0.7762
  152MOL   C18048802   0.502   2.173   4.290  0.2626  0.1425  0.6504
  152MOL  Cl18148803   0.645   2.236   4.217  0.2727 -0.2220 -0.3180
  152MOL   C18248804   0.525   2.088   4.405 -0.0491  0.5641 -0.3600
  152MOL   C18348805   0.405   2.049   4.477  0.0903 -0.2794 -0.7660
  152MOL   C18448806   0.274   2.091   4.439 -0.3793  0.0925 -0.0194
  152MOL   C18548807   0.256   2.161   4.317  0.2282  0.3988 -0.3575
  152MOL   C18648808   0.322   2.442   4.156  0.1063 -0.0362 -0.7681
  152MOL   H18748809   0.442   2.298   4.059  0.2337 -1.2622  0.3307
  152MOL   H18848810   0.618   2.057   4.450 -1.2457 -2.2118  0.2665
  152MOL   H18948811   0.427   1.998   4.570  6.1108 -1.1528 -2.4074
  152MOL   H19048812   0.193   2.070   4.507 -0.5349 -0.5142 -0.3816
  152MOL   H19148813   0.157   2.191   4.287 -0.2736 -0.5215  0.3369
  152MOL   H19248814   0.377   2.464   4.247 -0.5553  1.4545 -0.7224
  152MOL   H19348815   0.219   2.450   4.190 -0.0547  0.2676 -1.3237
  152MOL   C19448816   0.360   2.558   4.056  0.1299 -0.1889  0.1673
  152MOL   C19548817   0.512   2.568   4.038  0.4452  0.4223  0.0485
  152MOL   C19648818   0.586   2.513   3.929 -0.3789  0.3434  0.5337
  152MOL  Cl19748819   0.505   2.435   3.801  0.5947 -0.1982  0.3114
  152MOL   C19848820   0.723   2.518   3.926 -0.0649 -0.6737 -0.6020
  152MOL   C19948821   0.799   2.578   4.030  0.6839  0.1557 -0.1447
  152MOL   C20048822   0.731   2.640   4.137  0.7177 -0.0187 -0.0761
  152MOL   C20148823   0.591   2.622   4.137  0.3293 -0.2377 -0.3813
  152MOL   C20248824   0.287   2.690   4.099 -0.1064  0.3512 -0.0023
  152MOL   H20348825   0.317   2.530   3.960  0.4250  1.9617 -0.6081
  152MOL   H20448826   0.777   2.475   3.843  0.8831 -1.4215  0.3748
  152MOL   H20548827   0.906   2.573   4.017  0.6843 -0.7199  0.1569
  152MOL   H20648828   0.782   2.675   4.226 -0.8803  1.5702  0.2417
  152MOL   H20748829   0.546   2.658   4.229  0.8542 -2.1797  0.6656
  152MOL   H20848830   0.327   2.728   4.194  1.8070 -1.2655 -0.1326
  152MOL   H20948831   0.185   2.665   4.129 -0.3663 -1.2015 -2.0799
  152MOL   C21048832   0.277   2.785   3.980 -0.3539  0.5644 -0.4650
  152MOL   C21148833   0.402   2.884   3.967 -0.1615  0.2441  1.1430
  152MOL   C21248834   0.469   2.902   3.844  0.4090  0.8623  0.5006
  152MOL  Cl21348835   0.430   2.817   3.696  0.1863 -0.5416 -0.0867
  152MOL   C21448836   0.568   2.998   3.837 -0.9075 -0.0878  0.0497
  152MOL   C21548837   0.593   3.081   3.945 -0.4637 -0.2348 -0.0255
  152MOL   C21648838   0.525   3.066   4.063 -0.3238 -0.4037 -0.1391
  152MOL   C21748839   0.437   2.957   4.082  0.3883  0.2087 -0.1518
  152MOL   C21848840   0.146   2.866   3.977 -0.1258  0.5442  0.2967
  152MOL   H21948841   0.281   2.728   3.887 -2.2834 -1.7236  0.7950
  152MOL   H22048842   0.604   3.030   3.740  0.9712 -1.1149  0.4040
  152MOL   H22148843   0.658   3.165   3.927 -2.0926  0.7742 -1.3716
  152MOL   H22248844   0.540   3.127   4.151 -0.6829  0.3122 -0.5726
  152MOL   H22348845   0.394   2.951   4.181  2.0874  0.2790  0.5897
  152MOL   H22448846   0.140   2.932   3.891 -2.4554  1.4751  1.1327
  152MOL   H22548847   0.140   2.940   4.057 -0.1372 -0.2985  1.0950
  152MOL   C22648848   0.006   2.784   3.993  0.2641 -0.7052  0.0354
  152MOL   C22748849   0.010   2.653   3.916  0.0699  0.2481  0.4669
  152MOL   C22848850   8.405   2.522   3.968 -0.3302 -0.1554  0.0622
  152MOL  Cl22948851   8.359   2.489   4.125  0.0102 -0.1698 -0.1344
  152MOL   C23048852   0.003   2.413   3.882 -0.1972 -0.3313 -0.2720
  152MOL   C23148853   0.034   2.431   3.745  0.0964 -0.0693  0.2384
  152MOL   C23248854   0.050   2.562   3.693  0.4660 -0.7469 -0.2767
  152MOL   C23348855   0.028   2.674   3.773 -0.3327 -0.2600  0.2958
  152MOL   C23448856   8.299   2.872   3.963 -0.3160  0.3512 -0.4860
  152MOL   H23548857   8.411   2.760   4.098 -0.6613  1.6554  0.4661
  152MOL   H23648858   8.410   2.315   3.925  0.5484  0.1379  1.0792
  152MOL   H23748859   0.050   2.351   3.674 -0.0896  0.0511  0.0584
  152MOL   H23848860   0.067   2.572   3.587 -3.0452 -1.5472 -1.0068
  152MOL   H23948861   0.034   2.774   3.734 -0.6510 -0.5967 -0.6136
  152MOL   H24048862   8.318   2.931   3.873  2.0609 -0.4003 -0.5119
  152MOL   H24148863   8.308   2.966   4.017 -1.5620  1.1774 -1.6967
  152MOL   C24248864   8.160   2.805   3.984 -0.3017 -0.4095  0.1870
  152MOL   C24348865   8.110   2.729   3.860 -0.3909 -0.1647 -0.1016
  152MOL   C24448866   8.069   2.591   3.871  0.3356 -0.0191 -0.0328
  152MOL  Cl24548867   8.016   2.520   4.020  0.3403 -0.2950 -0.3792
  152MOL   C24648868   8.043   2.512   3.758  0.2743  0.6138 -0.0887
  152MOL   C24748869   8.066   2.578   3.628  0.1795  0.5445 -0.2754
  152MOL   C24848870   8.104   2.714   3.609 -0.2839  0.1244 -0.0516
  152MOL   C24948871   8.118   2.790   3.729  0.5904 -0.3917 -0.1782
  152MOL   C25048872   8.044   2.907   4.014 -0.7873  0.0481  0.5088
  152MOL   H25148873   8.173   2.743   4.072  0.0643  1.0858  1.2076
  152MOL   H25248874   8.009   2.411   3.773  0.8672  0.5682  0.9384
  152MOL   H25348875   8.041   2.529   3.535  1.2269  0.9838 -0.8018
  152MOL   H25448876   8.117   2.745   3.506  2.3260 -0.3995  0.1046
  152MOL   H25548877   8.161   2.889   3.730 -0.1395 -0.0745  2.1351
  152MOL   H25648878   7.959   2.839   4.005 -1.8210  1.6343 -2.4483
  152MOL   H25748879   8.040   2.983   3.936 -2.0508 -0.5206  0.0124
  152MOL   C25848880   8.037   2.971   4.153 -0.3821  0.3607  0.3946
  152MOL   C25948881   8.061   2.859   4.261  0.1834  0.2174  0.0690
  152MOL   C26048882   8.167   2.854   4.355 -1.2005 -0.4153  0.4319
  152MOL  Cl26148883   8.296   2.959   4.329 -0.3287  0.3902  0.1684
  152MOL   C26248884   8.168   2.763   4.465  0.0704 -0.5065 -0.6019
  152MOL   C26348885   8.048   2.690   4.492 -0.0410  0.2701 -0.3666
  152MOL   C26448886   7.952   2.681   4.387  0.1303  0.0398  0.1599
  152MOL   C26548887   7.960   2.758   4.271  0.2125 -0.0264 -0.4237
  152MOL   C26648888   7.902   3.042   4.182 -0.2851  0.1710  0.2440
  152MOL   H26748889   8.120   3.041   4.161  0.9385 -1.0258 -0.8616
  152MOL   H26848890   8.242   2.782   4.542 -0.8003  0.1664  0.0805
  152MOL   H26948891   8.039   2.628   4.580  0.0523 -0.1864 -0.6760
  152MOL   H27048892   7.859   2.627   4.402 -1.1623  2.5292  1.4790
  152MOL   H27148893   7.880   2.762   4.198 -3.1312  1.6986  3.1394
  152MOL   H27248894   7.913   3.072   4.286  1.8278 -1.4982  0.5328
  152MOL   H27348895   7.817   2.974   4.184 -1.1297  1.2367  1.6517
  152MOL   C27448896   7.875   3.172   4.104 -0.6724 -0.0168  0.1012
  152MOL   C27548897   7.989   3.275   4.118  0.7989  0.3340  0.3685
  152MOL   C27648898   8.063   3.318   4.005  0.1500  0.3875  0.9749
  152MOL  Cl27748899   8.032   3.260   3.844  0.1423  0.2534 -0.0544
  152MOL   C27848900   8.164   3.410   4.016  0.2668 -1.6282 -0.6535
  152MOL   C27948901   8.189   3.466   4.146  0.3609 -0.2154  0.4864
  152MOL   C28048902   8.114   3.423   4.257  0.0577  0.2918 -0.0428
  152MOL   C28148903   8.013   3.327   4.243 -0.3633 -0.1155  0.2886
  152MOL   C28248904   7.738   3.236   4.135  0.0750  0.8656 -0.4377
  152MOL   H28348905   7.872   3.139   4.001  1.5840  0.0497  0.0004
  152MOL   H28448906   8.209   3.448   3.925  0.9491  0.5488  0.5385
  152MOL   H28548907   8.265   3.542   4.163 -1.8739  1.4841  3.5206
  152MOL   H28648908   8.130   3.478   4.349  1.8675  3.9142 -2.3917
  152MOL   H28748909   7.958   3.298   4.332  0.0322 -1.9934 -0.0527
  152MOL   H28848910   7.725   3.342   4.115 -0.2005  0.6742 -1.2892
  152MOL   H28948911   7.729   3.238   4.244 -2.3745  1.6770 -0.6384
  152MOL   C29048912   7.608   3.167   4.077 -0.6802 -0.4933  0.2618
  152MOL   C29148913   7.603   3.176   3.925 -0.0393  0.3484  0.4429
  152MOL   C29248914   7.622   3.057   3.844  0.2555  0.0088  0.5831
  152MOL  Cl29348915   7.671   2.902   3.898 -0.4264  0.2891  0.2694
  152MOL   C29448916   7.634   3.067   3.707  0.3050  0.1114  0.4754
  152MOL   C29548917   7.619   3.191   3.644  0.0693 -0.3243 -0.2272
  152MOL   C29648918   7.589   3.307   3.726  0.4008 -0.0491  0.8579
  152MOL   C29748919   7.592   3.300   3.864 -0.2446  0.6156  0.0342
  152MOL   C29848920   7.482   3.227   4.146  0.8086  0.4708  0.1977
  152MOL   H29948921   7.627   3.061   4.094  1.9727 -0.3305 -1.4571
  152MOL   H30048922   7.658   2.988   3.638 -0.5349  1.3552 -1.2757
  152MOL   H30148923   7.615   3.204   3.537  2.1998 -2.4501 -0.6184
  152MOL   H30248924   7.581   3.405   3.682 -1.2012 -1.8658 -3.1589
  152MOL   H30348925   7.590   3.385   3.930  1.2355 -0.2705  1.2800
  152MOL   H30448926   7.392   3.203   4.089  0.4758 -3.0557  2.0574
  152MOL   H30548927   7.477   3.335   4.137 -1.0960  0.5434  1.8094
  152MOL   C30648928   7.458   3.180   4.290 -0.2963 -0.4623  0.9237
  152MOL   C30748929   7.490   3.028   4.305 -0.2800 -0.2202 -0.4612
  152MOL   C30848930   7.427   2.934   4.227  0.0103  0.0732 -0.4889
  152MOL  Cl30948931   7.304   2.970   4.110  0.4450  0.1257  0.0086
  152MOL   C31048932   7.465   2.793   4.242 -0.8012 -0.6539  0.0859
  152MOL   C31148933   7.568   2.756   4.328 -0.2507 -0.1500 -0.0079
  152MOL   C31248934   7.634   2.855   4.400 -0.1200 -0.8293 -0.4506
  152MOL   C31348935   7.594   2.991   4.393 -0.2793 -0.0628  0.2677
  152MOL   C31448936   7.313   3.217   4.333 -0.8523  0.2672 -0.5796
  152MOL   H31548937   7.529   3.229   4.357 -2.3989  1.1759  2.0513
  152MOL   H31648938   7.415   2.712   4.191  1.5670 -1.5820 -0.8343
  152MOL   H31748939   7.597   2.653   4.341 -0.2307 -0.3171 -1.3573
  152MOL   H31848940   7.717   2.822   4.460  0.5600 -0.9295 -1.4314
  152MOL   H31948941   7.643   3.065   4.454 -1.1260 -0.3051  1.2511
  152MOL   H32048942   7.295   3.324   4.335 -2.3532  0.0238  1.7837
  152MOL   H32148943   7.301   3.175   4.433  0.0766  1.5688  0.0886
  152MOL   H32248944   7.241   3.176   4.262 -2.2582  1.9545 -0.1624
  153MOL     C148945   0.717   1.665   0.271  0.3389 -0.0517  0.0234
  153MOL     C248946   0.641   1.643   0.396  0.0504 -0.9812 -0.3213
  153MOL     C348947   0.645   1.733   0.507 -0.3771  0.0077  0.3486
  153MOL    Cl448948   0.700   1.896   0.479  0.3725  0.1407  0.2750
  153MOL     C548949   0.594   1.695   0.631  0.0700 -0.3289 -0.3622
  153MOL     C648950   0.533   1.563   0.649  0.5427  0.2180 -0.0954
  153MOL     C748951   0.521   1.479   0.536 -0.4076  0.3713 -0.2915
  153MOL     C848952   0.587   1.517   0.417  0.2347  0.0282  0.1661
  153MOL     C948953   0.636   1.740   0.163  0.0414 -0.7285  0.5793
  153MOL    H1048954   0.811   1.711   0.301 -0.5312  2.0316 -0.3918
  153MOL    H1148955   0.598   1.755   0.721 -1.1485 -1.3513  0.4036
  153MOL    H1248956   0.493   1.533   0.744  0.5593 -2.3247 -0.8350
  153MOL    H1348957   0.480   1.379   0.542  1.0324 -0.2543 -0.5969
  153MOL    H1448958   0.586   1.447   0.335 -1.9006  1.4895 -1.0806
  153MOL    H1548959   0.607   1.838   0.202  0.8914 -0.2733  0.0740
  153MOL    H1648960   0.555   1.675   0.130  0.2038 -0.9623  0.6350
  153MOL    H1748961   0.750   1.567   0.235  1.3127  0.1403  0.3591
  153MOL    C1848962   0.717   1.771   0.033 -1.0977 -0.2977  0.3236
  153MOL    C1948963   0.835   1.858   0.077  1.2194  0.1518 -0.0302
  153MOL    C2048964   0.967   1.811   0.081  0.2448  0.0377 -0.1816
  153MOL   Cl2148965   1.011   1.639   0.039  0.3224 -0.2417 -0.0934
  153MOL    C2248966   1.074   1.889   0.127  0.5718  0.1702 -0.3395
  153MOL    C2348967   1.054   2.024   0.149  0.2773 -0.2922  0.3103
  153MOL    C2448968   0.921   2.083   0.140 -0.2117  0.0080  0.0702
  153MOL    C2548969   0.810   1.998   0.106 -0.0688  0.4222  0.3979
  153MOL    C2648970   0.637   1.854   8.355  0.4242  0.6206  1.1768
  153MOL    H2748971   0.747   1.677   8.408  0.6886  0.1155  0.5973
  153MOL    H2848972   1.174   1.852   0.114  0.8342  0.5544  0.5291
  153MOL    H2948973   1.136   2.093   0.161 -0.5515  0.7475  0.1599
  153MOL    H3048974   0.889   2.183   0.162 -0.7770  0.6634 -3.4110
  153MOL    H3148975   0.714   2.048   0.099  0.0598  0.7443  0.9643
  153MOL    H3248976   0.692   1.897   8.272 -0.5573 -0.1445  0.1227
  153MOL    H3348977   0.579   1.936   8.396  0.3015  1.0828  0.0981
  153MOL    C3448978   0.540   1.765   8.280  0.2606 -0.3271  0.2989
  153MOL    C3548979   0.606   1.666   8.184 -0.3030  0.5660 -0.2861
  153MOL    C3648980   0.633   1.533   8.224 -0.2937  0.3386  0.2391
  153MOL   Cl3748981   0.583   1.459   8.366 -0.2061  0.1384 -0.2902
  153MOL    C3848982   0.714   1.453   8.145 -1.2264  0.2256  0.9568
  153MOL    C3948983   0.768   1.501   8.024 -0.9646  0.1100  0.5706
  153MOL    C4048984   0.731   1.626   7.976 -0.6711 -0.0651 -0.9235
  153MOL    C4148985   0.653   1.711   8.056 -0.1259  0.1561 -0.9770
  153MOL    C4248986   0.436   1.860   8.204  0.1552 -0.1676  0.3469
  153MOL    H4348987   0.479   1.715   8.356 -0.7936 -0.8021 -0.8332
  153MOL    H4448988   0.751   1.355   8.171 -0.0917  0.7077  1.2125
  153MOL    H4548989   0.830   1.434   7.967  0.4166  1.8220  0.0249
  153MOL    H4648990   0.762   1.656   7.877 -3.7258  1.3780 -1.4807
  153MOL    H4748991   0.638   1.810   8.016  1.6092  0.3837 -1.1120
  153MOL    H4848992   0.490   1.923   8.132 -2.0863 -0.0336 -1.2928
  153MOL    H4948993   0.387   1.929   8.273  0.0213  1.1675 -1.0396
  153MOL    C5048994   0.323   1.794   8.118 -0.2359 -0.8276  0.1113
  153MOL    C5148995   0.300   1.888   7.993  0.2340  0.4753  0.4686
  153MOL    C5248996   0.320   1.835   7.859 -0.3349  0.5640  0.2664
  153MOL   Cl5348997   0.345   1.663   7.827 -0.1086  0.3019 -0.0463
  153MOL    C5448998   0.307   1.921   7.744 -0.0460  0.2532  0.4752
  153MOL    C5548999   0.261   2.052   7.767 -0.5734 -0.1758  0.5514
  153MOL    C5649000   0.237   2.104   7.893  0.4680 -0.6211 -0.4116
  153MOL    C5749001   0.263   2.021   8.007 -0.1279  0.2621  0.5627
  153MOL    C5849002   0.191   1.771   8.191  1.0159 -0.2543 -0.2073
  153MOL    H5949003   0.360   1.698   8.084  0.5012 -1.2480  2.0482
  153MOL    H6049004   0.306   1.886   7.642 -0.1982  0.6591  0.3369
  153MOL    H6149005   0.233   2.124   7.691  1.5682 -2.5696 -2.6504
  153MOL    H6249006   0.200   2.201   7.920  1.2817 -0.0454 -1.3169
  153MOL    H6349007   0.250   2.056   8.108  0.5235 -1.6214  1.3101
  153MOL    H6449008   0.119   1.741   8.115  0.8968 -1.9127  0.5441
  153MOL    H6549009   0.158   1.872   8.218 -1.3023 -0.8348 -0.7838
  153MOL    C6649010   0.184   1.665   8.305 -0.2053  0.4177 -0.1652
  153MOL    C6749011   0.197   1.518   8.256 -0.1511 -0.4593  0.4157
  153MOL    C6849012   0.226   1.412   8.350 -0.3762 -0.9716 -0.2145
  153MOL   Cl6949013   0.268   1.454   0.089 -0.2274 -0.4374  0.4654
  153MOL    C7049014   0.232   1.276   8.313 -0.1191  0.1214 -0.1244
  153MOL    C7149015   0.213   1.242   8.179  0.5007 -0.4638  0.3484
  153MOL    C7249016   0.185   1.344   8.085  0.0889 -0.3305 -0.0880
  153MOL    C7349017   0.176   1.478   8.119 -0.0306 -0.4483 -0.6203
  153MOL    C7449018   0.051   1.671   8.389  0.2649 -0.0254  0.2234
  153MOL    H7549019   0.277   1.683   8.359 -0.0277  2.1103 -0.9821
  153MOL    H7649020   0.252   1.199   8.386 -1.2111 -0.1778 -0.1334
  153MOL    H7749021   0.218   1.142   8.136  4.5389  0.8969 -2.6881
  153MOL    H7849022   0.179   1.322   7.979 -0.1533  0.0126 -0.1441
  153MOL    H7949023   0.161   1.545   8.036 -0.1610 -0.0617 -0.2882
  153MOL    H8049024   0.039   1.584   0.032 -0.6401  1.4512  2.1429
  153MOL    H8149025   8.386   1.663   8.322 -0.9379  2.8306  1.3092
  153MOL    C8249026   0.026   1.790   0.061  0.6207  0.3862  1.4038
  153MOL    C8349027   0.152   1.829   0.138 -0.8707 -0.0267  0.4627
  153MOL    C8449028   0.215   1.953   0.122 -0.3353 -0.6887  0.4190
  153MOL   Cl8549029   0.156   2.067   0.002 -0.0824 -0.1317  0.0137
  153MOL    C8649030   0.326   1.985   0.202 -0.2303  0.5025  0.6023
  153MOL    C8749031   0.372   1.890   0.295 -0.0860 -0.0203  0.0449
  153MOL    C8849032   0.311   1.765   0.314  0.0506  0.0893  0.0069
  153MOL    C8949033   0.203   1.735   0.231 -0.6493 -0.0254  0.0925
  153MOL    C9049034   8.329   1.775   0.160 -0.1308  0.6546  0.8622
  153MOL    H9149035   8.415   1.866   8.410  0.4888  2.4308  3.5904
  153MOL    H9249036   0.384   2.074   0.185  1.8391 -1.1870 -1.3398
  153MOL    H9349037   0.454   1.921   0.358 -0.1101  2.9326 -1.2845
  153MOL    H9449038   0.349   1.686   0.377  3.1094  0.6146 -1.1078
  153MOL    H9549039   0.154   1.639   0.246  0.7184 -0.7501  0.0516
  153MOL    H9649040   8.338   1.846   0.243  0.2105  0.1874  1.2281
  153MOL    H9749041   8.354   1.676   0.199 -0.1020  0.4344  0.2802
  153MOL    C9849042   8.189   1.786   0.094  0.4884 -0.0591 -0.0195
  153MOL    C9949043   8.150   1.933   0.061 -0.1579 -0.5330  1.0821
  153MOL   C10049044   8.166   1.991   8.349  0.3096  0.0365 -0.2272
  153MOL  Cl10149045   8.236   1.896   8.218 -0.4503  0.0925  0.1411
  153MOL   C10249046   8.129   2.127   8.328  0.0866  0.1458  0.1879
  153MOL   C10349047   8.083   2.206   0.018 -0.5144  0.5468  0.1783
  153MOL   C10449048   8.073   2.150   0.144 -0.0737 -0.7843 -0.3269
  153MOL   C10549049   8.107   2.019   0.167  0.9679  0.3622  0.2837
  153MOL   C10649050   8.084   1.705   0.180  0.0907  0.0982  0.0176
  153MOL   H10749051   8.202   1.735   8.419 -0.6076 -0.1598 -0.1204
  153MOL   H10849052   8.133   2.172   8.230 -0.6441 -0.2680 -0.0291
  153MOL   H10949053   8.060   2.311   0.005 -0.3752  0.5818  0.2154
  153MOL   H11049054   8.044   2.212   0.228 -0.2873  0.2064 -1.1203
  153MOL   H11149055   8.100   1.978   0.267  0.9998  0.5159  0.3499
  153MOL   H11249056   7.983   1.714   0.141 -0.9150  1.0528  2.6801
  153MOL   H11349057   8.075   1.743   0.282 -1.9863  0.0956 -0.1347
  153MOL   C11449058   8.108   1.553   0.194  0.1625  0.1538  0.4312
  153MOL   C11549059   8.151   1.479   0.071 -0.4365 -0.0975 -0.7703
  153MOL   C11649060   8.255   1.380   0.067 -0.5619 -0.3514  0.4830
  153MOL  Cl11749061   8.322   1.323   0.211  0.0626 -0.0987  0.0883
  153MOL   C11849062   8.303   1.328   8.361  0.0513 -0.1651 -0.2312
  153MOL   C11949063   8.233   1.366   8.247 -0.1512 -0.1915 -0.0181
  153MOL   C12049064   8.127   1.456   8.250  0.6191 -0.2340 -0.2967
  153MOL   C12149065   8.085   1.509   8.369 -0.2603  0.1433  0.1862
  153MOL   C12249066   7.985   1.472   0.236 -0.0275  0.6348 -0.2343
  153MOL   H12349067   8.185   1.542   0.271  1.1013  1.9362 -0.2227
  153MOL   H12449068   8.380   1.252   8.367  0.1079  0.0357  1.9199
  153MOL   H12549069   8.274   1.336   8.152  1.7075  0.6014  0.4947
  153MOL   H12649070   8.078   1.499   8.164 -0.8724 -0.2070  0.5595
  153MOL   H12749071   8.013   1.590   8.377  0.1891  0.5652  0.0074
  153MOL   H12849072   8.017   1.368   0.246  0.7085  0.8858  0.0900
  153MOL   H12949073   7.912   1.464   0.156 -1.5344  2.3182  0.9404
  153MOL   C13049074   7.891   1.525   0.352  0.3441  0.7991  0.2516
  153MOL   C13149075   7.959   1.578   0.473 -0.6853 -1.4176 -0.4590
  153MOL   C13249076   7.911   1.698   0.547 -0.3954  0.6962 -0.3444
  153MOL  Cl13349077   7.764   1.769   0.505  0.1967  0.0714 -0.3709
  153MOL   C13449078   7.974   1.741   0.663 -0.4596  0.2603 -0.1544
  153MOL   C13549079   8.096   1.676   0.701 -0.3313 -0.5871  0.6877
  153MOL   C13649080   8.151   1.567   0.624 -0.1977  0.5509  0.1793
  153MOL   C13749081   8.081   1.515   0.510  0.0843 -0.1843  0.0334
  153MOL   C13849082   7.795   1.417   0.387 -0.7165  0.0158  0.1148
  153MOL   H13949083   7.826   1.605   0.316 -2.0727 -1.3656 -0.2895
  153MOL   H14049084   7.931   1.826   0.715  1.9348  0.9457  0.7764
  153MOL   H14149085   8.158   1.708   0.784 -0.0326 -2.0973  1.0537
  153MOL   H14249086   8.240   1.524   0.668  0.4645  1.2357 -0.4728
  153MOL   H14349087   8.121   1.431   0.455  0.6284 -0.2687  0.5568
  153MOL   H14449088   7.737   1.471   0.462  2.5161  0.4645  2.3968
  153MOL   H14549089   7.837   1.332   0.441 -0.9376 -1.0210 -1.3283
  153MOL   C14649090   7.703   1.369   0.273  0.1774 -0.4628 -0.5185
  153MOL   C14749091   7.661   1.474   0.170 -0.2782 -0.0508 -0.5143
  153MOL   C14849092   7.698   1.463   0.034  0.0757 -0.2376  0.0264
  153MOL  Cl14949093   7.781   1.327   8.390 -0.2386  1.0023 -0.0372
  153MOL   C15049094   7.672   1.567   8.370 -0.5127  0.0223  0.7856
  153MOL   C15149095   7.608   1.686   8.411  0.6847 -0.7294 -0.7278
  153MOL   C15249096   7.567   1.704   0.124 -0.4107  0.7300 -0.4128
  153MOL   C15349097   7.599   1.595   0.213 -0.1246 -0.0604 -0.0079
  153MOL   C15449098   7.571   1.300   0.335  0.4027 -0.3106  0.1100
  153MOL   H15549099   7.760   1.289   0.225 -0.7100 -0.8712 -0.9014
  153MOL   H15649100   7.709   1.563   8.269 -1.6649  0.0724  0.3542
  153MOL   H15749101   7.580   1.761   8.339 -1.6230  0.2331  1.1077
  153MOL   H15849102   7.505   1.790   0.143 -1.9889 -0.0255 -1.9873
  153MOL   H15949103   7.574   1.596   0.318 -2.5517 -1.9135 -0.5122
  153MOL   H16049104   7.505   1.283   0.250 -0.2556  0.5520  0.4375
  153MOL   H16149105   7.513   1.371   0.394  0.9793  1.8426 -1.8789
  153MOL   C16249106   7.608   1.172   0.423 -0.9569  0.2838  0.5733
  153MOL   C16349107   7.689   1.065   0.345  0.3288  0.3209  1.1571
  153MOL   C16449108   7.810   1.008   0.400  0.0154 -0.3570  0.0433
  153MOL  Cl16549109   7.885   1.053   0.552 -0.0252 -0.0684  0.0241
  153MOL   C16649110   7.879   0.910   0.325 -0.0895  0.3401 -0.3443
  153MOL   C16749111   7.824   0.845   0.211 -0.1272  0.3679 -0.8371
  153MOL   C16849112   7.711   0.908   0.154 -0.0869  0.0891  0.6207
  153MOL   C16949113   7.641   1.015   0.221  0.5747 -0.5724  0.6381
  153MOL   C17049114   7.487   1.112   0.493 -0.3084 -0.3269  0.0706
  153MOL   H17149115   7.671   1.206   0.505 -0.6250  1.4609 -0.1637
  153MOL   H17249116   7.973   0.869   0.361 -1.0327 -0.0081  1.7722
  153MOL   H17349117   7.870   0.760   0.162  1.5918  1.5538 -1.3295
  153MOL   H17449118   7.664   0.870   0.065 -2.1109  0.7066  1.4031
  153MOL   H17549119   7.550   1.053   0.179  0.9667 -1.1676 -0.7878
  153MOL   H17649120   7.520   1.024   0.547  0.2555 -0.2899 -0.2167
  153MOL   H17749121   7.406   1.077   0.429 -0.5357  0.4512 -0.0821
  153MOL   C17849122   7.411   1.213   0.589 -0.0530 -0.2714  0.2594
  153MOL   C17949123   7.512   1.289   0.671  0.1700  0.0693 -0.5721
  153MOL   C18049124   7.525   1.435   0.663  0.4243  0.9874 -0.1560
  153MOL  Cl18149125   7.421   1.536   0.574  0.0391  0.0110  0.0019
  153MOL   C18249126   7.629   1.500   0.732 -0.4672  0.7514  0.2156
  153MOL   C18349127   7.711   1.426   0.819 -0.1222 -0.1872 -0.2108
  153MOL   C18449128   7.690   1.290   0.833 -0.1536 -0.8622  0.7079
  153MOL   C18549129   7.602   1.219   0.753  0.0683  0.3430 -0.7138
  153MOL   C18649130   7.298   1.138   0.678 -0.1922  0.0592 -0.7798
  153MOL   H18749131   7.353   1.283   0.529 -2.9210 -2.0839  0.8134
  153MOL   H18849132   7.627   1.608   0.723  0.7222  0.8020  0.4217
  153MOL   H18949133   7.791   1.470   0.878 -1.0592  0.0282  0.9239
  153MOL   H19049134   7.743   1.240   0.912 -1.0236 -1.0194  1.1961
  153MOL   H19149135   7.592   1.113   0.768  2.4562  0.1677 -0.2842
  153MOL   H19249136   7.338   1.102   0.772  0.3955 -0.4583 -1.2191
  153MOL   H19349137   7.278   1.044   0.626 -1.5348 -0.5490  0.8224
  153MOL   C19449138   7.161   1.203   0.677  0.1256  0.2475 -0.2268
  153MOL   C19549139   7.158   1.346   0.739  0.7416  0.3838 -0.2914
  153MOL   C19649140   7.065   1.442   0.689 -0.0739 -0.6546  0.2449
  153MOL  Cl19749141   6.968   1.417   0.552 -0.1446  0.1879  0.0420
  153MOL   C19849142   7.057   1.564   0.756  0.3889  0.6809  0.0566
  153MOL   C19949143   7.137   1.589   0.871  0.3243  0.1826  0.3223
  153MOL   C20049144   7.216   1.489   0.923  0.0095 -0.2976  0.4474
  153MOL   C20149145   7.228   1.365   0.857 -0.1751  0.0725 -0.3993
  153MOL   C20249146   7.056   1.115   0.741  0.1566  0.2099  0.2672
  153MOL   H20349147   7.143   1.223   0.571 -1.1848  2.2557  0.3498
  153MOL   H20449148   6.986   1.635   0.715 -1.6013  0.7563  3.4248
  153MOL   H20549149   7.115   1.682   0.921 -0.4298  0.5116 -0.6110
  153MOL   H20649150   7.250   1.496   1.025 -0.2411  0.7242  0.4623
  153MOL   H20749151   7.291   1.285   0.896  0.8284  0.2653 -1.5942
  153MOL   H20849152   6.975   1.176   0.782  0.0368  1.4964 -1.8404
  153MOL   H20949153   7.099   1.071   0.831 -1.9594 -1.1325  0.6431
  153MOL   C21049154   7.002   0.998   0.647 -0.2800 -0.3441  0.0310
  153MOL   C21149155   6.891   1.046   0.556  0.0226 -0.3032 -0.3105
  153MOL   C21249156   6.903   1.063   0.414 -0.2314  0.0698 -0.0452
  153MOL  Cl21349157   7.044   1.006   0.328 -0.0443  0.0691  0.1283
  153MOL   C21449158   6.797   1.124   0.336  0.0968  0.3249  0.5620
  153MOL   C21549159   6.681   1.158   0.402 -0.5449 -0.0116 -0.5140
  153MOL   C21649160   6.668   1.151   0.543 -0.3790  0.5341 -0.3829
  153MOL   C21749161   6.767   1.079   0.613  1.0715 -0.0711  0.2362
  153MOL   C21849162   6.970   0.873   0.711  0.1674 -0.3094  0.6795
  153MOL   H21949163   7.084   0.972   0.581  0.0139 -0.5286  0.4683
  153MOL   H22049164   6.804   1.144   0.230 -2.1556  0.2481  0.3810
  153MOL   H22149165   6.606   1.204   0.338 -0.3743  1.4466  0.3041
  153MOL   H22249166   6.578   1.180   0.595 -0.0646  1.4742 -0.3439
  153MOL   H22349167   6.754   1.059   0.718  2.2522  0.0810  0.4167
  153MOL   H22449168   6.890   0.816   0.663  1.4646 -1.7398  0.1775
  153MOL   H22549169   6.928   0.889   0.810  0.1383  0.5849  0.5267
  153MOL   C22649170   7.099   0.782   0.732  0.4664  0.7018 -0.4336
  153MOL   C22749171   7.162   0.742   0.601 -0.2387 -0.3294 -0.1665
  153MOL   C22849172   7.305   0.761   0.579  0.7795  0.2350 -0.2198
  153MOL  Cl22949173   7.411   0.812   0.711 -0.1907 -0.1684 -0.3252
  153MOL   C23049174   7.356   0.739   0.447  0.1418 -0.1412  0.3320
  153MOL   C23149175   7.273   0.693   0.342 -0.0382 -0.5184 -0.1018
  153MOL   C23249176   7.135   0.677   0.361  0.6524  0.8134 -0.0928
  153MOL   C23349177   7.080   0.699   0.491  0.4708 -0.6753  0.3874
  153MOL   C23449178   7.073   0.650   0.807 -0.2449  0.0147 -0.4903
  153MOL   H23549179   7.168   0.848   0.785  0.0894  0.2304  0.6642
  153MOL   H23649180   7.456   0.772   0.421 -0.9451  1.5031 -1.8125
  153MOL   H23749181   7.305   0.681   0.239 -0.2101  0.6116 -0.2964
  153MOL   H23849182   7.060   0.636   0.295 -1.6242  2.5732  1.3023
  153MOL   H23949183   6.974   0.693   0.512  0.9201 -2.3244  2.2857
  153MOL   H24049184   7.153   0.578   0.792  0.3125  0.2055  1.4119
  153MOL   H24149185   6.982   0.598   0.775 -0.1924 -1.5178  1.7504
  153MOL   C24249186   7.076   0.670   0.960 -0.1798 -0.2521  0.4588
  153MOL   C24349187   7.212   0.724   1.002  0.0504 -0.1932 -0.2095
  153MOL   C24449188   7.231   0.853   1.057 -0.6627  0.1783  0.2927
  153MOL  Cl24549189   7.108   0.965   1.098 -0.3300 -0.0332  0.1311
  153MOL   C24649190   7.359   0.893   1.092 -0.7770 -0.0742  0.3274
  153MOL   C24749191   7.471   0.813   1.059 -0.3687  0.3369  0.2598
  153MOL   C24849192   7.455   0.683   1.012 -0.2710 -0.2196  0.0679
  153MOL   C24949193   7.326   0.639   0.984 -0.1942 -0.1155  0.1057
  153MOL   C25049194   7.040   0.549   1.042 -0.3777  0.3374 -0.4467
  153MOL   H25149195   6.997   0.736   0.997  1.1881  0.7655  1.6138
  153MOL   H25249196   7.373   0.983   1.150  1.7641 -0.8413  0.9804
  153MOL   H25349197   7.573   0.838   1.086  0.1679 -2.0242  0.4948
  153MOL   H25449198   7.537   0.615   0.994  0.6869  0.6391  1.1360
  153MOL   H25549199   7.316   0.537   0.950  2.1003  0.0641 -1.2596
  153MOL   H25649200   7.055   0.572   1.147 -1.2375 -1.8439  0.1804
  153MOL   H25749201   7.119   0.475   1.027 -0.7710  0.1624 -1.7099
  153MOL   C25849202   6.890   0.503   1.043 -0.0080 -0.3740  0.1740
  153MOL   C25949203   6.823   0.502   1.185 -1.1387  0.1607 -0.2559
  153MOL   C26049204   6.753   0.617   1.230  0.3886  1.1124 -0.5121
  153MOL  Cl26149205   6.720   0.746   1.125 -0.0076  0.3195  0.1605
  153MOL   C26249206   6.701   0.620   1.359  0.6951  0.6920 -0.8604
  153MOL   C26349207   6.700   0.503   1.438 -0.1187 -0.5935  0.1329
  153MOL   C26449208   6.760   0.383   1.389  0.1029  0.2308  0.0385
  153MOL   C26549209   6.828   0.387   1.269 -0.5567  0.6548 -0.2938
  153MOL   C26649210   6.866   0.377   0.954 -0.4409  0.1515 -0.6407
  153MOL   H26749211   6.830   0.574   0.986 -0.5290 -0.4328  0.6441
  153MOL   H26849212   6.666   0.716   1.394  0.9472  0.6903 -0.5958
  153MOL   H26949213   6.662   0.501   1.538  1.1096 -3.1499  0.5783
  153MOL   H27049214   6.759   0.286   1.437 -0.8075 -0.4388 -1.3052
  153MOL   H27149215   6.870   0.297   1.227 -0.5883 -0.2953  1.6778
  153MOL   H27249216   6.918   0.295   1.004 -0.8553  0.3568  0.1354
  153MOL   H27349217   6.928   0.403   0.869  0.5181  2.3257  0.6766
  153MOL   C27449218   6.724   0.328   0.897  0.5893  0.5950  0.0237
  153MOL   C27549219   6.627   0.302   1.014  0.2600 -0.2444  0.0000
  153MOL   C27649220   6.516   0.390   1.031  0.6694 -0.1183  0.0073
  153MOL  Cl27749221   6.499   0.525   0.928  0.2995  0.5908  0.4517
  153MOL   C27849222   6.415   0.367   1.131  0.4629 -0.1609 -0.1546
  153MOL   C27949223   6.422   0.245   1.204 -0.2123 -0.0485 -0.0585
  153MOL   C28049224   6.532   0.157   1.186  0.0266  0.0777  0.0066
  153MOL   C28149225   6.638   0.194   1.099  0.3480 -0.6805 -0.4505
  153MOL   C28249226   6.741   0.200   0.814  0.4890 -0.0655 -0.4547
  153MOL   H28349227   6.703   0.416   0.837  2.4333  0.6818 -0.5447
  153MOL   H28449228   6.325   0.426   1.138  0.0464 -0.7593 -0.3986
  153MOL   H28549229   6.347   0.220   1.278  0.9689 -2.5593  0.3223
  153MOL   H28649230   6.539   0.065   1.243  1.3916 -0.9868 -1.8058
  153MOL   H28749231   6.723   0.130   1.079  2.0398  1.5538 -0.6693
  153MOL   H28849232   6.648   0.143   0.820  0.0114  0.6314 -1.2359
  153MOL   H28949233   6.822   0.140   0.858 -0.5352 -0.8295  0.4140
  153MOL   C29049234   6.763   0.228   0.666  0.0615 -0.0478  0.3208
  153MOL   C29149235   6.645   0.293   0.595  0.2865  0.1543 -0.0985
  153MOL   C29249236   6.626   0.434   0.563  0.4863 -0.0129  0.1192
  153MOL  Cl29349237   6.746   0.551   0.592 -0.0009  0.2736 -0.5660
  153MOL   C29449238   6.501   0.484   0.525  0.2103 -1.1968  0.2234
  153MOL   C29549239   6.399   0.389   0.501 -0.7949  0.1073 -0.8268
  153MOL   C29649240   6.414   0.250   0.529  0.0735  0.0982 -0.5128
  153MOL   C29749241   6.539   0.203   0.570 -0.2155  0.6466  0.2102
  153MOL   C29849242   6.820   0.106   0.592 -1.0177  0.2753 -0.1529
  153MOL   H29949243   6.833   0.312   0.664  0.1680 -0.1507 -1.2787
  153MOL   H30049244   6.490   0.592   0.518  0.7498 -1.1682 -0.2611
  153MOL   H30149245   6.308   0.430   0.462 -2.2453 -2.0293  0.1894
  153MOL   H30249246   6.334   0.177   0.519 -1.2342  1.2839  1.1407
  153MOL   H30349247   6.548   0.096   0.578  1.6966  0.4790 -3.1136
  153MOL   H30449248   6.806   0.130   0.487 -2.3657 -2.7427 -0.7234
  153MOL   H30549249   6.752   0.025   0.621 -2.2096  0.9119 -1.1441
  153MOL   C30649250   6.976   0.073   0.628 -0.0843  0.0550  0.0809
  153MOL   C30749251   7.068   0.196   0.621  0.5428 -0.5327  0.3274
  153MOL   C30849252   7.150   0.243   0.724 -0.8892 -0.3052 -0.3886
  153MOL  Cl30949253   7.155   0.171   0.889  0.1646  0.0705  0.3757
  153MOL   C31049254   7.243   0.349   0.699  0.3012  0.0962  0.0395
  153MOL   C31149255   7.261   0.397   0.571  0.0369 -0.2964 -0.0276
  153MOL   C31249256   7.187   0.345   0.461 -0.4901 -0.2116 -0.0977
  153MOL   C31349257   7.084   0.246   0.490 -0.1565  0.1970  0.0465
  153MOL   C31449258   7.037   8.378   0.550  0.4317 -0.2325 -0.0550
  153MOL   H31549259   6.974   0.044   0.733 -1.2769 -2.0936 -0.5063
  153MOL   H31649260   7.304   0.385   0.781  0.0928 -0.3080  0.3700
  153MOL   H31749261   7.340   0.469   0.558  0.2450 -0.6235 -0.5876
  153MOL   H31849262   7.206   0.387   0.363 -0.1743  1.2642  0.5768
  153MOL   H31949263   7.024   0.216   0.406  0.8092  0.2270 -0.6563
  153MOL   H32049264   7.140   8.358   0.577  0.4123 -0.5618 -0.2209
  153MOL   H32149265   7.029   8.392   0.442 -0.0461 -1.6895 -0.2165
  153MOL   H32249266   6.994   8.280   0.570  1.3590 -0.6290 -0.0077
  154MOL     C149267   2.919   2.102   2.648 -0.7708  0.0636  0.3311
  154MOL     C249268   3.060   2.111   2.581 -0.0475  0.3268 -0.6445
  154MOL     C349269   3.083   2.104   2.437  0.4830 -0.7035  0.6651
  154MOL    Cl449270   2.948   2.115   2.326 -0.1118 -0.5022  0.3123
  154MOL     C549271   3.218   2.099   2.385  0.0719 -0.2763 -0.5914
  154MOL     C649272   3.324   2.086   2.476  0.3839 -0.6444  0.1359
  154MOL     C749273   3.301   2.095   2.613 -0.0335 -0.1078  0.2304
  154MOL     C849274   3.177   2.107   2.668 -0.9527 -0.2360  0.2339
  154MOL     C949275   2.885   1.955   2.649 -0.0380 -0.2388  0.2479
  154MOL    H1049276   2.936   2.124   2.754  0.5915 -2.0289  0.5784
  154MOL    H1149277   3.229   2.109   2.278  0.1830  0.2975 -0.5254
  154MOL    H1249278   3.419   2.055   2.435 -0.2688 -0.0730 -1.8895
  154MOL    H1349279   3.386   2.084   2.678  0.8757  0.4226 -0.8678
  154MOL    H1449280   3.172   2.113   2.775 -1.3259 -1.6465  0.2962
  154MOL    H1549281   2.976   1.903   2.680  0.4251  1.2786  1.5380
  154MOL    H1649282   2.858   1.920   2.550 -0.7807 -1.2804  0.8062
  154MOL    H1749283   2.844   2.174   2.614  0.5840  0.6760 -1.4091
  154MOL    C1849284   2.773   1.919   2.757  0.1353 -0.3274 -0.3598
  154MOL    C1949285   2.787   1.991   2.892 -0.5047  0.5811  0.1483
  154MOL    C2049286   2.690   2.076   2.950  1.1169  0.0360  0.5751
  154MOL   Cl2149287   2.540   2.110   2.861  0.0871 -0.0267  0.3424
  154MOL    C2249288   2.718   2.147   3.068  0.6062  0.0951  0.6176
  154MOL    C2349289   2.843   2.137   3.125 -0.9369  0.1808 -0.8311
  154MOL    C2449290   2.939   2.041   3.081 -0.1434  0.4643  0.0674
  154MOL    C2549291   2.905   1.964   2.965 -0.2184  0.1278  0.3326
  154MOL    C2649292   2.772   1.761   2.787  0.0859 -0.3854  0.7592
  154MOL    H2749293   2.677   1.948   2.713 -0.7762  0.4105  2.0228
  154MOL    H2849294   2.647   2.219   3.106 -2.0531 -1.2099 -1.7392
  154MOL    H2949295   2.868   2.203   3.206 -2.3935  0.2821 -0.4529
  154MOL    H3049296   3.037   2.019   3.121  0.3972  2.5626 -0.0824
  154MOL    H3149297   2.974   1.885   2.939 -1.5551 -1.2410  0.8496
  154MOL    H3249298   2.687   1.757   2.856 -2.3486 -0.3353 -2.1229
  154MOL    H3349299   2.862   1.733   2.841 -0.9844  0.0475  2.8313
  154MOL    C3449300   2.746   1.668   2.667  0.4403  0.5796 -0.0866
  154MOL    C3549301   2.609   1.693   2.597 -0.4948  0.0754 -0.1715
  154MOL    C3649302   2.584   1.672   2.459  0.3444  0.1565  0.0021
  154MOL   Cl3749303   2.709   1.618   2.356 -0.3264 -0.0122  0.3010
  154MOL    C3849304   2.455   1.688   2.400  0.7200 -0.3569 -0.2181
  154MOL    C3949305   2.344   1.721   2.483 -0.2196  0.9509 -0.1274
  154MOL    C4049306   2.367   1.751   2.617  0.2270  0.5305  0.1921
  154MOL    C4149307   2.500   1.740   2.669  0.2523  0.2700  0.7677
  154MOL    C4249308   2.760   1.518   2.698 -0.6262 -0.2193  0.1173
  154MOL    H4349309   2.820   1.686   2.589 -0.6694 -3.1075 -2.1429
  154MOL    H4449310   2.444   1.679   2.293 -1.4355  2.1891 -0.2584
  154MOL    H4549311   2.241   1.716   2.449  0.5910 -2.7143 -2.3107
  154MOL    H4649312   2.287   1.775   2.685  1.2571 -0.6175  1.8462
  154MOL    H4749313   2.505   1.766   2.774  0.5632  0.9972  0.5750
  154MOL    H4849314   2.728   1.472   2.604  0.3324 -0.7459  0.0453
  154MOL    H4949315   2.701   1.484   2.783 -2.5324 -0.9571 -1.4542
  154MOL    C5049316   2.903   1.467   2.719 -0.2093 -0.2516 -0.0567
  154MOL    C5149317   2.987   1.458   2.593 -0.6038 -0.3407 -0.0255
  154MOL    C5249318   3.103   1.542   2.570  0.8055 -0.1592  0.1523
  154MOL   Cl5349319   3.146   1.677   2.677  0.5187  0.0415  0.1021
  154MOL    C5449320   3.177   1.533   2.455 -0.4529 -0.3036 -0.1069
  154MOL    C5549321   3.150   1.427   2.364  0.8622 -0.5252 -0.2462
  154MOL    C5649322   3.034   1.347   2.385  0.2633  0.1666  0.1129
  154MOL    C5749323   2.954   1.358   2.498  0.3202 -0.7524 -0.4087
  154MOL    C5849324   2.897   1.329   2.788 -0.0762 -0.2861 -0.2560
  154MOL    H5949325   2.936   1.540   2.793 -1.3033 -0.9070  1.1034
  154MOL    H6049326   3.260   1.596   2.425 -1.3830  1.0900  0.2241
  154MOL    H6149327   3.212   1.417   2.276 -0.1731 -0.5019 -0.9884
  154MOL    H6249328   3.016   1.266   2.316 -1.4965 -0.0525  0.8049
  154MOL    H6349329   2.870   1.294   2.522  1.1271 -2.4464 -2.0036
  154MOL    H6449330   2.979   1.260   2.768  0.3606  0.3847 -0.7825
  154MOL    H6549331   2.816   1.276   2.737 -1.1321  0.4997  0.5760
  154MOL    C6649332   2.894   1.325   2.938  0.2571  0.1349  0.6650
  154MOL    C6749333   2.999   1.414   2.998  0.5172 -0.6100  0.0680
  154MOL    C6849334   2.966   1.534   3.068  0.1569  0.9145 -0.9097
  154MOL   Cl6949335   2.809   1.591   3.085  0.4066 -0.3314 -0.2765
  154MOL    C7049336   3.076   1.613   3.126 -0.1223 -0.0309 -0.7963
  154MOL    C7149337   3.209   1.572   3.111  0.3900 -0.4256  0.0336
  154MOL    C7249338   3.237   1.453   3.042 -0.5552  0.1430 -0.2325
  154MOL    C7349339   3.135   1.373   2.994  0.8364 -0.6936  0.3773
  154MOL    C7449340   2.889   1.178   2.986  0.1807  0.3522 -0.1029
  154MOL    H7549341   2.796   1.365   2.966  0.3753  1.6423 -1.0138
  154MOL    H7649342   3.062   1.705   3.181  0.2089  0.0105 -0.7754
  154MOL    H7749343   3.282   1.635   3.159  2.8027 -0.9958 -2.7757
  154MOL    H7849344   3.342   1.431   3.031 -0.9125 -0.5976 -2.3425
  154MOL    H7949345   3.155   1.278   2.947  3.1061  0.0488 -0.1898
  154MOL    H8049346   2.992   1.146   2.978  0.6791  1.2711  2.1897
  154MOL    H8149347   2.826   1.118   2.921  0.4327 -0.1636  0.1297
  154MOL    C8249348   2.842   1.179   3.135 -0.0755  0.1520 -0.2257
  154MOL    C8349349   2.951   1.149   3.239  0.5855 -0.2687  0.5797
  154MOL    C8449350   2.995   1.230   3.345 -0.2324 -0.0425 -0.1745
  154MOL   Cl8549351   2.903   1.372   3.382  0.2503  0.6363 -0.1854
  154MOL    C8649352   3.091   1.188   3.435 -0.0713 -0.1596  0.5685
  154MOL    C8749353   3.148   1.061   3.417 -0.2529  0.3481 -0.1143
  154MOL    C8849354   3.115   0.985   3.307 -0.2075 -0.2753 -0.0042
  154MOL    C8949355   3.018   1.029   3.219 -0.9576 -0.1535 -0.3298
  154MOL    C9049356   2.718   1.093   3.157  0.0275  0.3095  0.2626
  154MOL    H9149357   2.794   1.273   3.159 -1.1093 -0.3174 -0.4400
  154MOL    H9249358   3.117   1.246   3.523  0.6347 -0.4483  0.5514
  154MOL    H9349359   3.212   1.013   3.490 -0.6263 -0.5515 -0.3778
  154MOL    H9449360   3.149   0.882   3.296 -1.2073 -0.6956  0.7944
  154MOL    H9549361   2.994   0.961   3.138 -0.4758 -1.1963  0.3894
  154MOL    H9649362   2.675   1.113   3.256 -2.1704 -4.0757  0.3381
  154MOL    H9749363   2.751   0.991   3.174  0.7405  0.6087  0.7055
  154MOL    C9849364   2.604   1.097   3.057  0.6380 -0.5355 -0.1998
  154MOL    C9949365   2.547   1.238   3.029  0.6851 -0.9831  0.4849
  154MOL   C10049366   2.501   1.273   2.899  0.0533  0.0254  0.6275
  154MOL  Cl10149367   2.530   1.191   2.753  0.0085  0.1261  0.0975
  154MOL   C10249368   2.428   1.391   2.880  0.4590 -0.5287 -0.9160
  154MOL   C10349369   2.415   1.489   2.981  0.2120  0.1621  0.1043
  154MOL   C10449370   2.456   1.455   3.107  0.0890  0.0410  0.8513
  154MOL   C10549371   2.517   1.333   3.128  0.6016 -0.0240 -0.2371
  154MOL   C10649372   2.480   1.013   3.105 -0.3194  0.5214 -0.0114
  154MOL   H10749373   2.625   1.049   2.962  2.5454 -0.4431  0.1613
  154MOL   H10849374   2.405   1.419   2.778  0.8917  2.3468 -0.2710
  154MOL   H10949375   2.368   1.586   2.969  0.5488 -0.0402 -3.2121
  154MOL   H11049376   2.449   1.515   3.196 -0.9599 -1.4255  1.7842
  154MOL   H11149377   2.542   1.313   3.232 -0.2322  2.5022  0.4850
  154MOL   H11249378   2.391   1.035   3.046  0.1172 -0.0123 -0.8813
  154MOL   H11349379   2.445   1.052   3.201 -0.4191 -0.7121  0.4628
  154MOL   C11449380   2.506   0.862   3.099 -0.6100  0.0416  1.2300
  154MOL   C11549381   2.529   0.817   2.957  0.4644  0.4217 -0.5629
  154MOL   C11649382   2.650   0.761   2.915 -0.0000 -0.0971  0.5606
  154MOL  Cl11749383   2.785   0.731   3.017  0.1792  0.0688 -0.0133
  154MOL   C11849384   2.672   0.723   2.784  0.0950  0.0239  0.1263
  154MOL   C11949385   2.566   0.744   2.688  0.1253 -0.1408  0.4613
  154MOL   C12049386   2.440   0.795   2.729 -0.5421  0.3517 -0.8307
  154MOL   C12149387   2.421   0.832   2.861  0.2379 -0.1622  0.6531
  154MOL   C12249388   2.406   0.771   3.174 -0.5874 -0.2883 -0.2787
  154MOL   H12349389   2.602   0.850   3.150 -0.6395 -1.0119  1.0585
  154MOL   H12449390   2.760   0.673   2.747 -0.6886 -0.2292 -1.3991
  154MOL   H12549391   2.582   0.729   2.582 -0.2166  1.1723  0.2215
  154MOL   H12649392   2.362   0.795   2.655  1.0314 -2.0098 -2.5628
  154MOL   H12749393   2.320   0.852   2.892  0.1790 -0.0084  0.3552
  154MOL   H12849394   2.427   0.666   3.155  2.2500  0.2865 -0.6220
  154MOL   H12949395   2.307   0.793   3.136 -0.6019  1.3681  0.6329
  154MOL   C13049396   2.419   0.793   3.328 -0.2597  0.5683 -0.1300
  154MOL   C13149397   2.566   0.780   3.388 -0.3975 -0.9189 -0.1627
  154MOL   C13249398   2.621   0.883   3.473 -0.7097 -0.1000  0.4258
  154MOL  Cl13349399   2.527   1.005   3.537 -0.3602  0.1828  0.2388
  154MOL   C13449400   2.760   0.877   3.510  0.4713 -0.9008 -0.3214
  154MOL   C13549401   2.841   0.778   3.451  0.0386 -0.2910 -0.2616
  154MOL   C13649402   2.786   0.676   3.374  0.3878 -0.1102 -0.4975
  154MOL   C13749403   2.650   0.672   3.349  0.6825 -0.1031  0.1434
  154MOL   C13849404   2.307   0.738   3.417 -0.4275  0.0514 -0.2256
  154MOL   H13949405   2.405   0.900   3.343 -1.9611  0.5053 -1.1676
  154MOL   H14049406   2.798   0.954   3.575 -1.0202 -0.8893  0.5715
  154MOL   H14149407   2.947   0.785   3.469  0.2035  1.5298 -1.8492
  154MOL   H14249408   2.849   0.596   3.336  1.6752  1.3488 -1.4684
  154MOL   H14349409   2.613   0.593   3.285  0.8800 -0.4429  0.4524
  154MOL   H14449410   2.218   0.790   3.382  0.4326  1.3042 -0.5846
  154MOL   H14549411   2.323   0.761   3.522 -1.3263 -0.6414  0.0695
  154MOL   C14649412   2.284   0.586   3.420 -0.0990 -0.0418 -0.3293
  154MOL   C14749413   2.237   0.517   3.292 -0.1610  0.0381 -0.0823
  154MOL   C14849414   2.300   0.408   3.229 -0.0915 -0.2478 -0.5399
  154MOL  Cl14949415   2.445   0.336   3.294 -0.4076  0.4683 -0.0422
  154MOL   C15049416   2.257   0.354   3.106  0.0807 -0.3444 -0.0322
  154MOL   C15149417   2.142   0.404   3.049  0.8545 -0.0784 -0.1076
  154MOL   C15249418   2.072   0.512   3.106 -0.6852 -0.8544 -0.2429
  154MOL   C15349419   2.115   0.568   3.226 -0.2084 -0.2932  0.0497
  154MOL   C15449420   2.179   0.549   3.529 -0.7782 -0.0955 -0.1419
  154MOL   H15549421   2.383   0.546   3.442  0.9934  2.9239  0.3583
  154MOL   H15649422   2.296   0.269   3.051  0.4736 -0.2730  0.1353
  154MOL   H15749423   2.102   0.364   2.956  0.1909  1.1741 -0.3777
  154MOL   H15849424   1.989   0.548   3.048 -1.6291 -3.4798 -0.6002
  154MOL   H15949425   2.053   0.640   3.278  2.3283  0.3188  2.4078
  154MOL   H16049426   2.103   0.479   3.493 -0.9391  0.7115 -1.3724
  154MOL   H16149427   2.119   0.637   3.553  1.0975  1.3675 -0.7615
  154MOL   C16249428   2.229   0.513   3.670 -0.3351 -0.5510  0.1093
  154MOL   C16349429   2.285   0.377   3.683 -0.0234  0.1201 -0.6050
  154MOL   C16449430   2.413   0.353   3.726  0.5038  0.0647  0.4614
  154MOL  Cl16549431   2.521   0.477   3.780 -0.1243 -0.1175 -0.3162
  154MOL   C16649432   2.470   0.223   3.739  0.1100  0.1980  0.7265
  154MOL   C16749433   2.394   0.108   3.697 -0.3310  0.1165 -0.1299
  154MOL   C16849434   2.265   0.133   3.652  0.7763 -1.0323  0.5790
  154MOL   C16949435   2.212   0.266   3.631  0.3053  0.0451 -0.0219
  154MOL   C17049436   2.129   0.546   3.784  0.2089 -0.1464 -0.4885
  154MOL   H17149437   2.307   0.588   3.683 -0.2423 -0.1798 -2.3817
  154MOL   H17249438   2.563   0.208   3.790  1.7633 -1.1144 -2.5008
  154MOL   H17349439   2.431   0.006   3.701  0.8987  0.4208 -2.9091
  154MOL   H17449440   2.202   0.050   3.625  0.0135  0.0233 -0.9623
  154MOL   H17549441   2.111   0.273   3.594  0.4605  0.1584 -0.4246
  154MOL   H17649442   2.128   0.655   3.786 -0.6357 -0.0802 -3.2498
  154MOL   H17749443   2.183   0.523   3.876 -1.2264 -0.2362  0.3519
  154MOL   C17849444   1.981   0.495   3.773 -0.1882  0.6207 -0.1845
  154MOL   C17949445   1.889   0.579   3.686  0.3958  0.3379 -0.5052
  154MOL   C18049446   1.822   0.530   3.576 -0.2429  0.5652 -0.3964
  154MOL  Cl18149447   1.841   0.369   3.516 -0.0108 -0.1462  0.0638
  154MOL   C18249448   1.736   0.606   3.503 -0.0263 -0.5957  0.1176
  154MOL   C18349449   1.706   0.738   3.536  0.1712 -0.0754 -0.0185
  154MOL   C18449450   1.775   0.792   3.646 -0.4706  0.0708  0.4867
  154MOL   C18549451   1.860   0.713   3.723 -0.4753  0.5178 -0.0290
  154MOL   C18649452   1.921   0.486   3.917  0.0968 -0.2984 -0.6177
  154MOL   H18749453   1.987   0.393   3.734  1.9640  0.4965  0.4170
  154MOL   H18849454   1.697   0.553   3.417 -0.3797  0.6536 -0.4994
  154MOL   H18949455   1.644   0.799   3.472  0.8975 -0.1653 -0.8129
  154MOL   H19049456   1.772   0.899   3.665 -0.7231 -0.1067  1.4672
  154MOL   H19149457   1.905   0.758   3.811  0.0120 -1.1278  0.5833
  154MOL   H19249458   1.921   0.588   3.956 -0.5736 -0.9188  1.0845
  154MOL   H19349459   1.995   0.444   3.986 -1.3999 -2.1082 -0.0934
  154MOL   C19449460   1.785   0.408   3.937  0.4556 -0.0016 -0.3388
  154MOL   C19549461   1.714   0.450   4.066 -0.2016  0.8030 -0.3067
  154MOL   C19649462   1.584   0.506   4.065 -0.1221 -0.4479  0.3235
  154MOL  Cl19749463   1.485   0.544   3.924 -0.2208 -0.0635  0.0386
  154MOL   C19849464   1.512   0.516   4.191  0.0105 -0.0635  0.1615
  154MOL   C19949465   1.580   0.503   4.313 -0.2790  0.2445 -0.0166
  154MOL   C20049466   1.711   0.465   4.309  0.3900  0.2647 -0.2323
  154MOL   C20149467   1.780   0.436   4.189  0.4094 -0.2704 -0.1905
  154MOL   C20249468   1.802   0.258   3.931  0.2995 -0.4555 -0.2756
  154MOL   H20349469   1.725   0.431   3.849  2.2056  1.7696 -1.0968
  154MOL   H20449470   1.405   0.525   4.199 -0.0178  1.5651 -1.6809
  154MOL   H20549471   1.544   0.525   4.412  2.5303 -0.5781  1.2489
  154MOL   H20649472   1.761   0.456   4.404 -1.7273 -1.0584  0.7733
  154MOL   H20749473   1.882   0.399   4.196  0.5198 -0.1610 -1.1542
  154MOL   H20849474   1.800   0.204   4.026  0.3586  0.5942  0.3275
  154MOL   H20949475   1.902   0.239   3.893  1.4067  3.1119  0.6350
  154MOL   C21049476   1.708   0.175   3.834  0.3547 -0.3883  0.1983
  154MOL   C21149477   1.557   0.197   3.856  0.9166  0.0849 -0.0379
  154MOL   C21249478   1.467   0.233   3.745  0.0993  0.1877 -0.3574
  154MOL  Cl21349479   1.524   0.243   3.584  0.6861 -0.0859  0.4181
  154MOL   C21449480   1.334   0.261   3.778 -0.1480 -0.3129  0.1308
  154MOL   C21549481   1.284   0.256   3.907 -0.0462  0.1279  0.0875
  154MOL   C21649482   1.377   0.232   4.011  0.1535  0.2445  0.2320
  154MOL   C21749483   1.510   0.198   3.986  0.2296 -0.4019  0.5370
  154MOL   C21849484   1.743   0.022   3.823  0.2034 -0.1288 -0.3365
  154MOL   H21949485   1.725   0.206   3.732 -0.3733 -0.8520 -0.0714
  154MOL   H22049486   1.264   0.281   3.698 -0.8216  2.0925  1.2606
  154MOL   H22149487   1.181   0.278   3.934 -0.3606 -2.9260  1.6210
  154MOL   H22249488   1.340   0.217   4.112 -0.9588 -3.9460 -0.7236
  154MOL   H22349489   1.577   0.178   4.069  2.8009 -0.3387 -1.4576
  154MOL   H22449490   1.673   8.393   3.890 -1.0890  0.2669 -1.3723
  154MOL   H22549491   1.838   0.014   3.876  1.0652  1.5323 -1.5623
  154MOL   C22649492   1.728   8.371   3.680  0.8682 -0.0269 -0.8208
  154MOL   C22749493   1.724   8.221   3.706 -0.7032  0.4767 -1.1878
  154MOL   C22849494   1.631   8.134   3.642  0.0771 -0.1624  0.1176
  154MOL  Cl22949495   1.505   8.196   3.542 -0.0043  0.2908 -0.1931
  154MOL   C23049496   1.643   7.997   3.664  0.3518  0.6156  0.0735
  154MOL   C23149497   1.754   7.942   3.730 -1.1129  0.2880  0.4579
  154MOL   C23249498   1.851   8.022   3.795  0.1986 -1.0601  0.5527
  154MOL   C23349499   1.834   8.159   3.775 -0.2630 -0.6022  0.4880
  154MOL   C23449500   1.847   8.408   3.585 -0.4192  0.1967 -0.5202
  154MOL   H23549501   1.632   8.410   3.645 -0.2053  1.6449  3.6891
  154MOL   H23649502   1.578   7.923   3.621  0.6414 -1.0855  2.4848
  154MOL   H23749503   1.757   7.837   3.752  0.7158  0.4425  1.0276
  154MOL   H23849504   1.920   7.989   3.871  1.5344  1.5794  0.5470
  154MOL   H23949505   1.908   8.225   3.817 -0.9543  1.0677 -0.8754
  154MOL   H24049506   1.937   8.362   3.624 -0.8375  0.1711  0.4208
  154MOL   H24149507   1.877   0.092   3.586  0.8004 -0.1025 -2.2337
  154MOL   C24249508   1.834   8.364   3.442  0.4088 -1.1642  0.0775
  154MOL   C24349509   1.979   8.335   3.393 -0.2885 -0.4839  0.1625
  154MOL   C24449510   2.029   8.203   3.375 -0.2063  0.0911  0.0336
  154MOL  Cl24549511   1.931   8.058   3.401 -0.1807 -0.2986 -0.0824
  154MOL   C24649512   2.158   8.186   3.315  0.1740  0.4418  0.3505
  154MOL   C24749513   2.247   8.292   3.311  0.7873  0.1895 -0.8844
  154MOL   C24849514   2.202   0.005   3.328 -0.6736  0.7323  0.5427
  154MOL   C24949515   2.065   0.024   3.358 -0.3087  0.0194  0.7640
  154MOL   C25049516   1.756   0.044   3.357  0.2221  0.5130  0.2004
  154MOL   H25149517   1.777   8.271   3.442  0.8590 -1.4465 -0.2523
  154MOL   H25249518   2.183   8.088   3.278  0.8783  0.4505  0.8029
  154MOL   H25349519   2.350   8.281   3.280  1.0591 -2.6143  0.8830
  154MOL   H25449520   2.271   0.082   3.297 -0.6313 -0.5117 -2.5392
  154MOL   H25549521   2.032   0.127   3.369  0.7324  0.1985  2.3050
  154MOL   H25649522   1.804   0.142   3.364  0.4065  0.4185  0.2768
  154MOL   H25749523   1.654   0.046   3.395 -0.0540  1.7412 -0.5865
  154MOL   C25849524   1.755   0.007   3.204  0.1092 -0.0938  0.6863
  154MOL   C25949525   1.705   0.130   3.113  0.0326  0.0980 -1.0259
  154MOL   C26049526   1.791   0.175   3.011  1.4235  0.6639 -0.0608
  154MOL  Cl26149527   1.954   0.121   2.992  0.2442  0.1486  0.3897
  154MOL   C26249528   1.754   0.287   2.934  0.7390  0.0601  0.4373
  154MOL   C26349529   1.625   0.338   2.946  0.3828 -1.0038  0.1377
  154MOL   C26449530   1.547   0.296   3.051  0.4291 -0.2745 -0.5761
  154MOL   C26549531   1.583   0.189   3.134  0.4484  0.6030 -0.9075
  154MOL   C26649532   1.699   8.294   3.172 -1.1155  0.3652 -0.2736
  154MOL   H26749533   1.861   8.419   3.179 -0.1822  0.2076 -0.7279
  154MOL   H26849534   1.811   0.328   2.852 -0.9378  1.1323 -0.2164
  154MOL   H26949535   1.600   0.417   2.877  2.2632  0.0804  0.6459
  154MOL   H27049536   1.451   0.342   3.063  0.5564 -0.2049  0.2133
  154MOL   H27149537   1.522   0.158   3.217  3.0872  1.4633  1.4081
  154MOL   H27249538   1.592   8.299   3.192 -1.1749 -0.9706 -0.1890
  154MOL   H27349539   1.738   8.220   3.242 -1.0016 -0.6001 -1.3454
  154MOL   C27449540   1.741   8.249   3.027  0.5986 -0.0972  0.4154
  154MOL   C27549541   1.637   8.144   2.978 -0.3024 -0.1703  0.0228
  154MOL   C27649542   1.538   8.184   2.883 -0.1400  0.0596 -0.3973
  154MOL  Cl27749543   1.530   8.348   2.820 -0.1840 -0.0753  0.1414
  154MOL   C27849544   1.438   8.087   2.842  0.2424 -0.1872  0.1044
  154MOL   C27949545   1.435   7.958   2.898 -0.6324 -0.2918  0.5404
  154MOL   C28049546   1.530   7.924   2.996 -0.2052 -0.6792 -0.3181
  154MOL   C28149547   1.635   8.015   3.031 -0.0165  0.5494 -0.5555
  154MOL   C28249548   1.878   8.180   3.027  0.0741 -0.6604  0.1831
  154MOL   H28349549   1.733   8.337   2.964  1.7077 -0.2115  0.1066
  154MOL   H28449550   1.367   8.124   2.770 -1.8852  0.1813  2.3314
  154MOL   H28549551   1.368   7.877   2.872 -0.6279  0.1935 -1.0724
  154MOL   H28649552   1.505   7.832   3.047 -2.0827 -0.1426 -0.2210
  154MOL   H28749553   1.712   7.977   3.097 -3.0382 -1.0671  2.2096
  154MOL   H28849554   1.894   8.109   3.108 -0.5147  0.3206  1.1841
  154MOL   H28949555   1.948   8.252   3.070  0.5459 -1.0325  0.0424
  154MOL   C29049556   1.927   8.135   2.887  0.0585  0.3600 -0.3572
  154MOL   C29149557   2.066   8.073   2.896  0.6824 -0.1334 -0.3904
  154MOL   C29249558   2.072   7.936   2.919  0.3758  0.4345  0.3404
  154MOL  Cl29349559   1.934   7.823   2.931  0.4168  0.0186  0.3400
  154MOL   C29449560   2.199   7.875   2.930  0.1276 -0.0087 -0.3069
  154MOL   C29549561   2.319   7.948   2.930 -0.3074 -0.1204  0.6919
  154MOL   C29649562   2.309   8.089   2.909  0.2997  0.2033  0.8108
  154MOL   C29749563   2.184   8.154   2.898  0.5698 -0.0380  0.5278
  154MOL   C29849564   1.920   8.239   2.774  0.2713 -0.5513  0.5513
  154MOL   H29949565   1.857   8.056   2.862 -0.6257  0.4281  1.2808
  154MOL   H30049566   2.198   7.767   2.934  2.8920 -0.3542 -5.1703
  154MOL   H30149567   2.417   7.904   2.942 -0.0398  0.3165  0.1461
  154MOL   H30249568   2.393   8.156   2.916 -1.4000  2.2463  2.5225
  154MOL   H30349569   2.175   8.261   2.886  0.1838 -0.1419 -0.1117
  154MOL   H30449570   2.018   8.268   2.737 -0.7554 -0.4063 -2.1969
  154MOL   H30549571   1.886   8.333   2.818  1.1460 -0.6093  1.3585
  154MOL   C30649572   1.832   8.209   2.648 -0.4045  0.2351  0.2421
  154MOL   C30749573   1.846   8.064   2.594  0.2169  0.2748 -0.5511
  154MOL   C30849574   1.730   7.998   2.555 -0.1881  0.3583  0.0163
  154MOL  Cl30949575   1.573   8.078   2.558 -0.3363  0.1459 -0.0807
  154MOL   C31049576   1.734   7.865   2.503 -0.4248  0.3288 -0.5769
  154MOL   C31149577   1.854   7.791   2.504 -0.2339  0.0473  0.2977
  154MOL   C31249578   1.965   7.852   2.552  0.6478  0.3522 -0.0502
  154MOL   C31349579   1.971   7.992   2.580  0.1035  0.5220 -0.6444
  154MOL   C31449580   1.847   8.312   2.534  0.2773  0.3425 -0.0860
  154MOL   H31549581   1.731   8.229   2.682 -1.6351 -4.7498 -0.0531
  154MOL   H31649582   1.640   7.822   2.473 -0.8619  0.0872  1.0469
  154MOL   H31749583   1.843   7.684   2.496  0.8496  0.1177 -2.5447
  154MOL   H31849584   2.055   7.794   2.569  0.8211  0.6234 -0.0316
  154MOL   H31949585   2.070   8.033   2.597  1.0910 -1.9839  0.0065
  154MOL   H32049586   1.825   8.411   2.574  0.2018  0.6086 -0.7829
  154MOL   H32149587   1.775   8.288   2.456 -0.0969 -2.1632  0.9670
  154MOL   H32249588   1.943   8.310   2.482  0.0164  0.5019 -0.5802
  155MOL     C149589   7.072   8.334   6.228 -0.6819  0.7373 -0.3438
  155MOL     C249590   7.005   0.025   6.157 -0.3451 -0.9564  0.0570
  155MOL     C349591   7.043   0.065   6.029  0.0916 -0.6093  0.0868
  155MOL    Cl449592   7.183   8.411   5.949 -0.0348  0.3932 -0.0894
  155MOL     C549593   6.996   0.183   5.971 -0.2533 -0.3281 -0.4427
  155MOL     C649594   6.899   0.258   6.037 -0.1812  0.2456  0.3091
  155MOL     C749595   6.856   0.217   6.167 -0.4458  0.3089  0.3216
  155MOL     C849596   6.904   0.101   6.228 -0.1321 -0.2754  0.4198
  155MOL     C949597   7.001   8.198   6.202  0.0587  0.4028  0.6095
  155MOL    H1049598   7.177   8.337   6.201  0.0231 -1.2493  2.0318
  155MOL    H1149599   7.031   0.224   5.877  1.6960  0.5487  0.6330
  155MOL    H1249600   6.858   0.352   6.003 -1.4630  0.1667  1.5922
  155MOL    H1349601   6.770   0.262   6.214 -0.8367 -0.4393  0.3421
  155MOL    H1449602   6.872   0.082   6.329 -1.1096  0.6668  0.2932
  155MOL    H1549603   7.038   8.184   6.101  2.1013 -0.6909  1.4648
  155MOL    H1649604   6.893   8.210   6.200  0.2303  1.9724  0.6859
  155MOL    H1749605   7.060   8.342   6.336 -0.8266  1.9297 -0.4410
  155MOL    C1849606   7.041   8.087   6.300  0.2623  0.1039  0.2650
  155MOL    C1949607   7.198   8.082   6.329  0.3200 -0.0556 -0.1677
  155MOL    C2049608   7.245   8.071   6.464  0.1759 -0.3189  0.4335
  155MOL   Cl2149609   7.141   8.072   6.600 -0.2718  0.0255  0.2073
  155MOL    C2249610   7.376   8.061   6.495 -0.3202 -0.2840 -0.2008
  155MOL    C2349611   7.474   8.053   6.386 -0.0216  0.1655 -0.2354
  155MOL    C2449612   7.434   8.065   6.253  0.5087 -0.5570  0.3112
  155MOL    C2549613   7.294   8.074   6.228  0.2805  0.2245  0.4493
  155MOL    C2649614   7.000   7.944   6.270 -0.0291  0.3618 -1.1070
  155MOL    H2749615   6.987   8.107   6.392 -0.8878  0.8994 -0.5666
  155MOL    H2849616   7.413   8.053   6.597 -0.1100  1.2261 -0.1382
  155MOL    H2949617   7.580   8.059   6.407 -0.0682  1.4734 -0.3056
  155MOL    H3049618   7.503   8.075   6.171  0.9448 -1.2543  0.5780
  155MOL    H3149619   7.274   8.065   6.122 -0.5416 -0.0115  0.6225
  155MOL    H3249620   7.043   7.888   6.353  0.0602  0.9107 -0.7816
  155MOL    H3349621   7.061   7.919   6.183 -1.4878 -2.3418 -1.4184
  155MOL    C3449622   6.847   7.906   6.261 -0.1661  0.2693  0.2081
  155MOL    C3549623   6.760   7.970   6.372  0.2532  0.1318 -0.0706
  155MOL    C3649624   6.657   8.058   6.335  0.4735 -1.0472 -0.2351
  155MOL   Cl3749625   6.619   8.093   6.171 -0.2422  0.2178 -0.1746
  155MOL    C3849626   6.593   8.128   6.435 -0.0781 -0.1044 -0.5900
  155MOL    C3949627   6.631   8.106   6.570  0.0420  0.0732  0.1205
  155MOL    C4049628   6.728   8.023   6.607  0.1143 -0.1342 -0.0324
  155MOL    C4149629   6.799   7.959   6.506 -0.4681  0.6066  0.0594
  155MOL    C4249630   6.824   7.746   6.277  0.1127 -0.7319  0.0755
  155MOL    H4349631   6.818   7.939   6.162  0.0204  0.7014  0.2954
  155MOL    H4449632   6.521   8.206   6.410 -1.1352 -0.4733  1.1943
  155MOL    H4549633   6.572   8.173   6.632 -0.8757  0.0823 -0.7470
  155MOL    H4649634   6.744   8.012   6.714 -0.1617  2.7263  0.3348
  155MOL    H4749635   6.886   7.900   6.530  1.3264  2.1310 -2.3866
  155MOL    H4849636   6.717   7.725   6.285  0.0262 -0.6791 -0.8246
  155MOL    H4949637   6.855   7.721   6.378  2.3113  3.0385  0.4226
  155MOL    C5049638   6.887   7.661   6.160  0.1342 -0.0799  0.5961
  155MOL    C5149639   6.821   7.674   6.021 -0.2849  0.8095 -0.0507
  155MOL    C5249640   6.891   7.717   5.904 -0.0878 -0.2450 -0.8950
  155MOL   Cl5349641   7.055   7.785   5.908 -0.5305 -0.2249  0.1497
  155MOL    C5449642   6.836   7.700   5.773 -0.6837 -0.3052 -0.5422
  155MOL    C5549643   6.705   7.666   5.760 -0.9875 -0.0782 -0.7533
  155MOL    C5649644   6.631   7.620   5.875 -0.5740 -0.3040 -0.2742
  155MOL    C5749645   6.688   7.622   6.005 -0.2005  0.3975  0.2537
  155MOL    C5849646   6.906   7.510   6.196 -0.0245  0.2208  0.4933
  155MOL    H5949647   6.987   7.703   6.155 -0.8710  2.6782  2.2753
  155MOL    H6049648   6.905   7.712   5.691  0.2303 -2.8350 -0.1548
  155MOL    H6149649   6.664   7.654   5.661  1.2379  1.5741 -1.9099
  155MOL    H6249650   6.531   7.581   5.862 -1.5896  1.7852  0.9400
  155MOL    H6349651   6.645   7.575   6.092 -0.8318 -0.2181 -0.3740
  155MOL    H6449652   6.969   7.470   6.117  0.1383  0.3132  0.5759
  155MOL    H6549653   6.813   7.453   6.188 -0.0994  0.4676 -0.4525
  155MOL    C6649654   6.985   7.479   6.336  0.3448 -0.0203 -0.1950
  155MOL    C6749655   7.118   7.557   6.340  0.0786 -1.0302  1.1747
  155MOL    C6849656   7.157   7.642   6.449 -0.2731  0.6994 -0.5176
  155MOL   Cl6949657   7.044   7.667   6.576  0.2557  0.2912 -0.4009
  155MOL    C7049658   7.283   7.698   6.453 -0.1124  0.3314  0.2795
  155MOL    C7149659   7.371   7.685   6.347 -0.1528 -0.1022 -0.1008
  155MOL    C7249660   7.330   7.607   6.230 -0.9814 -0.9577 -0.4220
  155MOL    C7349661   7.209   7.529   6.236  1.2217 -1.0554  0.7380
  155MOL    C7449662   7.009   7.332   6.363 -0.3290 -0.8511  0.7860
  155MOL    H7549663   6.923   7.521   6.415 -0.4710  0.0238 -0.8612
  155MOL    H7649664   7.317   7.751   6.541  3.6857 -2.0795  0.3864
  155MOL    H7749665   7.468   7.732   6.355  0.2616 -1.1105  0.7663
  155MOL    H7849666   7.396   7.604   6.145  0.1181  0.1299  0.3592
  155MOL    H7949667   7.187   7.468   6.150 -0.9188 -0.3611  0.7573
  155MOL    H8049668   7.075   7.326   6.449  1.0498  0.2488 -0.1818
  155MOL    H8149669   7.071   7.308   6.277  0.0130 -0.6391  0.9739
  155MOL    C8249670   6.887   7.228   6.372 -0.8124  0.6836  0.0913
  155MOL    C8349671   6.775   7.282   6.459  0.1942 -0.2012 -0.6339
  155MOL    C8449672   6.640   7.269   6.414  0.2431  0.0160 -0.1329
  155MOL   Cl8549673   6.596   7.192   6.268 -0.3311 -0.3737  0.2718
  155MOL    C8649674   6.532   7.328   6.488 -0.8032  0.5919 -0.5633
  155MOL    C8749675   6.557   7.392   6.610 -0.3303 -0.0422  0.2953
  155MOL    C8849676   6.689   7.407   6.657  0.2998 -0.3045 -0.1347
  155MOL    C8949677   6.799   7.355   6.576 -0.4639 -0.3984 -0.3150
  155MOL    C9049678   6.946   7.090   6.419  0.0652  0.3386 -0.1219
  155MOL    H9149679   6.848   7.223   6.271  1.0774  0.5951 -0.6494
  155MOL    H9249680   6.430   7.314   6.456 -1.1147 -0.3538  0.7847
  155MOL    H9349681   6.467   7.424   6.661 -1.7072 -2.5435 -0.5169
  155MOL    H9449682   6.713   7.450   6.753 -0.2671 -0.5062  0.0998
  155MOL    H9549683   6.897   7.387   6.609 -1.0369 -1.2977  2.3440
  155MOL    H9649684   7.000   7.107   6.513  0.9582 -1.2859 -0.3176
  155MOL    H9749685   7.019   7.061   6.343 -0.7447  1.4614 -1.3577
  155MOL    C9849686   6.844   6.975   6.429  0.3334 -0.5250  0.3398
  155MOL    C9949687   6.889   6.882   6.542  0.2073  0.3396  0.1880
  155MOL   C10049688   6.821   6.871   6.663  0.4020  0.5726 -0.0925
  155MOL  Cl10149689   6.698   6.986   6.722 -0.2108 -0.3492  0.0422
  155MOL   C10249690   6.851   6.771   6.764 -0.5825  0.1259 -0.0438
  155MOL   C10349691   6.952   6.678   6.729  0.7526  0.1466 -0.1917
  155MOL   C10449692   7.023   6.684   6.608 -0.0880  0.3362  0.4610
  155MOL   C10549693   6.989   6.786   6.514  0.3454 -0.1794 -0.5305
  155MOL   C10649694   6.819   6.914   6.284  0.3098  0.0859  0.2406
  155MOL   H10749695   6.747   7.012   6.460  0.3464 -0.9267  0.8715
  155MOL   H10849696   6.790   6.762   6.852  1.5479 -0.5969  1.3924
  155MOL   H10949697   6.971   6.597   6.798 -0.5921  0.1383  0.1837
  155MOL   H11049698   7.104   6.614   6.591  0.6188  0.6997  2.1706
  155MOL   H11149699   7.043   6.787   6.421  1.5121  0.1470  0.1360
  155MOL   H11249700   6.911   6.892   6.229  1.0948 -0.4509  1.7334
  155MOL   H11349701   6.772   6.992   6.224 -1.4169  0.0316  1.4737
  155MOL   C11449702   6.729   6.788   6.278  0.3197  0.0958  0.2493
  155MOL   C11549703   6.757   6.710   6.151  1.1337  0.0621 -0.0746
  155MOL   C11649704   6.813   6.578   6.147 -0.4084  0.5963 -0.5029
  155MOL  Cl11749705   6.859   6.497   6.299  0.1449 -0.1398  0.1336
  155MOL   C11849706   6.825   6.515   6.025  0.5226 -0.1016  0.0846
  155MOL   C11949707   6.799   6.582   5.903  1.1046  0.6707  0.6791
  155MOL   C12049708   6.746   6.712   5.910  0.3364 -0.6747 -0.2211
  155MOL   C12149709   6.721   6.779   6.030  1.5717 -0.2383  0.3906
  155MOL   C12249710   6.576   6.823   6.304  0.6671 -0.0344  0.4417
  155MOL   H12349711   6.764   6.720   6.356  1.3608  0.4254  0.0805
  155MOL   H12449712   6.859   6.413   6.023  1.0939  0.0998 -0.7878
  155MOL   H12549713   6.820   6.529   5.811 -0.2717  1.6806 -0.2424
  155MOL   H12649714   6.715   6.753   5.814 -1.5968  1.7195  1.3556
  155MOL   H12749715   6.690   6.882   6.029  0.3554 -0.5721  1.8208
  155MOL   H12849716   6.531   6.867   6.214  0.6705  2.3185  1.5400
  155MOL   H12949717   6.571   6.912   6.367  2.5422 -0.4735  1.2145
  155MOL   C13049718   6.474   6.729   6.382  0.1477 -0.2216 -0.0156
  155MOL   C13149719   6.510   6.578   6.365  0.0555  0.2923 -0.3929
  155MOL   C13249720   6.554   6.487   6.468 -0.6496 -0.5572  0.1044
  155MOL  Cl13349721   6.587   6.537   6.628 -0.2002  0.1643 -0.6821
  155MOL   C13449722   6.558   6.349   6.434 -0.4482  0.6144  0.5797
  155MOL   C13549723   6.552   6.303   6.300 -0.4622 -0.0132 -0.1726
  155MOL   C13649724   6.523   6.395   6.196 -0.4573  0.1824 -0.1410
  155MOL   C13749725   6.497   6.529   6.231 -0.0789  0.0563  0.5276
  155MOL   C13849726   6.334   6.764   6.329  0.8138  0.0042  0.1143
  155MOL   H13949727   6.476   6.756   6.487 -0.7737  1.3590 -0.3884
  155MOL   H14049728   6.575   6.280   6.515 -2.7102  0.8043  1.2669
  155MOL   H14149729   6.557   6.195   6.288 -0.2122  0.1946 -2.1575
  155MOL   H14249730   6.516   6.355   6.096 -0.5326 -2.0908  0.7434
  155MOL   H14349731   6.477   6.607   6.159 -1.7194 -0.6312  0.2087
  155MOL   H14449732   6.326   6.753   6.221 -0.9929 -0.9064  0.3172
  155MOL   H14549733   6.319   6.871   6.344  2.2766  0.2684 -0.1929
  155MOL   C14649734   6.205   6.706   6.401 -0.1037 -0.2860  0.5591
  155MOL   C14749735   6.181   6.562   6.352 -0.8693 -0.7381  0.4181
  155MOL   C14849736   6.179   6.447   6.440  0.5252 -0.0939  0.0579
  155MOL  Cl14949737   6.202   6.467   6.614  0.0154 -0.3203  0.3846
  155MOL   C15049738   6.173   6.318   6.385 -0.6433 -0.0856 -0.4530
  155MOL   C15149739   6.157   6.304   6.246  0.7867 -0.4983  0.1261
  155MOL   C15249740   6.145   6.417   6.161 -0.2089 -0.4489  0.5768
  155MOL   C15349741   6.171   6.542   6.214  0.0268  0.2014  0.4180
  155MOL   C15449742   6.073   6.795   6.389  0.2578 -0.2809 -0.5207
  155MOL   H15549743   6.226   6.694   6.507  0.4656 -1.3561  0.3314
  155MOL   H15649744   6.164   6.232   6.450  0.3924  0.7012  0.7284
  155MOL   H15749745   6.147   6.200   6.218  3.1760 -0.5808 -0.5264
  155MOL   H15849746   6.139   6.397   6.055  0.7289 -1.3737  0.6863
  155MOL   H15949747   6.179   6.624   6.144 -0.9948  0.1334  0.2158
  155MOL   H16049748   5.990   6.746   6.440  0.1245  1.5377  1.1217
  155MOL   H16149749   6.041   6.785   6.286 -0.3605 -2.1133 -0.1694
  155MOL   C16249750   6.077   6.936   6.458 -0.4141 -0.2510  0.4116
  155MOL   C16349751   6.085   6.933   6.614 -0.3032  0.3688 -0.3624
  155MOL   C16449752   6.194   6.991   6.682  0.3107  0.6411  0.1208
  155MOL  Cl16549753   6.315   7.073   6.596 -0.4817  0.1914 -0.2853
  155MOL   C16649754   6.202   6.970   6.822  0.1383  0.1118  0.5455
  155MOL   C16749755   6.101   6.889   6.892  0.0951  0.0597  0.4053
  155MOL   C16849756   5.990   6.838   6.818  0.4027  0.6165  0.0833
  155MOL   C16949757   5.982   6.869   6.681 -0.1622  0.4507 -0.2757
  155MOL   C17049758   5.959   7.014   6.400 -0.3580  0.2332 -0.1518
  155MOL   H17149759   6.159   6.997   6.420 -0.2863 -1.4127 -1.2308
  155MOL   H17249760   6.282   7.009   6.884 -0.0861  0.8977  0.3445
  155MOL   H17349761   6.117   6.870   6.997  1.0546  1.3093  0.4934
  155MOL   H17449762   5.906   6.783   6.858  1.0735  0.7420  1.6955
  155MOL   H17549763   5.907   6.833   6.612  2.6663  0.3081 -3.4088
  155MOL   H17649764   5.868   6.966   6.435  0.2555 -0.6980  0.1879
  155MOL   H17749765   5.951   7.014   6.291  1.7087  0.7802 -0.3273
  155MOL   C17849766   5.953   7.166   6.437 -0.8061 -0.4638  0.2045
  155MOL   C17949767   5.805   7.216   6.431  0.1861 -0.0199 -0.4654
  155MOL   C18049768   5.736   7.257   6.551 -0.0326  0.1684  0.9597
  155MOL  Cl18149769   5.823   7.246   6.706 -0.0836 -0.0884  0.0987
  155MOL   C18249770   5.612   7.308   6.542  0.0995  0.3501 -0.3033
  155MOL   C18349771   5.541   7.322   6.422 -0.9532  0.5991  0.1101
  155MOL   C18449772   5.606   7.275   6.308  0.7272 -0.1189 -0.6868
  155MOL   C18549773   5.737   7.225   6.312 -0.6271 -0.1288 -0.2213
  155MOL   C18649774   6.044   7.245   6.339 -0.5671 -0.5813 -0.9711
  155MOL   H18749775   5.992   7.181   6.538 -0.5848 -0.8646  0.1769
  155MOL   H18849776   5.565   7.349   6.630  0.0374  0.7072 -0.4998
  155MOL   H18949777   5.440   7.361   6.420 -0.9973  0.6055  1.4599
  155MOL   H19049778   5.545   7.292   6.221 -3.3813 -0.2967  2.0415
  155MOL   H19149779   5.798   7.197   6.228  0.8141  2.4093 -0.0782
  155MOL   H19249780   6.025   7.211   6.238  0.6243  1.0678 -1.7648
  155MOL   H19349781   6.149   7.219   6.351  0.4597  3.8793  0.7684
  155MOL   C19449782   6.033   7.401   6.328  0.1347  0.4323  0.0338
  155MOL   C19549783   6.120   7.449   6.213  0.0814  0.5868  0.4943
  155MOL   C19649784   6.062   7.495   6.091  0.0725 -0.4002 -0.7134
  155MOL  Cl19749785   5.890   7.490   6.062 -0.1031 -0.2238 -0.1273
  155MOL   C19849786   6.146   7.539   5.987  0.6012  0.4476 -0.8634
  155MOL   C19949787   6.282   7.556   6.003 -0.1814 -0.5823 -0.1282
  155MOL   C20049788   6.338   7.509   6.124  0.4542  1.0734 -0.3078
  155MOL   C20149789   6.259   7.454   6.226  0.2677 -0.4008  0.4315
  155MOL   C20249790   6.063   7.477   6.466  0.0664 -0.5629  0.2447
  155MOL   H20349791   5.934   7.433   6.298 -0.4537 -0.2900  1.1805
  155MOL   H20449792   6.089   7.567   5.899 -0.3068  1.2469 -0.0245
  155MOL   H20549793   6.335   7.608   5.925 -3.4013 -0.0024 -2.0544
  155MOL   H20649794   6.444   7.523   6.141  0.6972  1.1067 -1.7990
  155MOL   H20749795   6.304   7.431   6.322  1.7844 -0.8005 -0.3641
  155MOL   H20849796   6.156   7.430   6.501 -0.4429 -0.8407  1.2489
  155MOL   H20949797   5.988   7.445   6.539 -1.1881  0.9287 -0.3814
  155MOL   C21049798   6.079   7.631   6.456 -0.0772 -0.8916  0.3754
  155MOL   C21149799   6.225   7.673   6.453  0.2289  0.6220  0.6437
  155MOL   C21249800   6.281   7.745   6.342  0.2268  0.1793  0.0250
  155MOL  Cl21349801   6.185   7.790   6.208  0.3642 -0.1610 -0.2313
  155MOL   C21449802   6.416   7.771   6.349  0.0272 -0.1457  0.1176
  155MOL   C21549803   6.492   7.738   6.461 -0.5742  0.0734  0.7668
  155MOL   C21649804   6.435   7.676   6.573 -0.2597 -0.2706  0.8369
  155MOL   C21749805   6.301   7.639   6.568  0.5267  0.0547 -0.5410
  155MOL   C21849806   5.984   7.712   6.547  0.3809 -0.4340 -0.2991
  155MOL   H21949807   6.028   7.654   6.362  0.4367  1.2496  0.5877
  155MOL   H22049808   6.470   7.826   6.272 -1.6598 -0.4573 -1.3136
  155MOL   H22149809   6.599   7.748   6.463 -0.5523  0.1248 -0.4045
  155MOL   H22249810   6.473   7.644   6.669 -1.3939 -2.1079  0.7023
  155MOL   H22349811   6.250   7.585   6.646  2.4569 -1.5395 -0.3379
  155MOL   H22449812   6.015   7.715   6.651  0.6380 -1.2006 -0.3489
  155MOL   H22549813   5.888   7.661   6.557 -0.7079  1.5289 -0.6177
  155MOL   C22649814   5.964   7.860   6.499 -0.8282  0.5104 -0.3249
  155MOL   C22749815   5.926   7.951   6.616 -0.1744  0.4747 -0.3853
  155MOL   C22849816   6.005   8.058   6.658 -0.5035 -0.1124  0.7486
  155MOL  Cl22949817   6.160   8.080   6.594  0.2942  0.0163  0.1189
  155MOL   C23049818   5.954   8.160   6.744  0.0277  0.2016  0.6712
  155MOL   C23149819   5.818   8.152   6.797 -0.1396 -0.2322 -0.3295
  155MOL   C23249820   5.741   8.037   6.762  0.7313 -0.1961 -0.6501
  155MOL   C23349821   5.801   7.931   6.676 -0.1329 -0.3212  0.0307
  155MOL   C23449822   5.853   7.866   6.387 -0.5871 -0.0444 -0.7687
  155MOL   H23549823   6.063   7.884   6.461 -0.6100 -1.1857 -0.8283
  155MOL   H23649824   6.014   8.247   6.769  0.5912 -0.5483  1.9689
  155MOL   H23749825   5.773   8.228   6.859  1.2347 -1.4802  2.2865
  155MOL   H23849826   5.643   8.022   6.804  0.5043 -0.6042 -1.3163
  155MOL   H23949827   5.731   7.855   6.647 -3.1552  1.7876  1.5061
  155MOL   H24049828   5.756   7.834   6.425  0.5186 -3.5315 -0.6449
  155MOL   H24149829   5.881   7.795   6.308  2.4693  1.8738 -1.4848
  155MOL   C24249830   5.838   8.007   6.331  0.2485 -0.3467  0.0423
  155MOL   C24349831   5.709   8.000   6.242 -0.2692 -0.2967 -0.5747
  155MOL   C24449832   5.579   8.040   6.289  0.5318  0.5066  0.2727
  155MOL  Cl24549833   5.557   8.083   6.455 -0.1638 -0.0241  0.2047
  155MOL   C24649834   5.465   8.022   6.205 -0.5285 -1.3261 -0.1580
  155MOL   C24749835   5.478   7.983   6.077 -0.1481 -0.2162  0.4028
  155MOL   C24849836   5.606   7.945   6.033 -0.2985 -0.2402  0.3614
  155MOL   C24949837   5.715   7.946   6.120 -0.2102  0.3531 -0.1297
  155MOL   C25049838   5.959   8.072   6.252 -0.5995  0.2588 -0.5665
  155MOL   H25149839   5.811   8.069   6.416 -0.4298  0.9723 -1.1236
  155MOL   H25249840   5.375   8.064   6.245  0.4737  0.2991  0.4373
  155MOL   H25349841   5.393   7.971   6.011  0.1281  1.6793 -0.3272
  155MOL   H25449842   5.628   7.909   5.934 -0.4610 -1.6701  0.8387
  155MOL   H25549843   5.808   7.900   6.087  0.5892  1.6908  0.2154
  155MOL   H25649844   5.979   8.021   6.158  1.7583  2.3355 -1.2350
  155MOL   H25749845   6.050   8.053   6.309 -1.1879 -0.9309 -0.0088
  155MOL   C25849846   5.957   8.222   6.253 -0.0760 -0.1946 -0.3338
  155MOL   C25949847   5.852   8.265   6.156 -0.2847 -0.4372  0.3957
  155MOL   C26049848   5.749   8.355   6.191 -0.2222 -0.1533  0.2517
  155MOL  Cl26149849   5.736   8.414   6.351  0.3234 -0.1636  0.1363
  155MOL   C26249850   5.660   8.402   6.094 -0.2959  0.4523  0.3148
  155MOL   C26349851   5.667   8.356   5.962  0.5143  0.6555  0.3672
  155MOL   C26449852   5.778   8.279   5.928 -0.3570 -0.5349  0.2383
  155MOL   C26549853   5.863   8.225   6.025 -0.2668  0.7111  0.3218
  155MOL   C26649854   6.102   8.272   6.219  0.4136  0.4868 -0.4775
  155MOL   H26749855   5.922   8.258   6.349 -1.0750  0.6778 -1.0206
  155MOL   H26849856   5.583   0.051   6.124  0.2201  0.4809  1.6287
  155MOL   H26949857   5.592   8.378   5.888 -1.7591 -0.2019  2.3393
  155MOL   H27049858   5.796   8.237   5.830  1.0005  1.6646 -0.4965
  155MOL   H27149859   5.937   8.154   5.989  0.0866  1.2231  0.0344
  155MOL   H27249860   6.138   8.267   6.116 -0.5011  1.4279 -0.8529
  155MOL   H27349861   6.176   8.210   6.269  0.8630 -0.4754 -2.3132
  155MOL   C27449862   6.118   8.420   6.257 -0.3006  0.0926  0.3022
  155MOL   C27549863   6.246   0.050   6.191  1.1487 -0.5310  0.1697
  155MOL   C27649864   6.235   0.159   6.102  0.2743 -0.3266  0.2549
  155MOL  Cl27749865   6.083   0.232   6.057 -0.1861 -0.2027 -0.1877
  155MOL   C27849866   6.351   0.197   6.033  0.2416  0.5679  0.5993
  155MOL   C27949867   6.470   0.132   6.048  0.7362  0.3437 -0.2555
  155MOL   C28049868   6.482   0.028   6.144  0.0871 -0.2899  0.3701
  155MOL   C28149869   6.372   8.415   6.225 -0.5135 -0.6645 -0.6796
  155MOL   C28249870   6.125   0.025   6.405  0.4188  0.4832 -0.9328
  155MOL   H28349871   6.026   0.041   6.216 -1.0905 -2.0410 -0.1474
  155MOL   H28449872   6.340   0.273   5.957 -0.1229  0.7621  0.8456
  155MOL   H28549873   6.545   0.177   5.984 -1.8418  2.6985 -1.7137
  155MOL   H28649874   6.583   8.414   6.161  0.9857  1.0950 -1.8360
  155MOL   H28749875   6.376   8.326   6.285  0.3264 -1.8558 -2.4445
  155MOL   H28849876   6.199   8.373   6.438  1.6316  1.6427 -1.0191
  155MOL   H28949877   6.041   8.411   6.464  0.7697  2.8511  1.0821
  155MOL   C29049878   6.141   0.176   6.448 -0.5948  0.3925 -0.4124
  155MOL   C29149879   6.167   0.177   6.603 -0.6276 -0.4076  0.1975
  155MOL   C29249880   6.302   0.201   6.654  0.0442 -0.4220  0.2797
  155MOL  Cl29349881   6.436   0.212   6.547 -0.1592 -0.2487  0.2641
  155MOL   C29449882   6.315   0.234   6.795  0.1594  0.1567  0.5188
  155MOL   C29549883   6.203   0.228   6.884 -0.5914 -0.9032  0.3907
  155MOL   C29649884   6.079   0.196   6.828 -0.2508  0.5178  0.2081
  155MOL   C29749885   6.061   0.172   6.690  1.0244  0.4133 -0.0130
  155MOL   C29849886   6.008   0.249   6.419  0.0734  0.1252 -0.3685
  155MOL   H29949887   6.217   0.236   6.399 -1.3824  0.4636 -1.5579
  155MOL   H30049888   6.406   0.271   6.841  0.7245  0.9047 -1.1765
  155MOL   H30149889   6.215   0.247   6.990  2.4447 -1.2712  0.1434
  155MOL   H30249890   6.001   0.162   6.894 -0.9081 -2.2354 -1.9007
  155MOL   H30349891   5.964   0.145   6.652  1.0715 -0.3184  0.3813
  155MOL   H30449892   5.923   0.190   6.454  3.3472 -2.9056  2.8287
  155MOL   H30549893   5.991   0.254   6.311 -2.1310  0.2922 -0.0471
  155MOL   C30649894   5.998   0.400   6.462 -0.3612  0.1739 -0.1042
  155MOL   C30749895   5.855   0.452   6.429 -0.0414 -0.2096  0.1416
  155MOL   C30849896   5.753   0.480   6.517 -0.7908 -0.2026  0.7745
  155MOL  Cl30949897   5.785   0.471   6.689 -0.0495 -0.6751 -0.4826
  155MOL   C31049898   5.638   0.545   6.473  0.4799 -0.4300 -0.1608
  155MOL   C31149899   5.616   0.585   6.339 -0.1159 -0.4033 -0.6984
  155MOL   C31249900   5.716   0.555   6.246  0.0961 -0.1492  0.3109
  155MOL   C31349901   5.828   0.479   6.291  0.7709 -0.1674 -0.4423
  155MOL   C31449902   6.116   0.480   6.398 -0.1168  0.3108 -0.2978
  155MOL   H31549903   6.009   0.401   6.571 -2.0806  2.6441  0.0819
  155MOL   H31649904   5.555   0.571   6.537  1.4594  0.3640  0.8047
  155MOL   H31749905   5.525   0.638   6.315  2.7946  4.5242 -1.4919
  155MOL   H31849906   5.707   0.575   6.140 -0.4179  0.5293  0.4835
  155MOL   H31949907   5.901   0.456   6.215  0.8468 -1.5042  0.0156
  155MOL   H32049908   6.204   0.458   6.457 -1.6530 -0.4478  1.7474
  155MOL   H32149909   6.101   0.587   6.409 -1.1946  0.0326  1.0713
  155MOL   H32249910   6.141   0.450   6.296 -1.2640 -1.5770 -0.0571
   8.42054   8.42054   8.42054
